/*--------------------------------*- C++ -*----------------------------------*\
| =========                 |                                                 |
| \\      /  F ield         | OpenFOAM: The Open Source CFD Toolbox           |
|  \\    /   O peration     | Version:  2312                                  |
|   \\  /    A nd           | Website:  www.openfoam.com                      |
|    \\/     M anipulation  |                                                 |
\*---------------------------------------------------------------------------*/
FoamFile
{
    version     2.0;
    format      ascii;
    arch        "LSB;label=32;scalar=64";
    class       volScalarField;
    location    "0.305/water";
    object      nut.gas;
}
// * * * * * * * * * * * * * * * * * * * * * * * * * * * * * * * * * * * * * //

dimensions      [0 2 -1 0 0 0 0];

internalField   nonuniform List<scalar> 
6000
(
3.23765394397e-07
1.25809272056e-07
5.22207441644e-08
3.53119718979e-08
1.31089380096e-07
9.66696283296e-07
4.08538538273e-06
9.16888562838e-06
1.38000331263e-05
1.67407147483e-05
1.82847737819e-05
1.90059722686e-05
1.93093578355e-05
1.94194012812e-05
1.94475194905e-05
1.94449402414e-05
1.94335372653e-05
1.94217819323e-05
1.9412429039e-05
1.94060110139e-05
1.64717071891e-06
1.00217162e-06
4.84290795483e-07
2.50312596911e-07
1.03692942367e-07
7.76246002293e-08
1.69068146573e-07
9.89417428152e-07
4.22111318843e-06
9.55301563196e-06
1.41760239882e-05
1.70070012476e-05
1.84527502831e-05
1.91058535063e-05
1.93652956533e-05
1.94475977536e-05
1.94581574691e-05
1.94443838302e-05
1.94259580817e-05
1.9410192925e-05
2.29085374834e-06
1.66383650896e-06
1.03008453061e-06
5.54627259883e-07
3.01996258479e-07
1.43078788246e-07
1.04028208576e-07
2.47298978039e-07
1.31086779877e-06
4.67225006246e-06
9.65505100625e-06
1.40161741771e-05
1.68404981361e-05
1.83729202621e-05
1.910284071e-05
1.94061216242e-05
1.95065549815e-05
1.95210114072e-05
1.95051500902e-05
1.94833102005e-05
2.7092784429e-06
2.06865578113e-06
1.41135830324e-06
8.63172135686e-07
5.49362342109e-07
2.60418312553e-07
1.40095625929e-07
1.35328610355e-07
4.94809464361e-07
2.28221611454e-06
6.25744357131e-06
1.09871482897e-05
1.47930291882e-05
1.72276982107e-05
1.85660946216e-05
1.92141011883e-05
1.94849872457e-05
1.95720159685e-05
1.9580057287e-05
1.95608041901e-05
3.00078830084e-06
2.36819463926e-06
1.69334848781e-06
1.12306684769e-06
6.70602475473e-07
4.41682762974e-07
1.91608897769e-07
1.26289539247e-07
2.3797431187e-07
1.15077600076e-06
4.01145321317e-06
8.42371809785e-06
1.27003386505e-05
1.5850988852e-05
1.78040681985e-05
1.88661039859e-05
1.93749294075e-05
1.9581163795e-05
1.96399474922e-05
1.96365438686e-05
3.16382271524e-06
2.57816701551e-06
1.91030154067e-06
1.32831707106e-06
8.60441201661e-07
4.90642963648e-07
3.0203806346e-07
1.30909517806e-07
1.44890756422e-07
5.83273668728e-07
2.53088074433e-06
6.37614233752e-06
1.07630069499e-05
1.44016037962e-05
1.68932827565e-05
1.83813137221e-05
1.91688057002e-05
1.95326572481e-05
1.96686930905e-05
1.9696251168e-05
3.22207986815e-06
2.68817837141e-06
2.04984711856e-06
1.47720938587e-06
1.00945398692e-06
6.3304296718e-07
3.34546541006e-07
1.78936037596e-07
9.83814314062e-08
2.86651408882e-07
1.53398101896e-06
4.75735648706e-06
9.04741999496e-06
1.29840010891e-05
1.59097629182e-05
1.77962346884e-05
1.88761424802e-05
1.94231772161e-05
1.96588955028e-05
1.9732322391e-05
3.208672707e-06
2.69984836841e-06
2.10043752719e-06
1.561373651e-06
1.11506954358e-06
7.47458346957e-07
4.40077543146e-07
2.15438657581e-07
9.65681194655e-08
1.27014766366e-07
8.45246749889e-07
3.46799443983e-06
7.55610903209e-06
1.16527846455e-05
1.49104070911e-05
1.71474585043e-05
1.85127556891e-05
1.92555037291e-05
1.9607592782e-05
1.97401583968e-05
3.18351860363e-06
2.68028989243e-06
2.10428762189e-06
1.60196070583e-06
1.18704605537e-06
8.36601657827e-07
5.32143661016e-07
2.76259442016e-07
1.29551046531e-07
6.76083986611e-08
3.67681451863e-07
2.38673481873e-06
6.24334618039e-06
1.04150805579e-05
1.39242793164e-05
1.64620052486e-05
1.80946618765e-05
1.9036042064e-05
1.95147318728e-05
1.97172629205e-05
3.12666283242e-06
2.63065806944e-06
2.08781882748e-06
1.62609451192e-06
1.24163327466e-06
9.06783200648e-07
6.07886472692e-07
3.47217349076e-07
1.44328952933e-07
6.65235500784e-08
1.27898300633e-07
1.41946201573e-06
5.01945078118e-06
9.21915953705e-06
1.29381931324e-05
1.57450556687e-05
1.76286754312e-05
1.87666424206e-05
1.93805540686e-05
1.96634693591e-05
3.04734844186e-06
2.58213678686e-06
2.08796846124e-06
1.66175006781e-06
1.29457372742e-06
9.65014166126e-07
6.69757168864e-07
4.09617737966e-07
1.89058672011e-07
6.40953019463e-08
5.87114489244e-08
6.22108476528e-07
3.66113466068e-06
7.85555184544e-06
1.18300646321e-05
1.49457102582e-05
1.7100954905e-05
1.84486099548e-05
1.92085311893e-05
1.95811355619e-05
3.01790783933e-06
2.5967650572e-06
2.13982724075e-06
1.72441298426e-06
1.3512665451e-06
1.01481241745e-06
7.21546742004e-07
4.65185846122e-07
2.34346915708e-07
7.68601527221e-08
4.53651471481e-08
1.78517219037e-07
2.06013542619e-06
6.12827447309e-06
1.04748316101e-05
1.40128712721e-05
1.64988467334e-05
1.80830661289e-05
1.90031545085e-05
1.94743893884e-05
3.10098171098e-06
2.7067152135e-06
2.24625226246e-06
1.80343073465e-06
1.40244337974e-06
1.05573676141e-06
7.67170189216e-07
5.17255315862e-07
2.8340728636e-07
1.04427269374e-07
3.84489807409e-08
5.83265881614e-08
8.03622335045e-07
4.12364969424e-06
8.77729980108e-06
1.28774145492e-05
1.57955046203e-05
1.76650621308e-05
1.87671928124e-05
1.934728568e-05
3.33459076832e-06
2.91837495992e-06
2.38191198181e-06
1.86744436032e-06
1.43366511752e-06
1.08608889371e-06
8.08152376672e-07
5.69731946034e-07
3.42156998968e-07
1.4304834766e-07
4.39762369373e-08
3.78832538936e-08
1.96593687979e-07
2.16943076977e-06
6.71888691839e-06
1.14654275422e-05
1.4952355332e-05
1.71815404603e-05
1.84987800589e-05
1.92013963248e-05
3.61441629657e-06
3.08169617222e-06
2.44049847826e-06
1.88049588187e-06
1.44152353034e-06
1.10549320055e-06
8.4348970107e-07
6.2296192492e-07
4.07953675188e-07
1.9236211741e-07
5.76255613755e-08
2.69778353381e-08
5.50019402863e-08
7.62696283137e-07
4.46580096903e-06
9.72771276675e-06
1.3924228416e-05
1.6610887603e-05
1.818946632e-05
1.90339673619e-05
3.68448771421e-06
3.09453117232e-06
2.44445859406e-06
1.87956930848e-06
1.44220767536e-06
1.11708840075e-06
8.71629699163e-07
6.70006179481e-07
4.70622479364e-07
2.47685659292e-07
7.63999194174e-08
2.86422088521e-08
3.58882088341e-08
1.62542275443e-07
2.3954742706e-06
7.75670142401e-06
1.26950941478e-05
1.5930335782e-05
1.78250922865e-05
1.88377876033e-05
3.73853030635e-06
3.1357777363e-06
2.46660614602e-06
1.88842754197e-06
1.44602432179e-06
1.12570285422e-06
8.92983347172e-07
7.080921665e-07
5.231526916e-07
2.97357059159e-07
9.62828674109e-08
3.14396194213e-08
2.61511664884e-08
6.39873608076e-08
8.43041295019e-07
5.68230053525e-06
1.12731961041e-05
1.5118100945e-05
1.73876163822e-05
1.86024826106e-05
3.74402568115e-06
3.14564397742e-06
2.47667214812e-06
1.8959221354e-06
1.4508983776e-06
1.13268923661e-06
9.09039555066e-07
7.37960509602e-07
5.65004090145e-07
3.36967524164e-07
1.12240812893e-07
3.33381189091e-08
2.48410704898e-08
3.89967714972e-08
2.20192861597e-07
3.66298359895e-06
9.72657223973e-06
1.41635344333e-05
1.68586155481e-05
1.83163633032e-05
3.72975286599e-06
3.14119693903e-06
2.47449438951e-06
1.89457265784e-06
1.45046428945e-06
1.13598457835e-06
9.21121620669e-07
7.62660032893e-07
5.99016427376e-07
3.65943925334e-07
1.22590327258e-07
3.3932722963e-08
2.35292769198e-08
3.13802831341e-08
1.08136888862e-07
1.92976748885e-06
8.11477944907e-06
1.30533692403e-05
1.62174830824e-05
1.79666918156e-05
3.73097023975e-06
3.14034574683e-06
2.47184756905e-06
1.88933299354e-06
1.44676713422e-06
1.13817082407e-06
9.33612727719e-07
7.87793040807e-07
6.28178890254e-07
3.84796271787e-07
1.28188492716e-07
3.37990480835e-08
2.24217866705e-08
2.74031700916e-08
7.70408120756e-08
8.54349165617e-07
6.36186391898e-06
1.17408651285e-05
1.54364742293e-05
1.75382329958e-05
3.73280246464e-06
3.14605991507e-06
2.47419789866e-06
1.88727210613e-06
1.44621613237e-06
1.14480322574e-06
9.52049416593e-07
8.15922439439e-07
6.52255088699e-07
3.96642867958e-07
1.32641280858e-07
3.40630508378e-08
2.18716343216e-08
2.46228322742e-08
4.93012258165e-08
3.80540561884e-07
4.56471502109e-06
1.02049413933e-05
1.4486550469e-05
1.70124681221e-05
3.75440322659e-06
3.1591869529e-06
2.48055827453e-06
1.89138288835e-06
1.4536081656e-06
1.16022006912e-06
9.77824756257e-07
8.44245584201e-07
6.71550691053e-07
4.06704915528e-07
1.40033472801e-07
3.57968465909e-08
2.20034462638e-08
2.33083415709e-08
3.32796552686e-08
1.79653618477e-07
2.91374798293e-06
8.43973882158e-06
1.3332717941e-05
1.63663340257e-05
3.77096349713e-06
3.16932129423e-06
2.48555636635e-06
1.9002995526e-06
1.47036756129e-06
1.18551634982e-06
1.00778299326e-06
8.70378569861e-07
6.87424206722e-07
4.17587554854e-07
1.51999157025e-07
3.94542518518e-08
2.26403565372e-08
2.31603142557e-08
2.75976830825e-08
8.99040946052e-08
1.60696957924e-06
6.52189428883e-06
1.195239329e-05
1.55766435499e-05
3.79192081186e-06
3.16705344619e-06
2.48118285441e-06
1.91055732476e-06
1.49600188216e-06
1.218811888e-06
1.03954042606e-06
8.9364866574e-07
6.98472507442e-07
4.27801080043e-07
1.66432774444e-07
4.48512374032e-08
2.3492020992e-08
2.36286543713e-08
2.69871109552e-08
5.58494197695e-08
7.57387563677e-07
4.64005086688e-06
1.03563208005e-05
1.46271103346e-05
3.76319756011e-06
3.12493571135e-06
2.47051550688e-06
1.93606370783e-06
1.54008017596e-06
1.26203958698e-06
1.07228870743e-06
9.10864125226e-07
7.01107769574e-07
4.3207900071e-07
1.81749064874e-07
5.16316764637e-08
2.43464864429e-08
2.41664018223e-08
2.74551293421e-08
4.32609193858e-08
2.79770829314e-07
2.97564460354e-06
8.58972931968e-06
1.3512058186e-05
3.68915558711e-06
3.10208487316e-06
2.51517696262e-06
2.01630721647e-06
1.61694563872e-06
1.31554478098e-06
1.10169458079e-06
9.15205074034e-07
6.91122004681e-07
4.36022156619e-07
2.01411942904e-07
5.96062026838e-08
2.51839101833e-08
2.42750495102e-08
2.77902032784e-08
3.2857477608e-08
1.00404664052e-07
1.67200416052e-06
6.76520299627e-06
1.2241997217e-05
3.70325719476e-06
3.20941745793e-06
2.67244814982e-06
2.1649156705e-06
1.71587155217e-06
1.36574426404e-06
1.11503260744e-06
9.03134554663e-07
6.8269425534e-07
4.51235150224e-07
2.26477271894e-07
6.96417615991e-08
2.62149837615e-08
2.40481031847e-08
2.74734936014e-08
3.19377354187e-08
6.47426103284e-08
7.39312148143e-07
5.01730165627e-06
1.08399174138e-05
3.89103285363e-06
3.46201205259e-06
2.91452829247e-06
2.3322061132e-06
1.79587041731e-06
1.39426562016e-06
1.11415136903e-06
8.93049040237e-07
6.8945158574e-07
4.8147446019e-07
2.60736111283e-07
8.38557018159e-08
2.79142761332e-08
2.38099708222e-08
2.6675213174e-08
3.05482985727e-08
4.01270221786e-08
2.40063248633e-07
3.39541520639e-06
9.32838478646e-06
4.29529354917e-06
3.84942011603e-06
3.17561315671e-06
2.45739815487e-06
1.84976754853e-06
1.41593393064e-06
1.11871491242e-06
8.98354636622e-07
7.14307023651e-07
5.28139286155e-07
3.09060614032e-07
1.05520679665e-07
3.10197214873e-08
2.37895502261e-08
2.59434725766e-08
2.89477265389e-08
3.50783583122e-08
1.05175008882e-07
1.90700056081e-06
7.72249704505e-06
4.745909946e-06
4.15167384532e-06
3.32259991935e-06
2.53081224188e-06
1.89409405716e-06
1.4436117157e-06
1.13583776755e-06
9.17460979179e-07
7.50213331754e-07
5.85769250452e-07
3.71625178174e-07
1.38190152012e-07
3.66384443522e-08
2.42290643687e-08
2.55644430152e-08
2.7653751887e-08
3.15619738187e-08
7.06305853682e-08
7.83779313198e-07
6.04767061786e-06
4.86800444736e-06
4.17885769896e-06
3.3544371865e-06
2.57779162598e-06
1.93565239708e-06
1.47223821044e-06
1.15750563398e-06
9.40507238749e-07
7.85800352504e-07
6.42281832342e-07
4.40239334848e-07
1.82330638586e-07
4.59915451744e-08
2.53108777909e-08
2.55722103147e-08
2.69096446003e-08
2.91766462638e-08
4.15817821789e-08
2.69617833727e-07
4.33659611191e-06
4.97933234775e-06
4.25469440675e-06
3.40799850215e-06
2.62148152457e-06
1.96786242137e-06
1.49228485025e-06
1.17351940533e-06
9.58791536693e-07
8.13080592399e-07
6.86877990515e-07
5.0127417425e-07
2.31928364553e-07
5.96440025795e-08
2.71539767803e-08
2.58677813654e-08
2.66729904963e-08
2.77179990739e-08
3.48100744897e-08
1.26647412566e-07
2.6417415481e-06
5.03042162659e-06
4.30910404056e-06
3.45613475789e-06
2.66399970559e-06
1.99749690993e-06
1.50855017629e-06
1.18490088751e-06
9.71839879614e-07
8.32068559789e-07
7.16687388249e-07
5.43303323137e-07
2.74117007388e-07
7.59768698152e-08
2.98432038359e-08
2.63276293862e-08
2.67390543609e-08
2.69281417649e-08
3.09360090994e-08
8.5265613162e-08
1.24351818963e-06
5.06908510405e-06
4.33762474746e-06
3.47930414791e-06
2.68413082743e-06
2.01085592031e-06
1.51719412676e-06
1.1926177465e-06
9.81824374655e-07
8.46307475663e-07
7.36403985421e-07
5.67713315113e-07
2.99177561574e-07
8.86099113712e-08
3.25827466625e-08
2.68518183036e-08
2.69069327179e-08
2.64797118003e-08
2.85267761382e-08
4.99824738011e-08
4.84468828196e-07
5.07127196025e-06
4.34593772847e-06
3.48295249617e-06
2.68054190478e-06
2.00476941218e-06
1.51486853518e-06
1.19437602339e-06
9.88102058528e-07
8.57044400985e-07
7.4854398997e-07
5.76968674834e-07
3.06557436397e-07
9.42284793421e-08
3.4276612685e-08
2.72541863473e-08
2.70471957025e-08
2.62182017026e-08
2.69460925662e-08
3.79714467962e-08
2.15601517446e-07
5.08079295086e-06
4.33854507204e-06
3.46719831135e-06
2.65669791309e-06
1.98475527035e-06
1.50388779558e-06
1.19039671157e-06
9.90960344073e-07
8.64926779326e-07
7.53782560262e-07
5.72239746618e-07
2.98515210852e-07
9.3273871002e-08
3.47739075447e-08
2.74583322973e-08
2.71304425888e-08
2.6112578843e-08
2.595116187e-08
3.19968086974e-08
1.25049266302e-07
5.05120986931e-06
4.30000015315e-06
3.42746713558e-06
2.62024104643e-06
1.96052401793e-06
1.48968487573e-06
1.18325937127e-06
9.91907174625e-07
8.70379005675e-07
7.51652758605e-07
5.54562833686e-07
2.79323603356e-07
8.82592754129e-08
3.45208662167e-08
2.75106865139e-08
2.71864511258e-08
2.61439544399e-08
2.54412787885e-08
2.84346800407e-08
8.3269609959e-08
5.02742911824e-06
4.23461005129e-06
3.36234730407e-06
2.57494319009e-06
1.93588279573e-06
1.47539975491e-06
1.1759821557e-06
9.9333338824e-07
8.73271269611e-07
7.41079474409e-07
5.25660703819e-07
2.54161199996e-07
8.19350653158e-08
3.40476585361e-08
2.74653786482e-08
2.72255605388e-08
2.6272747844e-08
2.53309781597e-08
2.65785971242e-08
5.98176072687e-08
4.98818756244e-06
4.15638804832e-06
3.28261055093e-06
2.52041771664e-06
1.90710496805e-06
1.46076762764e-06
1.17171918915e-06
9.97141137062e-07
8.7245265304e-07
7.21503994211e-07
4.88640060578e-07
2.28123701634e-07
7.62905031231e-08
3.36570847446e-08
2.73473547381e-08
2.72411351666e-08
2.64340841488e-08
2.55429551171e-08
2.59074308895e-08
4.4080328676e-08
4.95411822333e-06
4.07584173636e-06
3.19837695917e-06
2.45784517531e-06
1.87191358061e-06
1.44746983052e-06
1.17423640948e-06
1.00281470903e-06
8.66799847305e-07
6.9352042096e-07
4.47793763293e-07
2.05096991427e-07
7.22867288558e-08
3.34375645185e-08
2.72102444211e-08
2.72125773008e-08
2.65314933877e-08
2.58256613514e-08
2.59230926885e-08
3.16201830693e-08
4.8584096991e-06
3.96482377694e-06
3.09506607415e-06
2.37986726533e-06
1.83021261103e-06
1.44041362956e-06
1.18417269814e-06
1.00969513183e-06
8.56757894306e-07
6.58520535049e-07
4.08379356398e-07
1.87725526175e-07
7.03269006533e-08
3.35416311679e-08
2.71363821431e-08
2.70813708893e-08
2.64721694506e-08
2.59329028104e-08
2.61756003774e-08
2.91133274101e-08
4.71878251329e-06
3.80927714087e-06
2.95965058564e-06
2.28777603109e-06
1.79385211114e-06
1.44692337675e-06
1.20339500515e-06
1.01965975559e-06
8.40606866256e-07
6.19337347223e-07
3.7578558169e-07
1.7767796689e-07
7.09093646233e-08
3.43520800653e-08
2.71737144909e-08
2.6798330551e-08
2.62259136968e-08
2.57823185329e-08
2.63574975693e-08
2.85710731196e-08
4.49440531127e-06
3.59071999885e-06
2.81072659145e-06
2.22307183924e-06
1.79620448359e-06
1.48110943463e-06
1.23674865711e-06
1.02821974225e-06
8.14426161599e-07
5.8198457468e-07
3.5491147107e-07
1.76294135582e-07
7.5056208683e-08
3.643314453e-08
2.73958257158e-08
2.63732781945e-08
2.58258665615e-08
2.54369414732e-08
2.62246274807e-08
2.8296008149e-08
4.20659338393e-06
3.42942895384e-06
2.80120721991e-06
2.29198966024e-06
1.88106643904e-06
1.55261995957e-06
1.27640150221e-06
1.02301731315e-06
7.82829615078e-07
5.57940811715e-07
3.51666994459e-07
1.86479808173e-07
8.46064274993e-08
4.02866610218e-08
2.79197821833e-08
2.58711980251e-08
2.53151240768e-08
2.49832251491e-08
2.5770265917e-08
2.78324122977e-08
4.19637355019e-06
3.67409439556e-06
3.12536880179e-06
2.55062521586e-06
2.04009295241e-06
1.63593696317e-06
1.30254969438e-06
1.0120018115e-06
7.67497307209e-07
5.59454336807e-07
3.71356927368e-07
2.11561118285e-07
1.01460510542e-07
4.66415808632e-08
2.90346283897e-08
2.54425848445e-08
2.47507478514e-08
2.44706721462e-08
2.50567252556e-08
2.707545912e-08
4.78176898169e-06
4.37674821137e-06
3.67173286139e-06
2.87320857626e-06
2.21227195795e-06
1.72792228535e-06
1.34203023402e-06
1.02569858551e-06
7.83172982813e-07
5.92047766462e-07
4.19140809001e-07
2.58204571255e-07
1.31188043033e-07
5.80731829161e-08
3.149972339e-08
2.5392098007e-08
2.42604026136e-08
2.39446177435e-08
2.42263525409e-08
2.59862133909e-08
5.60473046241e-06
5.08877223057e-06
4.12368176944e-06
3.15907235505e-06
2.41991173778e-06
1.877333409e-06
1.43844790182e-06
1.09078031173e-06
8.39585457111e-07
6.56708161943e-07
4.96169311599e-07
3.32894884757e-07
1.82088971598e-07
7.93766746842e-08
3.68821715142e-08
2.61562668224e-08
2.40753381415e-08
2.35082399686e-08
2.3461668833e-08
2.46286523418e-08
5.9733843967e-06
5.23794247772e-06
4.2736241927e-06
3.39147157682e-06
2.66402542775e-06
2.08615191446e-06
1.60408171866e-06
1.21596842259e-06
9.34215412633e-07
7.40669735775e-07
5.88502971533e-07
4.30378438963e-07
2.58860597954e-07
1.16318786394e-07
4.73776989303e-08
2.84010878231e-08
2.43961552222e-08
2.33247153681e-08
2.28105360633e-08
2.3110698331e-08
5.64309096908e-06
4.98324590011e-06
4.27989544306e-06
3.5770550042e-06
2.90407716859e-06
2.31266460112e-06
1.80343846991e-06
1.37554816769e-06
1.04810420863e-06
8.25151759017e-07
6.72822520783e-07
5.28371663681e-07
3.51202378431e-07
1.70161820762e-07
6.46865967223e-08
3.26427034244e-08
2.53841783971e-08
2.3479693914e-08
2.22639344215e-08
2.16440718426e-08
5.39352205407e-06
4.8918794877e-06
4.31976156933e-06
3.71920147192e-06
3.10462647709e-06
2.53203034318e-06
2.00556332842e-06
1.53158964652e-06
1.15615435013e-06
8.96838673962e-07
7.3550032379e-07
6.05314324291e-07
4.37323583785e-07
2.32227783149e-07
8.84681609779e-08
3.87236898289e-08
2.69874499478e-08
2.38187802371e-08
2.18038029647e-08
2.03358547279e-08
5.2427451907e-06
4.87408888405e-06
4.39030486255e-06
3.83413767696e-06
3.23478226322e-06
2.66668196278e-06
2.13786803867e-06
1.64609322832e-06
1.23857825868e-06
9.50454252601e-07
7.77364777201e-07
6.56643093939e-07
5.0304384323e-07
2.89947339226e-07
1.15650662242e-07
4.62675094435e-08
2.87780000936e-08
2.41715001216e-08
2.13894984612e-08
1.91794002227e-08
5.07224800369e-06
4.81432251728e-06
4.41010151349e-06
3.89061924233e-06
3.29854907632e-06
2.73160138246e-06
2.20351720705e-06
1.7091969827e-06
1.28593189356e-06
9.84762520976e-07
8.05065022576e-07
6.89192888429e-07
5.46995346392e-07
3.35101576937e-07
1.42011450951e-07
5.46827960323e-08
3.06266831238e-08
2.44387524644e-08
2.09483932882e-08
1.81123039189e-08
4.9616896569e-06
4.74255533216e-06
4.383860553e-06
3.89153435224e-06
3.30894614919e-06
2.74486186231e-06
2.22012549038e-06
1.72916293436e-06
1.30492414451e-06
1.00475955457e-06
8.26165852531e-07
7.1336701003e-07
5.76123094435e-07
3.64934916304e-07
1.61786946743e-07
6.19681469046e-08
3.22562938991e-08
2.4480883e-08
2.04125014438e-08
1.70708537403e-08
4.86926298959e-06
4.68017843904e-06
4.34232997083e-06
3.86013602137e-06
3.2810777313e-06
2.71846036503e-06
2.19655604718e-06
1.7119158856e-06
1.30074395166e-06
1.01404236465e-06
8.43851021986e-07
7.34167335132e-07
5.9614500243e-07
3.8175876895e-07
1.72997601612e-07
6.64547791016e-08
3.31584751303e-08
2.41530002485e-08
1.97060274392e-08
1.59944364334e-08
4.82168609069e-06
4.64678515846e-06
4.31189171026e-06
3.81966529673e-06
3.2302714815e-06
2.66201377106e-06
2.14089209507e-06
1.66611407656e-06
1.28062053815e-06
1.01724375494e-06
8.60363344799e-07
7.53098500553e-07
6.08802132127e-07
3.87191895725e-07
1.75805230221e-07
6.7692019295e-08
3.3135930046e-08
2.34922970074e-08
1.87731515073e-08
1.48246591872e-08
4.79921785064e-06
4.65039777759e-06
4.30761222075e-06
3.78605193445e-06
3.16660347217e-06
2.57967612253e-06
2.0564057674e-06
1.60217681006e-06
1.25319094242e-06
1.01874608885e-06
8.7698794752e-07
7.69755750638e-07
6.13693137432e-07
3.82000170828e-07
1.71055554176e-07
6.58745780654e-08
3.21788958938e-08
2.25078765174e-08
1.76566455842e-08
1.35315546935e-08
4.84053469093e-06
4.7037966078e-06
4.33722260454e-06
3.76356098294e-06
3.09108744553e-06
2.47157309607e-06
1.94541211014e-06
1.53184096494e-06
1.22542641109e-06
1.02111493205e-06
8.93967912047e-07
7.82749264733e-07
6.09551115936e-07
3.66778280084e-07
1.60113244327e-07
6.16567023248e-08
3.04532500142e-08
2.12400599625e-08
1.6396531645e-08
1.21604119423e-08
4.95713577296e-06
4.80702702919e-06
4.36454904144e-06
3.71817270468e-06
2.99272547995e-06
2.34788634959e-06
1.83796949728e-06
1.4670837394e-06
1.20154284537e-06
1.02621850349e-06
9.11382766965e-07
7.9013419093e-07
5.95046459128e-07
3.42741514699e-07
1.44951128734e-07
5.5990668811e-08
2.82351204772e-08
1.97599964862e-08
1.50286477589e-08
1.0761173704e-08
5.14464769659e-06
4.89868374319e-06
4.32325085636e-06
3.61918320652e-06
2.86845445581e-06
2.21969672188e-06
1.74553193301e-06
1.41287703088e-06
1.1845109244e-06
1.03647829774e-06
9.28862201626e-07
7.89393641139e-07
5.69823350016e-07
3.12474484165e-07
1.28042501693e-07
4.99033289531e-08
2.58219798542e-08
1.81365760469e-08
1.35832226735e-08
9.37646424753e-09
5.24620633608e-06
4.83625569002e-06
4.1956874201e-06
3.48595171228e-06
2.74211893153e-06
2.11288467998e-06
1.66736709827e-06
1.3706582195e-06
1.17748902787e-06
1.05430479553e-06
9.44401885871e-07
7.78129990047e-07
5.35584159449e-07
2.79969692202e-07
1.11905936723e-07
4.42711418876e-08
2.34655039562e-08
1.64327605207e-08
1.20928360395e-08
8.038094957e-09
5.22922781382e-06
4.64385198025e-06
3.99811287852e-06
3.32034211483e-06
2.61833336926e-06
2.02297872529e-06
1.60747264594e-06
1.34357532447e-06
1.18519728453e-06
1.0798704698e-06
9.54211264944e-07
7.55765770034e-07
4.96317804354e-07
2.49736210783e-07
9.85407663992e-08
3.96749211068e-08
2.13348415202e-08
1.47056989156e-08
1.05885505324e-08
6.75918573194e-09
5.17142377036e-06
4.47052644764e-06
3.81860969727e-06
3.17596393637e-06
2.52314973016e-06
1.96238241704e-06
1.57115244512e-06
1.33892380055e-06
1.2125715784e-06
1.11075049307e-06
9.55191579198e-07
7.24121540894e-07
4.57661593444e-07
2.25684523343e-07
8.92089533959e-08
3.6427543721e-08
1.9532633456e-08
1.30173722429e-08
9.09475583666e-09
5.54513197615e-09
5.08331344824e-06
4.3554493243e-06
3.69959264264e-06
3.07443711038e-06
2.45639996355e-06
1.92491014757e-06
1.5612741049e-06
1.36548947606e-06
1.26139465973e-06
1.1438125626e-06
9.4633755323e-07
6.87470380708e-07
4.25712085661e-07
2.10691584806e-07
8.47136969443e-08
3.47494739956e-08
1.8159669863e-08
1.14467857314e-08
7.6399974438e-09
4.41534307058e-09
4.95523985121e-06
4.2579840483e-06
3.61283606858e-06
3.00312084028e-06
2.40999943886e-06
1.9088600371e-06
1.58556174609e-06
1.42884857563e-06
1.33079602566e-06
1.17705005385e-06
9.29558548483e-07
6.53967493129e-07
4.06475561474e-07
2.07065691884e-07
8.59382424126e-08
3.50444006025e-08
1.73877966687e-08
1.01106174654e-08
6.26882563679e-09
3.4063026318e-09
4.87167443158e-06
4.25254759605e-06
3.61762685858e-06
3.00523554395e-06
2.41081808438e-06
1.93381824526e-06
1.65543665166e-06
1.52834757391e-06
1.41667166165e-06
1.21075511905e-06
9.16269563211e-07
6.35465908998e-07
4.05113257819e-07
2.16875795497e-07
9.47509963457e-08
3.83389994063e-08
1.75603677713e-08
9.17588672149e-09
5.07699281323e-09
2.55726459525e-09
4.93292203922e-06
4.40876713766e-06
3.77034572249e-06
3.10955145703e-06
2.47838225484e-06
2.01123181555e-06
1.76434511521e-06
1.64811954707e-06
1.51223167284e-06
1.25795490549e-06
9.28359588162e-07
6.4374051461e-07
4.24666447859e-07
2.44359678202e-07
1.1520916869e-07
4.61779174265e-08
1.91045091429e-08
8.80785315258e-09
4.17075811501e-09
1.88156804562e-09
5.18762365526e-06
4.6968774902e-06
4.01014036001e-06
3.26135914233e-06
2.58325658388e-06
2.11299644934e-06
1.87503878076e-06
1.75967954344e-06
1.61451790596e-06
1.3412711971e-06
9.84214274104e-07
6.84254616885e-07
4.65758644473e-07
2.93799670471e-07
1.52249995598e-07
6.11948876829e-08
2.28018300575e-08
9.19559531449e-09
3.63493397489e-09
1.38494427865e-09
5.56439934968e-06
4.95358492699e-06
4.14167516015e-06
3.33864327425e-06
2.65358014048e-06
2.18388768572e-06
1.94475705554e-06
1.83772562238e-06
1.71293911182e-06
1.45257858784e-06
1.07077452847e-06
7.47745345689e-07
5.29234108464e-07
3.65419701276e-07
2.1063847334e-07
8.84698297731e-08
3.04652539723e-08
1.06949841357e-08
3.55485882797e-09
1.05434308639e-09
5.66364521888e-06
4.83488183504e-06
4.01403962044e-06
3.2850649742e-06
2.65335927999e-06
2.20105240502e-06
1.96325259512e-06
1.86676035778e-06
1.76853036088e-06
1.53066288894e-06
1.15843660312e-06
8.33495803857e-07
6.11791432392e-07
4.46185997354e-07
2.84258679462e-07
1.31816896844e-07
4.49721588654e-08
1.40180195229e-08
4.03795557099e-09
8.96808133142e-10
5.60138597275e-06
4.70237340132e-06
3.86585276006e-06
3.18975955184e-06
2.60973534251e-06
2.179774594e-06
1.94531117207e-06
1.85006071425e-06
1.76628086759e-06
1.55897846772e-06
1.22637913634e-06
9.22941749955e-07
6.95775617607e-07
5.18651996428e-07
3.542991355e-07
1.85204061048e-07
6.79546523368e-08
2.00492226807e-08
5.14862666213e-09
9.25530057648e-10
5.503170196e-06
4.56091085181e-06
3.73006094227e-06
3.09829670593e-06
2.55642328285e-06
2.14393925996e-06
1.91147485199e-06
1.81280453369e-06
1.7366483098e-06
1.55890488125e-06
1.26957067018e-06
9.88757285011e-07
7.59511424762e-07
5.73777442775e-07
4.07405098149e-07
2.32677152038e-07
9.36091535371e-08
2.78962130644e-08
6.72157804038e-09
1.07795456473e-09
5.36783300393e-06
4.40865351683e-06
3.6076854075e-06
3.02152551043e-06
2.50888830348e-06
2.1082536901e-06
1.87611262111e-06
1.77300092565e-06
1.69893395226e-06
1.53993583224e-06
1.28275322901e-06
1.02237210461e-06
7.97921642243e-07
6.11225978288e-07
4.43296070741e-07
2.6557427133e-07
1.14053524791e-07
3.51120593176e-08
8.28873884339e-09
1.27379605671e-09
5.25591742654e-06
4.27118796575e-06
3.50218540255e-06
2.96025480382e-06
2.47245517686e-06
2.08012690868e-06
1.8460210414e-06
1.73609659867e-06
1.65809128787e-06
1.50743190703e-06
1.27094678827e-06
1.02820464298e-06
8.14874017275e-07
6.33491325569e-07
4.64623858645e-07
2.83305420081e-07
1.25457279367e-07
3.95547989878e-08
9.29140582908e-09
1.41859410564e-09
5.1876105614e-06
4.16937261999e-06
3.41536805634e-06
2.90860673566e-06
2.44605011565e-06
2.06181569018e-06
1.82350821614e-06
1.70452932725e-06
1.61940560891e-06
1.47126317758e-06
1.2471969781e-06
1.0186172578e-06
8.18562593985e-07
6.44445622057e-07
4.73605093372e-07
2.87323259079e-07
1.27282263246e-07
4.03103771856e-08
9.40041266763e-09
1.43406614719e-09
5.16828820394e-06
4.11476158381e-06
3.36193475074e-06
2.87355907691e-06
2.42927444725e-06
2.05020902353e-06
1.80599065487e-06
1.67824936901e-06
1.58781251878e-06
1.44266372802e-06
1.22754317975e-06
1.00928541623e-06
8.19444356045e-07
6.4906996911e-07
4.72516674761e-07
2.79698544418e-07
1.20893930679e-07
3.77229979343e-08
8.65503482065e-09
1.31551959221e-09
5.14885575389e-06
4.07935985403e-06
3.3296447796e-06
2.84935824159e-06
2.4156244357e-06
2.03876659013e-06
1.78942706465e-06
1.65667903829e-06
1.56655061255e-06
1.42947399065e-06
1.22390779364e-06
1.01157767902e-06
8.24844688061e-07
6.51282759836e-07
4.63964477335e-07
2.63529443728e-07
1.09074898968e-07
3.30815294947e-08
7.41684495292e-09
1.1293868948e-09
5.13182745091e-06
4.04999318611e-06
3.30053884824e-06
2.82034135202e-06
2.39359028077e-06
2.02117147922e-06
1.7728564267e-06
1.64238069954e-06
1.55869386964e-06
1.4338139848e-06
1.23852525763e-06
1.02765694132e-06
8.36539499993e-07
6.52906617947e-07
4.50702776631e-07
2.42832515793e-07
9.53345178382e-08
2.79805263154e-08
6.14178990718e-09
9.60836789576e-10
5.11637968364e-06
4.0210338703e-06
3.26049942955e-06
2.77026874728e-06
2.35244888478e-06
1.99486023677e-06
1.76048354702e-06
1.6424896438e-06
1.56909081173e-06
1.45474559269e-06
1.26691491541e-06
1.05404062922e-06
8.53568901313e-07
6.55354813136e-07
4.3633893443e-07
2.22402362162e-07
8.30166884953e-08
2.37252508714e-08
5.18816872527e-09
8.66157889189e-10
5.11330078933e-06
3.99976018812e-06
3.21114704684e-06
2.69508836585e-06
2.29114778705e-06
1.96578358594e-06
1.76299997603e-06
1.66734774901e-06
1.60329716653e-06
1.49175075914e-06
1.30521841158e-06
1.0878267647e-06
8.75902114405e-07
6.6134040135e-07
4.25806622676e-07
2.07214998249e-07
7.46748359809e-08
2.11497057905e-08
4.74846210699e-09
8.69674883423e-10
5.05159737527e-06
3.96882845059e-06
3.18138213897e-06
2.64661343568e-06
2.25429049435e-06
1.96606539435e-06
1.80262310656e-06
1.72852762191e-06
1.66466304355e-06
1.54449371695e-06
1.35257619501e-06
1.12906047169e-06
9.05778701809e-07
6.75188475284e-07
4.24893262547e-07
2.01889098867e-07
7.21938459071e-08
2.07782294333e-08
4.9031118766e-09
9.86960656244e-10
4.94035550107e-06
3.985358918e-06
3.24001377979e-06
2.69693113511e-06
2.30083592816e-06
2.03516916981e-06
1.89892121987e-06
1.83044178118e-06
1.74975635169e-06
1.60951677529e-06
1.40836070324e-06
1.17951384378e-06
9.46705140788e-07
7.02147992259e-07
4.40038134551e-07
2.11231936065e-07
7.74230693493e-08
2.30748319129e-08
5.74078971953e-09
1.24058640748e-09
4.95268070623e-06
4.15695911562e-06
3.44426789842e-06
2.87429619547e-06
2.44992141386e-06
2.18101669414e-06
2.04338120285e-06