/*--------------------------------*- C++ -*----------------------------------*\
| =========                 |                                                 |
| \\      /  F ield         | OpenFOAM: The Open Source CFD Toolbox           |
|  \\    /   O peration     | Version:  2312                                  |
|   \\  /    A nd           | Website:  www.openfoam.com                      |
|    \\/     M anipulation  |                                                 |
\*---------------------------------------------------------------------------*/
FoamFile
{
    version     2.0;
    format      ascii;
    arch        "LSB;label=32;scalar=64";
    class       volScalarField;
    location    "0.57/water";
    object      nut.gas;
}
// * * * * * * * * * * * * * * * * * * * * * * * * * * * * * * * * * * * * * //

dimensions      [0 2 -1 0 0 0 0];

internalField   nonuniform List<scalar> 
1496
(
6.16209634519e-06
6.72884474089e-06
6.16321982755e-06
5.20116842062e-06
4.18537670061e-06
3.23769274225e-06
2.51179378402e-06
2.01137369404e-06
1.64638232812e-06
1.36762235851e-06
1.16844399076e-06
1.05698423668e-06
1.02893061837e-06
1.06286122112e-06
1.12506173467e-06
1.17779741101e-06
1.19026891729e-06
1.143077964e-06
1.01704300553e-06
7.85780300654e-07
5.92702174217e-06
6.31830242879e-06
5.84019813317e-06
4.96081206682e-06
3.94982718255e-06
2.96605871048e-06
2.20530009342e-06
1.71471036613e-06
1.4053689614e-06
1.20767979597e-06
1.09124414718e-06
1.04443991592e-06
1.0551131281e-06
1.10383311882e-06
1.16274438585e-06
1.2006388752e-06
1.19126091575e-06
1.11135289258e-06
9.24075396088e-07
6.1635534266e-07
5.7713556765e-06
5.864269577e-06
5.49612912489e-06
4.78470921681e-06
3.86991790214e-06
2.92354521495e-06
2.14644974943e-06
1.61301342309e-06
1.2971772846e-06
1.13289665389e-06
1.06581032997e-06
1.06283225056e-06
1.10101133577e-06
1.15747654909e-06
1.20616080742e-06
1.22088457915e-06
1.17633595157e-06
1.03440245907e-06
7.44923193399e-07
3.93784217302e-07
5.47777908909e-06
5.50063245321e-06
5.22788586974e-06
4.6615262619e-06
3.85107810085e-06
2.95729771984e-06
2.17235191108e-06
1.6023430311e-06
1.26559777066e-06
1.1131645955e-06
1.07717421098e-06
1.10476729069e-06
1.15969277507e-06
1.21387195746e-06
1.24246807246e-06
1.22131160045e-06
1.11650040092e-06
8.64279923298e-07
4.86634167161e-07
2.01875113296e-07
5.08143516258e-06
5.11001596201e-06
4.91239302114e-06
4.46533214045e-06
3.75983083492e-06
2.93273493901e-06
2.16453641951e-06
1.58830177666e-06
1.25114129967e-06
1.1173073813e-06
1.1102769497e-06
1.16068528818e-06
1.22065228377e-06
1.25868383469e-06
1.25141889233e-06
1.17443405489e-06
9.78469548982e-07
5.96174649737e-07
2.57672223724e-07
9.15269485491e-08
4.67204346423e-06
4.67157163559e-06
4.51431948516e-06
4.15393081811e-06
3.54072510572e-06
2.78518849441e-06
2.06615507078e-06
1.53208630732e-06
1.23775332097e-06
1.14404420135e-06
1.16613096972e-06
1.225241187e-06
1.26912718461e-06
1.26950074713e-06
1.20949689475e-06
1.06084614974e-06
7.57284005796e-07
3.32941860144e-07
1.21416375137e-07
4.14435574839e-08
4.40801318099e-06
4.35811626474e-06
4.16803901648e-06
3.81830906686e-06
3.253842761e-06
2.55868843295e-06
1.9100936687e-06
1.46051789142e-06
1.2457177507e-06
1.20357248061e-06
1.23976781563e-06
1.27873064385e-06
1.28083014669e-06
1.22972767662e-06
1.10894976383e-06
8.67019276846e-07
4.50473392719e-07
1.59542378569e-07
5.88342636224e-08
2.57457622094e-08
4.31959312685e-06
4.23703591365e-06
3.97004570216e-06
3.57559126187e-06
3.01136441322e-06
2.35037198735e-06
1.77836818044e-06
1.43199042869e-06
1.29904883836e-06
1.28646130117e-06
1.3028195714e-06
1.29598523481e-06
1.24560364806e-06
1.13847307043e-06
9.37799933612e-07
5.78833973889e-07
2.00868123068e-07
8.54210641784e-08
4.17075196561e-08
2.34914854877e-08
4.40195579153e-06
4.30933343159e-06
3.96735689503e-06
3.50518586195e-06
2.89710683831e-06
2.23799737795e-06
1.73302621717e-06
1.47179732786e-06
1.38174197345e-06
1.35565830088e-06
1.32641419546e-06
1.26739575886e-06
1.16367979154e-06
9.82771296054e-07
6.68158703766e-07
2.9092353943e-07
1.06630450994e-07
6.74094011934e-08
4.06397309928e-08
2.52745114843e-08
4.65337633673e-06
4.56628084071e-06
4.1750459357e-06
3.60906131979e-06
2.89229013717e-06
2.20700010392e-06
1.74742425593e-06
1.5248000269e-06
1.42996470851e-06
1.36952635082e-06
1.29991457124e-06
1.19911501043e-06
1.03393876229e-06
7.53359360974e-07
3.90709367096e-07
1.47224929346e-07
8.62592971845e-08
6.5160820449e-08
4.44389713892e-08
2.99400744489e-08
5.18947703077e-06
5.10534732215e-06
4.61846167951e-06
3.84819629346e-06
2.9671383798e-06
2.23312224763e-06
1.77290451213e-06
1.53631216062e-06
1.41404633693e-06
1.33267903605e-06
1.24839117627e-06
1.11851377557e-06
8.93060561056e-07
5.64978821276e-07
2.66265637763e-07
1.19104959538e-07
8.3593522095e-08
6.75832345839e-08
5.11010934419e-08
3.74862377957e-08
6.06267991751e-06
5.81991962054e-06
5.06842213809e-06
4.09720362602e-06
3.12251680855e-06
2.34670823571e-06
1.8385989652e-06
1.54159191052e-06
1.3779623746e-06
1.29142006507e-06
1.21771452547e-06
1.08387583597e-06
8.41791896948e-07
5.25990123256e-07
2.67530129126e-07
1.363753596e-07
9.21337950949e-08
7.4919007221e-08
6.12008834625e-08
4.83912189221e-08
6.46530484104e-06
6.00777765011e-06
5.20411743262e-06
4.28410272722e-06
3.34119714437e-06
2.53206432758e-06
1.96288745156e-06
1.59146192889e-06
1.37403994871e-06
1.28082492767e-06
1.23338622834e-06
1.12829364078e-06
9.13572587424e-07
6.21833863245e-07
3.57513235795e-07
1.96504981726e-07
1.23432084145e-07
9.39735616594e-08
7.8357078732e-08
6.44544462811e-08
6.31932492557e-06
5.90542067799e-06
5.16259360803e-06
4.37046661044e-06
3.52161837193e-06
2.71171289877e-06
2.09572144515e-06
1.67552351449e-06
1.41926497024e-06
1.31521723347e-06
1.29125367406e-06
1.22861710219e-06
1.06648611459e-06
8.15889222786e-07
5.4016962851e-07
3.25177767051e-07
2.01491905967e-07
1.42041595286e-07
1.13168505057e-07
9.22165362945e-08
6.24311409703e-06
5.83645959602e-06
5.05403333746e-06
4.25890765738e-06
3.47036217669e-06
2.73521768774e-06
2.16875691677e-06
1.73559199026e-06
1.48219564885e-06
1.38013008759e-06
1.37412924008e-06
1.34265082304e-06
1.23491273947e-06
1.04875073043e-06
8.014477714e-07
5.48678006822e-07
3.58540832144e-07
2.47743962968e-07
1.88265727524e-07
1.48298910973e-07
6.2844543146e-06
5.79717510956e-06
4.85035619367e-06
3.98405873393e-06
3.18863585536e-06
2.54825543476e-06
2.09381526439e-06
1.76511680366e-06
1.52683550738e-06
1.44290533893e-06
1.45798667634e-06
1.44548583827e-06
1.3766533677e-06
1.25561530438e-06
1.07543871038e-06
8.45425039958e-07
6.14804369492e-07
4.42409612919e-07
3.35402022911e-07
2.5957006332e-07
6.48635977873e-06
5.85028233898e-06
4.68193665385e-06
3.68238917673e-06
2.78757154407e-06
2.21862969258e-06
1.93857538133e-06
1.691459333e-06
1.5193494865e-06
1.48773005987e-06
1.52596816713e-06
1.52647324625e-06
1.48325905038e-06
1.41003312117e-06
1.29732313674e-06
1.13170644561e-06
9.2359026404e-07
7.20741545521e-07
5.67036924451e-07
4.43807257603e-07
6.83491038679e-06
6.09581667976e-06
4.77003447506e-06
3.61132151025e-06
2.55521816206e-06
1.911648192e-06
1.69540491376e-06
1.52649527857e-06
1.46706256271e-06
1.50885305598e-06
1.57351639457e-06
1.58598598284e-06
1.56198317452e-06
1.52115077304e-06
1.45642085287e-06
1.35098995324e-06
1.19531130864e-06
1.00672554781e-06
8.27583775903e-07
6.6560480532e-07
7.27601208904e-06
6.53867536453e-06
5.11500785873e-06
3.83894114664e-06
2.60832279304e-06
1.80487963015e-06
1.47926850369e-06
1.34802403011e-06
1.38509749924e-06
1.49204270097e-06
1.5897606028e-06
1.62576756349e-06
1.62310775488e-06
1.60579160254e-06
1.57168072107e-06
1.50705945594e-06
1.39664613209e-06
1.23346660576e-06
1.03808204657e-06
8.53055471052e-07
7.90733165034e-06
7.18999676582e-06
5.65679702315e-06
4.28036616244e-06
2.93488138542e-06
1.99516920751e-06
1.44114464031e-06
1.13889338632e-06
1.22757052968e-06
1.41198894962e-06
1.56641121307e-06
1.64616117929e-06
1.67299815707e-06
1.67508607654e-06
1.65916826358e-06
1.61819216054e-06
1.53610812069e-06
1.38920997625e-06
1.17794008585e-06
9.75322495002e-07
8.56150893674e-06
7.9874557258e-06
6.33060559253e-06
4.78888595559e-06
3.31447286926e-06
2.22452169115e-06
1.56101574281e-06
1.03833119723e-06
1.03111375632e-06
1.27768295807e-06
1.51256666778e-06
1.65232415532e-06
1.7138584106e-06
1.73178083984e-06
1.72476180307e-06
1.69301977132e-06
1.61790465467e-06
1.46661454535e-06
1.24456904525e-06
1.02880977985e-06
9.0130321577e-06
8.67367661002e-06
6.99170138554e-06
5.2932153989e-06
3.66991126499e-06
2.42101440216e-06
1.66771554785e-06
1.05385507954e-06
9.49209020471e-07
1.19554096352e-06
1.48121315386e-06
1.66601362208e-06
1.75012032127e-06
1.77287912455e-06
1.76260947509e-06
1.72201408251e-06
1.6285293356e-06
1.45757344175e-06
1.23321886844e-06
1.01122023151e-06
9.29109155712e-06
9.17612439268e-06
7.54306919108e-06
5.75183804361e-06
3.99299884038e-06
2.57025557389e-06
1.71841438272e-06
1.07817004116e-06
9.63035993536e-07
1.20968607396e-06
1.50848239281e-06
1.7004497638e-06
1.77864298513e-06
1.78471670335e-06
1.7504384613e-06
1.67963016019e-06
1.55657358109e-06
1.37424326671e-06
1.15419546681e-06
9.29025054206e-07
9.43273017654e-06
9.51675074426e-06
7.98365030398e-06
6.17244523582e-06
4.33035190817e-06
2.73405733662e-06
1.77089981456e-06
1.13904096302e-06
1.04609962022e-06
1.29828456958e-06
1.57937628313e-06
1.7399693954e-06
1.78024958225e-06
1.74616272464e-06
1.67175871934e-06
1.56603010506e-06
1.42133195287e-06
1.23311842456e-06
1.01114414173e-06
7.76092219373e-07
9.50884177601e-06
9.73879472019e-06
8.3416067816e-06
6.58022432647e-06
4.74254324438e-06
3.02545191848e-06
1.93550545131e-06
1.30278947539e-06
1.17969625678e-06
1.40009791106e-06
1.6398606722e-06
1.75040207829e-06
1.73933564834e-06
1.65785433304e-06
1.54249521703e-06
1.40408632432e-06
1.23613852829e-06
1.03175249184e-06
7.97997942435e-07
5.56141186287e-07
9.50578390246e-06
9.85256574896e-06
8.62370534813e-06
6.97502992009e-06
5.2319027128e-06
3.50609898457e-06
2.29517157228e-06
1.61216077104e-06
1.34360837221e-06
1.43564588885e-06
1.62681126298e-06
1.71001693028e-06
1.66537801628e-06
1.54517440393e-06
1.39045558851e-06
1.21355395519e-06
1.01100940796e-06
7.82309218098e-07
5.44394171175e-07
3.38934157805e-07
9.43835771135e-06
9.86729899786e-06
8.81844021756e-06
7.33097593847e-06
5.748870531e-06
4.13977576121e-06
2.87361755521e-06
2.10839799382e-06
1.57944808458e-06
1.43751240522e-06
1.53933944559e-06
1.62118285581e-06
1.57397343113e-06
1.4305232611e-06
1.23777581874e-06
1.01616641568e-06
7.74680177423e-07
5.32944283724e-07
3.27790975279e-07
1.93923087601e-07
9.23606239e-06
9.75061353792e-06
8.87928435301e-06
7.56989311218e-06
6.15854287454e-06
4.70644773225e-06
3.45581089372e-06
2.59511010211e-06
1.93316689603e-06
1.49866676755e-06
1.44088014626e-06
1.50751517082e-06
1.4757169154e-06
1.32464579398e-06
1.09924514852e-06
8.32214107007e-07
5.594962361e-07
3.33228510575e-07
1.88378655301e-07
1.14239045419e-07
8.84150881713e-06
9.44126872681e-06
8.73883859179e-06
7.60343894552e-06
6.34474425878e-06
5.02799598632e-06
3.82275347834e-06
2.90412427616e-06
2.17209829637e-06
1.6067089604e-06
1.40697375939e-06
1.41929073662e-06
1.38602718069e-06
1.22820090204e-06
9.72465038224e-07
6.61536654065e-07
3.78144566294e-07
1.98044166194e-07
1.13133520679e-07
6.77106078406e-08
8.29446658474e-06
8.93901832068e-06
8.38564914017e-06
7.41477380441e-06
6.2940111273e-06
5.08646879429e-06
3.93410388031e-06
2.99976213331e-06
2.24963720808e-06
1.646974465e-06
1.39927134211e-06
1.3668733668e-06
1.31009999932e-06
1.13225660556e-06
8.39298747595e-07
4.93007483827e-07
2.37704465439e-07
1.20255526746e-07
7.21727582105e-08
3.96976627197e-08
7.73343056818e-06
8.31157405999e-06
7.87197494163e-06
7.05137110311e-06
6.0589133443e-06
4.93661849525e-06
3.82128541458e-06
2.89131425988e-06
2.15993279538e-06
1.60361534966e-06
1.38366513932e-06
1.32830943842e-06
1.23681976001e-06
1.02373759505e-06
6.84672179901e-07
3.3462894135e-07
1.44749149229e-07
7.74323053837e-08
4.62028142174e-08
2.70368052747e-08
7.19383042247e-06
7.50708194229e-06
7.2117261762e-06
6.58970286646e-06
5.73676970491e-06
4.65663583853e-06
3.53078535399e-06
2.6341546735e-06
1.96227516504e-06
1.51932696068e-06
1.35379962598e-06
1.28287889355e-06
1.15399743286e-06
8.94977359768e-07
5.14629620686e-07
2.09311599716e-07
9.14406972856e-08
5.45817969592e-08
3.25891686553e-08
2.0103700014e-08
6.64788893013e-06
6.74698925336e-06
6.55672309877e-06
6.14101209254e-06
5.43344555522e-06
4.37677499659e-06
3.24252020085e-06
2.41698454181e-06
1.76434786026e-06
1.43421489486e-06
1.30980114367e-06
1.22295965338e-06
1.05926682849e-06
7.47951291851e-07
3.54271461081e-07
1.2727567954e-07
6.5568555793e-08
4.43156269492e-08
2.8628692697e-08
1.72722751583e-08
6.03744360612e-06
6.07878996614e-06
6.02668203786e-06
5.78043486046e-06
5.17333000346e-06
4.13670529704e-06
3.00545267899e-06
2.19697820804e-06
1.60410588154e-06
1.34883684962e-06
1.24788072026e-06
1.15152046504e-06
9.56660645263e-07
5.93954933454e-07
2.28985649442e-07
8.55881608628e-08
5.49901833352e-08
4.32443680655e-08
3.146708808e-08
1.89871788671e-08
5.36095087806e-06
5.40503743254e-06
5.53003416626e-06
5.45450343813e-06
4.94108939387e-06
3.96905666378e-06
2.88441142843e-06
2.00200583727e-06
1.45724803714e-06
1.24880444406e-06
1.17124719227e-06
1.07670420261e-06
8.50172656875e-07
4.51919375423e-07
1.50750064426e-07
6.84774559632e-08
5.32591372016e-08
4.98078119809e-08
4.12655008918e-08
2.66145923787e-08
4.81647760643e-06
4.82330310787e-06
5.09846884708e-06
5.16162813545e-06
4.72915658129e-06
3.80687462558e-06
2.76502091172e-06
1.83229089641e-06
1.31984762812e-06
1.14577050724e-06
1.09471040796e-06
1.00478657316e-06
7.42097386824e-07
3.38261820352e-07
1.11394823046e-07
6.34900949028e-08
5.79347044023e-08
6.25311981382e-08
5.86034876286e-08
4.2155359313e-08
4.4898355313e-06
4.44521993881e-06
4.7773908883e-06
4.93092129035e-06
4.50710129961e-06
3.62103406246e-06
2.62527338676e-06
1.67562249898e-06
1.19420818757e-06
1.05715850729e-06
1.03319869887e-06
9.38002995071e-07
6.33466294346e-07
2.56720845542e-07
9.47939634492e-08
6.54259990828e-08
6.79119660909e-08
8.07266449635e-08
8.38379936747e-08
6.82349271222e-08
3.88170679151e-08
2.7845033751e-08
1.97137344167e-08
9.64824321983e-09
5.9541554078e-09
7.66264657475e-09
3.30267949339e-08
1.81000118491e-07
4.41012392281e-07
8.43148303058e-07
1.08003968432e-06
4.27340410972e-07
4.39644833552e-07
4.41822030238e-07
4.25361647098e-07
2.89071234509e-06
4.88480266168e-07
2.44851381809e-07
1.06616594294e-07
4.84539406465e-08
2.97680027651e-08
2.35275564585e-08
1.45454887486e-08
7.96556456785e-09
6.41791523796e-09
1.23265964374e-08
8.07547742149e-08
3.47964689764e-07
7.17864024296e-07
2.05136849487e-06
1.0552113591e-06
4.20243346036e-07
4.39675938642e-07
4.35722777863e-07
3.98083694914e-07
2.71228869613e-06
3.14891148205e-07
1.35668093674e-07
5.88651046552e-08
3.26277197384e-08
2.44674597765e-08
1.81370553838e-08
1.07287651043e-08
7.4091962645e-09
7.88988125459e-09
2.33385870281e-08
1.56332131267e-07
4.25265703033e-07
1.18379122536e-06
2.76125832946e-06
6.6105714897e-07
3.95905621135e-07
4.17885719886e-07
4.1582646444e-07
3.7521506552e-07
2.62198052985e-06
1.63836021008e-07
6.68457808338e-08
3.49534952632e-08
2.46085459401e-08
1.9249303828e-08
1.3227916872e-08
8.50312443962e-09
8.16209557891e-09
1.15346241309e-08
3.84347270322e-08
1.710973859e-07
4.25908413238e-07
1.17799482039e-06
2.56050627029e-06
5.10075761035e-07
3.56223905884e-07
3.73457266013e-07
3.84692082068e-07
3.65226540542e-07
2.68714989839e-06
7.48328666249e-08
3.4549090411e-08
2.36341425027e-08
1.9432288529e-08
1.51382771384e-08
9.66309410054e-09
7.82851973917e-09
1.1223143499e-08
1.86196316989e-08
3.84349320167e-08
1.2937023652e-07
3.61859480774e-07
9.90213349411e-07
2.28457544271e-06
4.51525349538e-07
3.09279115368e-07
3.21217961278e-07
3.46414681425e-07
3.62210561428e-07
2.53688402701e-06
3.48630660311e-08
2.17740241996e-08
1.8885469512e-08
1.65242315602e-08
1.24764930917e-08
7.35318500082e-09
8.90322103914e-09
1.54940700469e-08
2.36915929063e-08
3.22102587916e-08
7.88595019248e-08
2.31993518998e-07
5.26376074065e-07
1.93877719331e-06
7.29769418631e-07
2.75459992136e-07
2.88306726695e-07
3.09657913304e-07
3.40442605092e-07
6.3335355545e-07
2.10003239836e-08
1.76284837852e-08
1.66709611409e-08
1.46472407985e-08
1.04836340617e-08
7.30722166439e-09
1.04245227824e-08
1.82814233542e-08
2.62518000869e-08
3.17031188906e-08
5.14205625679e-08
1.13395787176e-07
2.42498973092e-07
9.22791000201e-07
1.68284906806e-06
6.04917413057e-07
2.66790254702e-07
2.7221266538e-07
2.911134106e-07
4.84651606697e-07
1.76412629125e-08
1.59945996299e-08
1.53549195161e-08
1.36224888016e-08
9.53735779537e-09
8.69160978652e-09
1.30983460078e-08
2.18997277628e-08
3.02893048255e-08
3.52001252971e-08
4.37478545943e-08
7.22296172798e-08
1.47889961214e-07
3.20823856582e-07
1.1276190443e-06
1.57160095417e-06
8.63418816072e-07
2.43864700783e-07
2.75302596957e-07
5.36954027828e-07
1.7252007282e-08
1.56701165736e-08
1.51193802518e-08
1.35641943491e-08
1.04080445634e-08
1.16573778428e-08
1.78231635574e-08
2.79135161889e-08
3.69167722304e-08
4.18048356685e-08
4.59879481114e-08
5.95195717578e-08
1.0042958429e-07
1.6279592875e-07
5.96690940034e-07
1.16532583274e-06
1.56482078123e-06
9.67973249141e-07
2.7644093767e-07
5.13122491647e-07
1.89099217947e-08
1.70201092639e-08
1.63565413703e-08
1.50727166566e-08
1.35436954328e-08
1.68713554193e-08
2.52547092392e-08
3.68299528826e-08
4.62078043159e-08
5.0791611429e-08
5.27093960953e-08
5.83888674327e-08
7.19209319476e-08
1.25681194011e-07
5.60078074213e-07
8.99880169249e-07
1.31251853849e-06
1.98724342565e-06
2.78026424855e-07
4.37816213337e-07
2.29299550744e-08
2.05426740882e-08
1.97045592633e-08
1.89453669212e-08
1.9568221059e-08
2.51118112712e-08
3.60495564191e-08
4.87449361904e-08
5.76002225604e-08
6.09543305877e-08
6.05930889453e-08
6.11302708189e-08
7.37434634668e-08
1.41996995865e-07
6.19829841986e-07
7.79271183922e-07
1.30634745182e-06
2.24583755698e-06
3.24092282769e-07
3.84389618972e-07
2.97275248279e-08
2.67729116152e-08
2.59276590421e-08
2.60213323758e-08
2.90795562886e-08
3.72017441361e-08
5.06725999466e-08
6.31650001902e-08
7.00521897033e-08
7.10147836918e-08
6.74876652117e-08
6.33207395523e-08
8.53666080803e-08
3.21975484526e-07
5.64436142539e-07
7.6080103448e-07
1.46362027448e-06
2.45885341524e-06
3.7972137941e-07
4.02664554484e-07
3.97108089557e-08
3.6061744074e-08
3.53377663705e-08
3.64649179543e-08
4.16823564543e-08
5.33461638553e-08
6.81110941432e-08
7.82753211235e-08
8.16871874373e-08
7.89164945267e-08
7.09951132176e-08
6.240521401e-08
1.26683078498e-07
4.58592234432e-07
5.27757003293e-07
8.47747034451e-07
1.60988813452e-06
1.81888028085e-06
3.23282196462e-07
2.34287058704e-07
5.36460634993e-08
4.83971171281e-08
4.72163871258e-08
4.92465090767e-08
5.69517812202e-08
7.25004289582e-08
8.5683598918e-08
9.14092067087e-08
8.99928992714e-08
8.20403757334e-08
6.93626424111e-08
8.16193874933e-08
3.51581498425e-07
4.38442341183e-07
5.80313648637e-07
1.04172887374e-06
1.79044256245e-06
6.75216718731e-07
2.61104725371e-07
1.30575243432e-32
7.52424627393e-08
6.50147577851e-08
6.10724528491e-08
6.42271021187e-08
7.66675320854e-08
9.26501501101e-08
1.00711465967e-07
1.00131657857e-07
9.23726855651e-08
7.86007428341e-08
6.30280848704e-08
1.51417921885e-07
4.03967162413e-07
4.74858564691e-07
7.31257351883e-07
1.26611590053e-06
1.8791154103e-06
3.48461980021e-07
1.98126335058e-07
1.45858810165e-32
1.15731173619e-07
9.29031715381e-08
8.17127937961e-08
8.53930448706e-08
1.01690492819e-07
1.11361335016e-07
1.10775559648e-07
1.01893265366e-07
8.70438650763e-08
6.94713940473e-08
7.64984817638e-08
2.83761605269e-07
4.31368865886e-07
5.92612270035e-07
9.36226978402e-07
1.44345000978e-06
1.78066973369e-06
2.4210902602e-07
1.00037642692e-07
1.79966918542e-32
1.95592955449e-07
1.46845017018e-07
1.19964498429e-07
1.18540382299e-07
1.28681954604e-07
1.24985802411e-07
1.12598850751e-07
9.46983455013e-08
7.51391931183e-08
5.82482605447e-08
8.07869860796e-08
2.92975084236e-07
5.02075455463e-07
7.54904117223e-07
1.13866153757e-06
1.54302461356e-06
1.38623665746e-06
1.51701159567e-07
3.25191909137e-08
2.78514529327e-32
3.33645993728e-07
2.42523141032e-07
1.85518724866e-07
1.64689320515e-07
1.51916367148e-07
1.28889962103e-07
1.03979054027e-07
7.99586179175e-08
6.06221403091e-08
6.3779189481e-08
9.11002754305e-08
2.64011045166e-07
5.24915464843e-07
9.01911597283e-07
1.31290910917e-06
1.48450089146e-06
4.42355319565e-07
1.30022571099e-07
1.1308808863e-08
8.93612731239e-32
5.11909585575e-07
3.72841058302e-07
2.72253138335e-07
2.12864627938e-07
1.64299547641e-07
1.21532479223e-07
8.70989722392e-08
6.21225082953e-08
5.66253805166e-08
6.75222058286e-08
1.22658186865e-07
2.75350650748e-07
6.07079925855e-07
1.05688502764e-06
9.87653760724e-07
2.77052866304e-07
1.78203659794e-07
1.28367796818e-07
7.07095774654e-09
1.0445835954e-31
6.69977864092e-07
4.92839655796e-07
3.48912141057e-07
2.44991301041e-07
1.65285174715e-07
1.07021418506e-07
6.77468793377e-08
6.22394681834e-08
6.26450073931e-08
1.08115015019e-07
2.2951101585e-07
4.45559918797e-07
6.83515385889e-07
2.73171697989e-07
1.88476304261e-07
1.65172675456e-07
1.44276789616e-07
1.276322817e-07
9.33708317859e-09
1.1422068605e-31
7.6761902266e-07
5.62935244541e-07
3.87601524925e-07
2.53843141955e-07
1.56020091969e-07
8.9666214876e-08
6.09404459485e-08
5.49186185587e-08
8.63589741927e-08
1.95120129694e-07
3.40164655992e-07
3.29951205671e-07
1.92471709143e-07
1.61124284998e-07
1.44676659971e-07
1.36540336268e-07
1.24948475278e-07
1.04217309748e-07
1.26206405226e-08
1.13598280142e-31
8.01040792891e-07
5.81342663146e-07
3.91438709648e-07
2.43790152118e-07
1.3964140923e-07
7.49480322312e-08
5.14414547592e-08
5.40541248161e-08
1.1253679922e-07
2.13056138433e-07
2.02221483283e-07
1.58634844906e-07
1.28981046434e-07
1.30497378136e-07
1.28366313287e-07
1.20620758737e-07
1.05605880847e-07
8.21788549501e-08
1.99939480992e-08
4.04627258743e-20
7.76896137754e-07
5.53745074372e-07
3.61545364788e-07
2.15837787433e-07
1.19167013878e-07
6.42301754754e-08
4.05597173875e-08
5.73018886899e-08
9.26778628267e-08
9.5012284547e-08
1.16725840948e-07
1.1264631609e-07
1.01674027322e-07
1.13166567707e-07
1.17607804203e-07
1.0714819319e-07
8.96098167063e-08
6.85761375839e-08
4.43983578655e-08
9.27982351444e-07
6.93110745736e-07
4.73218252869e-07
2.94068746355e-07
1.69032561281e-07
9.40976049855e-08
5.50895905495e-08
4.01775913047e-08
4.6960409194e-08
6.14879915631e-08
7.48224127051e-08
9.74935519128e-08
9.24719758171e-08
8.08900108043e-08
9.7508226284e-08
1.0752099696e-07
9.73327139965e-08
8.03521292577e-08
6.9435200978e-08
7.73102932268e-08
1.09806240004e-06
5.39734503335e-07
3.41553142915e-07
2.00458822381e-07
1.14465364861e-07
6.8138603759e-08
4.55347371387e-08
3.90460142357e-08
4.72910882074e-08
5.19645419631e-08
6.08593998943e-08
9.30577500316e-08
9.58782089853e-08
7.99462185586e-08
7.90913297554e-08
9.54079963317e-08
9.30582684298e-08
7.89698649022e-08
8.69549380221e-08
1.04170059937e-07
9.43447026459e-07
3.49326332059e-07
2.06137203658e-07
1.18720929407e-07
7.06042240721e-08
4.59396287509e-08
3.58596065856e-08
3.59266455515e-08
4.2490282856e-08
4.44992970361e-08
4.79044649391e-08
8.32629159719e-08
1.08415685874e-07
9.83462098485e-08
7.54352437196e-08
7.77756842305e-08
9.10894153438e-08
8.30054806834e-08
1.1084890705e-07
1.36709714529e-07
8.63219560687e-07
1.99579262093e-07
1.14255159528e-07
6.57959503043e-08
4.26966530151e-08
3.30940037562e-08
3.09829756979e-08
3.30640275461e-08
3.76524472828e-08
3.95331615619e-08
4.00182255436e-08
6.71199026757e-08
1.06323368127e-07
1.16622373237e-07
9.40562896399e-08
6.96309308798e-08
8.1892667331e-08
8.77652100605e-08
1.30263112374e-07
1.72878757646e-07
7.91906806315e-07
1.11975215156e-07
5.98434294108e-08
3.69609455033e-08
3.03187945131e-08
2.8426234872e-08
2.87252237374e-08
3.0569701924e-08
3.36109171676e-08
3.58376213251e-08
3.60815801184e-08
5.21344205566e-08
9.28730153568e-08
1.18615333318e-07
1.08971994401e-07
8.08502951801e-08
6.77637881096e-08
8.75309249537e-08
1.51069348091e-07
1.88876510135e-07
5.79646137544e-07
6.07341988385e-08
3.14904808307e-08
2.53754459914e-08
2.54786199602e-08
2.5898842151e-08
2.68351927143e-08
2.83619562627e-08
3.05161335869e-08
3.26648343845e-08
3.41066991408e-08
3.89746808772e-08
7.37612405104e-08
1.11847373827e-07
1.17645599344e-07
9.95734278473e-08
7.79397521488e-08
8.11332977798e-08
1.6906088551e-07
1.33231625338e-07
1.20845698986e-07
3.32109209725e-08
2.03591835332e-08
1.99798256095e-08
2.23880413409e-08
2.39076969713e-08
2.51731734411e-08
2.65703141039e-08
2.82323197857e-08
3.02011450056e-08
3.22438977251e-08
3.32479246292e-08
5.54122214857e-08
9.60482700816e-08
1.17933591843e-07
1.09379255627e-07
1.01761605488e-07
9.81169054057e-08
1.59139698125e-07
3.53692575833e-08
6.05116150205e-33
2.18430159677e-08
1.50061892025e-08
1.64410247133e-08
1.99960888056e-08
2.22228416683e-08
2.37286151542e-08
2.51036505336e-08
2.65298719079e-08
2.83880532923e-08
3.07742547315e-08
3.30657204676e-08
4.92619292084e-08
8.00568015353e-08
1.10708247871e-07
1.07891407638e-07
9.8733294804e-08
1.04717754015e-07
1.19811804323e-07
1.65628421002e-09
2.39938169181e-33
1.62212573151e-08
1.18976913048e-08
1.40886397495e-08
1.81790295015e-08
2.0827642059e-08
2.25248015161e-08
2.3954905517e-08
2.54241248088e-08
2.73875347795e-08
3.03701747884e-08
3.567869742e-08
5.01896228618e-08
7.4841899032e-08
1.02555435704e-07
1.03245565763e-07
8.67755521911e-08
8.96839284087e-08
8.35531689155e-08
6.79388864662e-10
1.26150357129e-33
1.3029345938e-08
1.03424949673e-08
1.28983526975e-08
1.70938355399e-08
1.998170337e-08
2.19418647739e-08
2.3657297641e-08
2.5515684931e-08
2.8088427204e-08
3.23429590575e-08
4.03454461771e-08
5.50642140214e-08
7.61293277076e-08
9.82554296218e-08
9.53951071201e-08
7.12294330051e-08
7.64734797844e-08
6.71149707569e-08
8.7621933483e-10
9.80860478318e-34
1.18637701327e-08
1.02983784732e-08
1.30327808414e-08
1.71703438925e-08
2.0419839343e-08
2.30426107072e-08
2.56379769903e-08
2.85287345533e-08
3.2409482878e-08
3.82707978066e-08
4.74441364651e-08
6.13769996651e-08
7.93452021641e-08
9.63607483044e-08
8.35243415773e-08
5.21044772311e-08
5.98890618685e-08
5.35662589971e-08
5.09563566721e-10
1.2331097002e-33
1.33370762001e-08
1.21301735657e-08
1.4754047692e-08
1.88845915079e-08
2.30941558888e-08
2.72217779714e-08
3.16734625354e-08
3.64826452053e-08
4.16435818399e-08
4.74205689712e-08
5.51760438643e-08
6.66021979174e-08
8.19485893092e-08
9.64190583917e-08
6.96958945916e-08
3.44693350471e-08
4.00528997177e-08
4.04024297991e-08
6.29246231982e-10
1.90307805846e-33
1.87603890351e-08
1.67567448266e-08
1.8884575946e-08
2.33814155759e-08
3.00172374174e-08
3.7430953971e-08
4.47711368441e-08
5.10083909016e-08
5.49360058714e-08
5.69080826441e-08
6.08250995393e-08
6.98096176281e-08
8.47752552857e-08
9.9569269342e-08
5.84111930577e-08
2.21218660056e-08
2.39779389503e-08
3.47887325409e-08
2.40560175668e-09
3.19705834972e-33
3.04361187588e-08
2.63424060993e-08
2.78217752794e-08
3.38598566452e-08
4.56896871127e-08
5.80925080216e-08
6.80117970108e-08
7.23983800873e-08
6.93264300393e-08
6.27731098213e-08
6.19688674994e-08
7.17451369129e-08
9.0577538279e-08
1.05807733355e-07
5.35173803948e-08
1.57291773041e-08
1.68711021873e-08
4.09483245753e-08
8.25064168776e-09
3.08112338587e-33
5.21742372457e-08
4.48750455211e-08
4.58550794259e-08
5.58427699706e-08
7.62758756571e-08
9.48335769002e-08
1.03497626985e-07
9.5902189635e-08
7.31266864721e-08
5.46375272292e-08
5.82986012148e-08
7.60571027244e-08
9.82060435678e-08
1.11577841396e-07
6.66421855845e-08
1.44525804071e-08
1.52400438383e-08
3.68209287092e-08
5.86488982597e-09
7.43964175298e-33
)
;

boundaryField
{
    emptyPatch
    {
        type            empty;
    }
    minY
    {
        type            calculated;
        value           nonuniform List<scalar> 0();
    }
    maxY
    {
        type            calculated;
        value           nonuniform List<scalar> 
40
(
4.4898297675e-06
4.44527107014e-06
4.77734479032e-06
4.93085103191e-06
4.50703730532e-06
3.62098292972e-06
2.62523665982e-06
1.67558773423e-06
1.19417950044e-06
1.05712610649e-06
1.03315664718e-06
9.37954919177e-07
6.33426328109e-07
2.56701523708e-07
9.47881297879e-08
6.54231666555e-08
6.7908220602e-08
8.07220509957e-08
8.38336840599e-08
6.82317505588e-08
5.21720158787e-08
4.48732947771e-08
4.58533768724e-08
5.5840703558e-08
7.62729008051e-08
9.48295030394e-08
1.03492600608e-07
9.58968081515e-08
7.3121864542e-08
5.463339115e-08
5.82937695426e-08
7.60502566451e-08
9.81961277929e-08
1.11566646972e-07
6.66374273823e-08
1.44515201012e-08
1.52387550785e-08
3.68179502829e-08
5.86446570632e-09
7.43914322142e-33
)
;
    }
    maxX
    {
        type            nutkWallFunction;
        blending        stepwise;
        value           uniform 0;
    }
    water_to_heater
    {
        type            nutkWallFunction;
        blending        stepwise;
        value           uniform 0;
    }
    procBoundary0to1
    {
        type            processor;
        value           nonuniform List<scalar> 
41
(
6.34623835664e-06
6.87159634822e-06
6.33618735248e-06
5.49623974917e-06
4.61273070506e-06
3.77656409951e-06
3.07028139481e-06
2.49029399374e-06
2.00209036235e-06
1.59442697691e-06
1.28233659563e-06
1.08871965399e-06
1.01674451845e-06
1.03627935468e-06
1.10055803926e-06
1.16187463962e-06
1.18580557199e-06
1.15515902051e-06
1.0599217165e-06
8.83262472767e-07
5.38625968746e-08
3.2921610518e-08
2.4567003284e-08
1.94193480552e-08
8.68239247526e-09
5.6563467263e-09
1.4736732652e-08
9.22982910634e-08
2.67980329781e-07
4.45006623616e-07
6.93642489709e-07
5.45324854324e-07
4.32898819859e-07
4.43321891061e-07
4.51046308816e-07
3.08765238055e-06
6.2855045656e-07
3.67014313249e-07
1.76878361282e-07
7.73240253222e-08
7.73240253222e-08
)
;
    }
}


// ************************************************************************* //
