/*--------------------------------*- C++ -*----------------------------------*\
| =========                 |                                                 |
| \\      /  F ield         | OpenFOAM: The Open Source CFD Toolbox           |
|  \\    /   O peration     | Version:  2312                                  |
|   \\  /    A nd           | Website:  www.openfoam.com                      |
|    \\/     M anipulation  |                                                 |
\*---------------------------------------------------------------------------*/
FoamFile
{
    version     2.0;
    format      ascii;
    arch        "LSB;label=32;scalar=64";
    class       volScalarField;
    location    "0.57/water";
    object      T.gas;
}
// * * * * * * * * * * * * * * * * * * * * * * * * * * * * * * * * * * * * * //

dimensions      [0 0 0 1 0 0 0];

internalField   nonuniform List<scalar> 
1496
(
546.668551069
376.293902485
325.97056857
310.200376666
304.996529735
303.004642188
302.062212806
301.530912274
301.181369189
300.928780731
300.739346512
300.596415082
300.488069837
300.405515302
300.340818489
300.287816206
300.242337984
300.20180918
300.16470383
300.130088318
509.490594139
365.855521626
322.243932311
308.38920185
303.869783251
302.279477296
301.594944275
301.225773348
300.98047049
300.798588024
300.657326857
300.54602587
300.457655833
300.386542527
300.327853855
300.277823257
300.233747465
300.193747576
300.156564492
300.122167843
448.795567781
357.930601458
322.328579812
308.901422259
303.934396438
302.132253777
301.404023494
301.047955931
300.840963689
300.697499275
300.587048461
300.497859966
300.424088231
300.361893077
300.308388949
300.26124105
300.21842155
300.178624272
300.142244375
300.110346586
411.530684022
348.585356642
321.578075077
309.57677209
304.42661146
302.336728481
301.419713874
300.986368271
300.764856414
300.630476932
300.533747014
300.456374356
300.391091249
300.334459726
300.284221509
300.238351896
300.196189538
300.158469359
300.125206336
300.096481984
393.793052318
339.453287637
318.710960646
309.234398697
304.66956992
302.54960764
301.499884407
300.98429862
300.728702732
300.586943159
300.492658757
300.419682588
300.358107986
300.303739698
300.254611917
300.210700455
300.172037491
300.138138757
300.107929661
300.081263931
387.358399432
333.946874678
315.747440086
308.244942363
304.474770915
302.525620358
301.494080576
300.966021101
300.698191878
300.550595127
300.454998679
300.382451236
300.321968883
300.269610787
300.224027729
300.184567647
300.150454971
300.11927748
300.092733484
300.071489807
384.708722675
331.130742843
313.43628621
306.958189603
303.879190818
302.246720498
301.359891482
300.894116979
300.648407172
300.50608786
300.412270773
300.342552523
300.285749915
300.237919001
300.197593328
300.163188881
300.132186433
300.106455188
300.084701071
300.068163278
382.575728964
329.486456794
311.904392597
305.7633357
303.152608517
301.844204607
301.148756883
300.779344686
300.574368513
300.450464236
300.36762791
300.304992794
300.254381466
300.21271963
300.177874434
300.147775193
300.123289772
300.101327372
300.083848667
300.07231074
379.844117263
328.092987913
310.858704753
304.853018273
302.508537081
301.453085383
300.929228517
300.652028762
300.494635858
300.396830424
300.327765011
300.274171713
300.230876042
300.195410814
300.166258036
300.142950252
300.122255706
300.102933218
300.089826839
300.080732379
376.837082885
326.956444791
310.03024876
304.138117403
301.968463826
301.116290337
300.736945207
300.543798693
300.43143968
300.355910054
300.299005667
300.253630269
300.217052766
300.187791766
300.164459665
300.144514805
300.126028169
300.110461633
300.099445431
300.091407291
374.580787042
327.603608983
310.043236444
303.665938504
301.512334469
300.872265019
300.616605635
300.482120371
300.396588448
300.334083413
300.284711541
300.244927435
300.213318809
300.188622616
300.168549085
300.150904914
300.134599393
300.12094265
300.110818853
300.102966334
378.494204998
331.207585237
310.780631911
303.195180644
301.354702636
300.821050235
300.596792836
300.47400211
300.393480921
300.333819004
300.286809734
300.249154146
300.21955408
300.19664424
300.177851553
300.161205821
300.146035633
300.132971695
300.12286228
300.114675827
399.239842371
339.378257369
311.8769288
303.619250897
301.599102412
300.934508707
300.65573807
300.513243429
300.421750556
300.355344485
300.304811684
300.265116861
300.233940807
300.210147158
300.191084868
300.174374594
300.159176277
300.145799288
300.135009556
300.126010813
429.485494474
346.966587512
314.979157184
304.732841552
302.076609638
301.123453604
300.753651336
300.583225382
300.478825615
300.399066522
300.33805508
300.291983942
300.256291992
300.22881987
300.207824308
300.190026008
300.173886918
300.159366942
300.147026458
300.136563333
446.721427134
350.3038094
314.954665948
304.670238988
302.111119041
301.209376623
300.833387052
300.650950453
300.544739737
300.458098317
300.385136708
300.328755755
300.286206678
300.253250871
300.22805525
300.207986851
300.190123886
300.173724463
300.159198397
300.146667036
452.240817353
345.887606512
312.000929691
303.894151671
301.877629468
301.166641248
300.854952507
300.704290661
300.607387738
300.519435406
300.440311874
300.374626995
300.323130323
300.283713908
300.252598331
300.228506244
300.208074632
300.189043738
300.171462047
300.156174806
453.775520211
337.909125676
309.304277558
303.090505997
301.604041633
301.088798521
300.867320391
300.74870839
300.661754761
300.576713629
300.495856268
300.425371829
300.366577247
300.319603297
300.282429039
300.252374763
300.228063405
300.205761899
300.184234874
300.165370796
459.72727114
335.62856202
308.022532339
302.65376854
301.457756799
301.054605343
300.880116339
300.780858199
300.702901296
300.625446352
300.547872614
300.475800219
300.412789762
300.359758653
300.316439475
300.280445688
300.250373374
300.223877119
300.197629294
300.174358554
480.877142551
338.85759691
307.943136403
302.503613883
301.405463069
301.051720577
300.896111945
300.804665562
300.731571824
300.661277902
300.590356941
300.521117871
300.456954913
300.400202042
300.352024786
300.310828382
300.274986556
300.242790585
300.210798737
300.182280355
504.21699275
348.257574065
310.117185826
302.863266256
301.491501588
301.105997055
300.947174888
300.826922121
300.752445283
300.685686926
300.620316791
300.555608777
300.493351398
300.436243218
300.384906587
300.339478741
300.298736478
300.260236687
300.221544042
300.18735134
517.777750523
357.741954267
313.263781809
303.480643348
301.616027678
301.154570519
300.978146819
300.854616039
300.767404369
300.701945422
300.640819019
300.579728551
300.519865556
300.463183383
300.410213309
300.361645818
300.316019911
300.270677843
300.225580382
300.1869108
525.918113868
364.613230658
315.974465603
304.004183554
301.696597131
301.178694838
300.991644592
300.869983237
300.779250147
300.710300232
300.650489333
300.592505009
300.534799913
300.478296323
300.423755412
300.371040671
300.318992947
300.266709971
300.219698833
300.1788916
530.456591009
369.392480153
318.188099942
304.439134756
301.722404177
301.174160886
300.987203376
300.867339922
300.778825768
300.710098053
300.650734917
300.593726614
300.536292493
300.478415793
300.4204977
300.362610612
300.304712303
300.251632006
300.204526705
300.164004089
533.238284748
372.914537523
320.253175174
305.015288437
301.765710604
301.159738122
300.974043564
300.856058099
300.767849911
300.69929332
300.639788541
300.582165099
300.52337664
300.462953289
300.401492305
300.339926423
300.281420101
300.228148049
300.182291198
300.143809857
534.954385549
376.189651511
322.719943667
306.084089073
301.99682267
301.181820638
300.967903877
300.848154181
300.75441169
300.68188874
300.62051192
300.561436446
300.500878369
300.438129333
300.374054614
300.310564364
300.251555594
300.199560029
300.155731476
300.12074089
536.733346604
379.981395216
325.995260624
307.903005254
302.644069508
301.341047834
301.001386955
300.859624182
300.751540479
300.666068732
300.598796813
300.537678944
300.475394074
300.410289491
300.343728016
300.279094521
300.220163584
300.169617816
300.129024147
300.098953329
538.892431211
384.916473049
330.413946711
310.69804112
303.977590531
301.850896647
301.182720497
300.945779773
300.778251603
300.663331548
300.581486177
300.51547246
300.450953484
300.383963232
300.31614284
300.250683887
300.191712853
300.142764443
300.105660563
300.079202172
541.716508309
389.439480987
334.689728233
313.711385789
305.670075608
302.656052826
301.533284727
301.097192903
300.865802739
300.683698891
300.573741048
300.497960289
300.430236915
300.362147
300.293478512
300.226919481
300.166901456
300.118162899
300.083372776
300.062681241
544.537057971
391.064849543
336.855147845
315.630739003
306.916791923
303.317149226
301.840269686
301.220753854
300.905127553
300.697277023
300.568828348
300.484029399
300.412653481
300.343193632
300.273326981
300.203504104
300.140558909
300.093694949
300.065347931
300.052035195
545.904370566
389.569166406
336.670473832
316.053519684
307.322566153
303.546265667
301.934443878
301.237778093
300.891808391
300.681787542
300.555955925
300.468806761
300.39488089
300.323791372
300.250599703
300.176333338
300.113817421
300.072994001
300.052381026
300.04774132
535.756038483
386.364421688
335.295597466
315.418733699
306.969410712
303.317591563
301.785029887
301.138373547
300.827408975
300.646110098
300.53491355
300.450162498
300.375079525
300.301975903
300.223561009
300.14690849
300.088639403
300.05693082
300.046922936
300.046887112
491.51417994
378.778110798
333.430384927
314.503054333
306.241611395
302.76658704
301.493154639
300.990529493
300.75540711
300.608750053
300.511651716
300.430283024
300.354527037
300.278067831
300.193948779
300.11730221
300.068027212
300.048219181
300.045677244
300.048023238
443.186608693
368.891832037
333.473283211
314.915828073
306.029939921
302.384269924
301.27502156
300.895727516
300.694469711
300.578030438
300.491102057
300.412296153
300.335385947
300.252445184
300.163955039
300.091057811
300.054153024
300.045669618
300.046466146
300.050188792
412.539999887
356.858025354
330.47257669
314.518608926
305.878818901
302.186397613
301.135896298
300.824524946
300.65613252
300.557882201
300.476271642
300.398312495
300.318039536
300.227540254
300.135778682
300.071697165
300.048932474
300.045573363
300.048141543
300.052677904
399.567930975
347.218175288
326.282362296
313.513055806
305.854391318
302.244590154
301.103720573
300.783113771
300.640472174
300.547809548
300.467560816
300.388189484
300.301511282
300.205441489
300.113284425
300.060764792
300.048282354
300.046877523
300.050023747
300.054876475
395.815174349
341.365510313
322.389440215
312.789544005
306.024237312
302.391184502
301.110852312
300.775779717
300.637168805
300.544392862
300.463100653
300.379925657
300.287555683
300.187070697
300.098358903
300.058789514
300.050299613
300.049243513
300.051993656
300.056666263
394.802044313
338.355115148
319.021613139
311.179876723
305.630434468
302.381836427
301.133895886
300.786484425
300.639004079
300.542834401
300.458843064
300.371040527
300.274304811
300.170694455
300.088294726
300.062339233
300.054785376
300.052952467
300.054411853
300.058376554
300.026666934
300.017488631
300.011481719
300.008136454
300.006161652
300.00476832
300.003707972
300.003141141
300.003254583
300.003811438
300.004851714
300.00537755
300.005524832
300.005669641
300.005861147
300.00574383
300.099254286
300.074259204
300.05461076
300.038879938
300.026052638
300.016725026
300.011250133
300.008558082
300.006683597
300.005075423
300.003876226
300.003568225
300.004084051
300.004984507
300.006194344
300.006436981
300.006535566
300.006628833
300.006751063
300.006556576
300.093160262
300.07029784
300.051763058
300.036240641
300.023982515
300.015393763
300.011541048
300.009424542
300.007427776
300.005437353
300.004177882
300.004228331
300.00513296
300.006411616
300.007309965
300.007465464
300.007474627
300.007489246
300.007516742
300.007223219
300.084195707
300.062443153
300.044707231
300.031072746
300.020788851
300.015409597
300.013059129
300.011134168
300.008800457
300.006150814
300.004628179
300.004978411
300.006111384
300.007610641
300.008226295
300.008348527
300.008269273
300.008185688
300.008137283
300.007843259
300.071376874
300.0516484
300.036097131
300.026404916
300.020704181
300.017570752
300.015851911
300.013853803
300.010978108
300.007627068
300.005449131
300.005525642
300.006690905
300.008163367
300.008837584
300.008971107
300.008896272
300.008741912
300.008499356
300.0082821
300.060316019
300.043293757
300.032899938
300.026965032
300.023420262
300.021346082
300.019577642
300.017147813
300.013870195
300.010283462
300.007490088
300.006409365
300.006705473
300.007747405
300.008999231
300.009242158
300.009279305
300.009096809
300.008664759
300.007459426
300.054286182
300.042510732
300.035002474
300.030656468
300.027837382
300.026243604
300.024177571
300.021187042
300.017558803
300.013772735
300.010558744
300.008566445
300.007749795
300.007701682
300.008593907
300.00926389
300.009423161
300.009305709
300.008741485
300.006898216
300.056201693
300.047034876
300.040583975
300.03654433
300.033706774
300.032193536
300.029634852
300.026056762
300.022004174
300.017960131
300.014389775
300.011727046
300.010054679
300.009199294
300.008852041
300.009051077
300.009428949
300.009377538
300.008793034
300.006678508
300.063012147
300.054989034
300.048405555
300.043889567
300.040972314
300.038960385
300.035744757
300.031518811
300.026957495
300.022549187
300.0186072
300.015402342
300.013035458
300.011463274
300.010596619
300.009746364
300.00951867
300.009090058
300.008877822
300.006659474
300.072719998
300.064944536
300.057485509
300.052330941
300.049158996
300.046295414
300.04224912
300.03727468
300.032088698
300.027194283
300.022824958
300.019129146
300.016197228
300.014088445
300.012932769
300.010857493
300.010308162
300.009000064
300.008923828
300.006635154
300.083790056
300.075782386
300.067129853
300.061492378
300.057679282
300.053794131
300.048819258
300.043040117
300.037171123
300.031731293
300.026903002
300.022716453
300.019185003
300.016565817
300.014557672
300.011788571
300.011056181
300.009045659
300.008931362
300.006522986
300.095217134
300.086630247
300.077000158
300.07070631
300.065922727
300.060995988
300.055118201
300.048584399
300.042067466
300.03606359
300.030692819
300.025914395
300.021846692
300.019038103
300.01494716
300.012655263
300.011594337
300.008860905
300.008753177
300.006184612
300.106382372
300.097016177
300.086794201
300.079280618
300.073360338
300.067553101
300.060871659
300.053686232
300.04658764
300.039983291
300.033972995
300.028560956
300.024152298
300.02026336
300.015274976
300.013296875
300.011545591
300.008482692
300.00830735
300.005593982
300.116827077
300.106540738
300.095773919
300.086985166
300.079746845
300.073113191
300.06569772
300.057971305
300.050343677
300.04311238
300.036432604
300.030603272
300.026595059
300.019338914
300.015754514
300.013628424
300.010492497
300.008427053
300.007707556
300.005315159
300.126110655
300.114878565
300.103622413
300.093732952
300.085026606
300.077164999
300.069065973
300.060905088
300.052838372
300.045080408
300.037958994
300.032318317
300.025715097
300.019269778
300.01601625
300.013745877
300.009446381
300.008445169
300.006688194
300.004648366
300.134575072
300.122149938
300.110050873
300.099006384
300.088382281
300.079316625
300.070635568
300.062142903
300.053795272
300.045770487
300.038569951
300.032767639
300.024382298
300.019358274
300.016195712
300.013771449
300.008880223
300.0080853
300.005801313
300.004253715
300.142029111
300.128077954
300.114706579
300.102236293
300.089949015
300.079665833
300.0704714
300.0617444
300.053321395
300.045288471
300.037976061
300.030965048
300.023989546
300.019456273
300.016350826
300.013606176
300.009021536
300.007869166
300.005305712
300.004253549
300.148565452
300.132621902
300.117557325
300.103433593
300.08976001
300.078450724
300.068826983
300.060000213
300.051672144
300.043694264
300.036062438
300.029095407
300.023550416
300.019569456
300.016193952
300.012629581
300.010323573
300.007761562
300.005279126
300.004944376
300.154299952
300.135875946
300.118713914
300.10276944
300.088021069
300.076025905
300.066023137
300.05721177
300.048910439
300.040637121
300.033005393
300.026804381
300.02225417
300.018081602
300.01382855
300.011894464
300.010017961
300.007335719
300.005729714
300.005368523
300.158340184
300.137114992
300.117756488
300.10020341
300.084900389
300.072602789
300.062372246
300.0535187
300.044688681
300.03593865
300.028662347
300.023061703
300.017767621
300.013747157
300.011675067
300.009751458
300.008151354
300.006922802
300.006492538
300.006275316
300.159160113
300.135097836
300.114063279
300.095816936
300.080528669
300.068422963
300.058554553
300.049384663
300.039700801
300.03079444
300.023900078
300.017388168
300.014565776
300.012411047
300.010023532
300.008690376
300.007743372
300.007019945
300.006971512
300.00682376
300.155188405
300.129072387
300.10746791
300.089740255
300.075483567
300.064470334
300.05543652
300.046185563
300.03568572
300.027178901
300.020571245
300.017850458
300.015542688
300.012613446
300.010349209
300.008976158
300.008095398
300.007470199
300.007241052
300.007070568
300.145697697
300.119553559
300.098990861
300.083022639
300.070781802
300.061343511
300.05332555
300.043913628
300.033230105
300.027218891
300.02361311
300.020180183
300.016819705
300.013885787
300.011324059
300.009711268
300.008702953
300.007939331
300.007301153
300.006998977
300.131752212
300.107298146
300.089143281
300.075788648
300.06593084
300.058350191
300.051549829
300.042417792
300.035082895
300.031393421
300.026771448
300.022074711
300.018073023
300.014623807
300.011887974
300.010143445
300.008974337
300.008031822
300.007396037
300.007036642
300.11426391
300.093218656
300.078330608
300.067848201
300.060225028
300.054341724
300.0489493
300.042248443
300.039595956
300.037535302
300.031823023
300.025247781
300.019942744
300.015937549
300.012626362
300.010439555
300.009057007
300.008114064
300.007649987
300.007216282
300.095707479
300.078632254
300.067431714
300.059623488
300.054333856
300.050414091
300.047251162
300.044464063
300.045366658
300.046512742
300.040562758
300.031513437
300.023223763
300.017646006
300.013710174
300.010873382
300.009208874
300.008342934
300.007962371
300.007485568
300.078220597
300.06562664
300.057899181
300.053416755
300.050716464
300.049039986
300.048199282
300.04814632
300.050884542
300.054726078
300.050895952
300.041194071
300.029279276
300.020265907
300.014868938
300.011382661
300.009454851
300.008625262
300.008298827
300.00779989
300.063471953
300.055767423
300.052321218
300.050776375
300.050014651
300.050043177
300.051040011
300.052784435
300.056237462
300.060766413
300.059838463
300.051478082
300.038803532
300.024997397
300.0163774
300.01216613
300.00995393
300.00902448
300.008693647
300.008156112
300.053644764
300.051142399
300.050734029
300.050972746
300.051614482
300.052960697
300.055385948
300.058240446
300.061677506
300.065469925
300.066649595
300.060624253
300.048888792
300.033717756
300.019626803
300.013144016
300.010484478
300.009550939
300.009232522
300.008689185
300.049565969
300.050218343
300.051649467
300.05325766
300.055006933
300.057420054
300.060854094
300.064072755
300.067099427
300.069913731
300.07146326
300.067565123
300.057773156
300.042724708
300.026100396
300.015419101
300.011405892
300.010223403
300.00999864
300.009565423
300.04884586
300.051428431
300.054281662
300.05704564
300.059731972
300.063120371
300.067049957
300.070136779
300.072558332
300.07446328
300.07533568
300.072086328
300.063698664
300.049939059
300.032205431
300.018694227
300.012846863
300.011239775
300.011080476
300.010815182
300.050001353
300.053986487
300.058004973
300.061771602
300.065342518
300.06955565
300.073536021
300.076193311
300.077961754
300.078923746
300.078678954
300.075099456
300.066893058
300.053856226
300.035912559
300.02098275
300.014538088
300.012714039
300.012618451
300.012842063
300.052294393
300.057307143
300.06225267
300.066887154
300.07123645
300.076095895
300.079739136
300.08181855
300.08283988
300.082886476
300.081394784
300.076845008
300.068071587
300.054585632
300.036030391
300.02152005
300.015778069
300.014443049
300.014842892
300.017414502
300.055146434
300.060880469
300.066564919
300.071913123
300.076908465
300.082141256
300.085285935
300.086778709
300.087061003
300.086079193
300.083173321
300.077473319
300.067834194
300.053277169
300.033914516
300.021042418
300.017045686
300.016802668
300.02080094
300.036826899
300.058071705
300.064256125
300.070477915
300.076402942
300.081912971
300.087340452
300.090096234
300.091091047
300.09056653
300.088306915
300.084042831
300.077313485
300.066753973
300.051200016
300.031443512
300.021723379
300.020519746
300.026634531
300.062899786
300.165320471
300.060586139
300.067011703
300.073587058
300.080031991
300.086243123
300.09185504
300.094297056
300.094671912
300.093137363
300.089627695
300.084144102
300.076276375
300.064944552
300.048672617
300.031505195
300.037110205
300.071908082
300.150538602
300.47638487
301.038952659
300.062536939
300.069241636
300.076287137
300.083425379
300.090444886
300.095899359
300.09794712
300.097497271
300.09465939
300.089621357
300.082720084
300.073656317
300.062156962
300.051230876
300.104605405
300.347369366
300.915733429
301.992459511
303.766052239
306.100621196
300.064177466
300.071286842
300.078995437
300.086865792
300.094592958
300.099953901
300.101445281
300.099601466
300.094385768
300.086363757
300.077217271
300.067183462
300.056698623
300.054851109
300.199057338
300.938217809
306.471343894
312.665050607
317.003028984
316.491003852
)
;

boundaryField
{
    emptyPatch
    {
        type            empty;
    }
    minY
    {
        type            fixedValue;
        value           nonuniform List<scalar> 0();
    }
    maxY
    {
        type            inletOutlet;
        inletValue      uniform 373;
        value           nonuniform List<scalar> 
40
(
394.802041678
338.355114117
319.021612764
311.179876605
305.630434415
302.381836395
301.133895863
300.786484409
300.639004056
300.542834358
300.458842983
300.371040397
300.274304638
300.170694287
300.088294669
300.062339238
300.054785382
300.052952472
300.054411855
300.058376554
300.064177466
300.071286842
300.078995438
300.086865795
300.094592962
300.099953905
300.101445285
300.099601468
300.094385763
300.086363744
300.077217254
300.067183441
300.056698597
300.05485107
300.199057141
300.938217097
306.471345387
312.66505659
317.003031823
316.491007103
)
;
    }
    maxX
    {
        type            fixedValue;
        value           uniform 300;
    }
    water_to_heater
    {
        type            copiedFixedValue;
        sourceFieldName T.liquid;
        value           nonuniform List<scalar> 
59
(
792.597330418
792.559666985
792.505968352
792.41339306
792.401703121
792.410442651
792.41168826
792.41884607
792.419100585
792.432498552
792.433224686
792.462661803
792.464835867
792.504025928
792.506754987
792.54465924
792.547268604
792.564468719
792.561732389
792.538621353
792.550190941
792.557844688
792.574051547
792.611359279
792.617836106
792.674497468
792.681119656
792.787201357
792.8371527
792.901844569
792.936192646
792.946537765
792.952179753
792.956964109
792.96230676
792.970740066
792.973267678
792.977055619
792.976745993
792.965883947
792.967526177
792.938462927
792.938762694
792.902428767
792.903495674
792.869340333
792.869150894
792.810890957
792.79076565
792.711097647
792.629322998
792.506893061
792.499847055
792.411850124
792.411167205
792.301462935
792.300783551
792.218173923
792.218143995
)
;
    }
    procBoundary0to1
    {
        type            processor;
        value           nonuniform List<scalar> 
41
(
548.136173177
382.836331037
330.952782817
313.493090925
306.990893011
304.178709249
302.763495285
301.951856471
301.433729421
301.076096101
300.820037865
300.637836642
300.50731136
300.413435827
300.343812681
300.289151411
300.243491551
300.203346601
300.166802501
300.13276691
300.02638989
300.017627629
300.011536042
300.008000141
300.005694335
300.004427303
300.003483786
300.002852222
300.002721179
300.003016626
300.003549626
300.004332467
300.00454154
300.004705038
300.004931549
300.00485114
300.101811684
300.075793488
300.055137116
300.039129386
300.039129386
)
;
    }
}


// ************************************************************************* //
