/*--------------------------------*- C++ -*----------------------------------*\
| =========                 |                                                 |
| \\      /  F ield         | OpenFOAM: The Open Source CFD Toolbox           |
|  \\    /   O peration     | Version:  2312                                  |
|   \\  /    A nd           | Website:  www.openfoam.com                      |
|    \\/     M anipulation  |                                                 |
\*---------------------------------------------------------------------------*/
FoamFile
{
    version     2.0;
    format      ascii;
    arch        "LSB;label=32;scalar=64";
    class       surfaceScalarField;
    location    "0.92/water";
    object      phi.gas;
}
// * * * * * * * * * * * * * * * * * * * * * * * * * * * * * * * * * * * * * //

dimensions      [0 3 -1 0 0 0 0];

oriented        oriented;

internalField   nonuniform List<scalar> 
2928
(
3.46852272595e-07
3.11715499419e-07
2.39846701487e-07
2.08832431621e-07
3.15721316091e-07
1.92542072857e-07
2.9245704868e-07
1.82066924295e-07
3.04906288399e-07
1.84233241491e-07
2.95560130786e-07
1.88169394399e-07
2.51877298488e-07
1.94379878333e-07
2.10767367424e-07
2.10089431888e-07
2.28264305972e-07
3.39052890434e-07
1.97115186632e-07
4.21057267207e-07
1.78460418773e-07
4.46801534589e-07
1.59827447083e-07
4.70575478104e-07
1.42397487458e-07
4.95641472131e-07
1.25813447129e-07
5.2199214435e-07
1.09896334363e-07
5.49688041289e-07
9.4461803839e-08
5.78762457366e-07
7.93199755638e-08
6.0923811389e-07
6.43231040267e-08
6.41124475491e-07
4.94583091766e-08
6.74410853528e-07
7.09071387017e-07
3.49045802332e-08
1.38938194262e-07
3.30315772332e-07
2.43749760625e-07
2.62395715812e-07
2.40584699565e-07
2.41081968816e-07
2.74533132306e-07
2.34323855969e-07
2.75639443478e-07
2.34920402914e-07
2.79384127699e-07
2.40769909889e-07
2.67155468493e-07
2.4958489037e-07
2.39712297017e-07
2.62636612836e-07
1.27005634196e-07
3.14160097908e-07
5.74768338464e-08
3.62465357595e-07
4.85882845892e-08
3.77172901424e-07
4.22856146032e-08
3.93849442891e-07
3.66771179032e-08
4.11516269538e-07
3.15240607909e-08
4.30167698793e-07
2.67034884359e-08
4.49854512803e-07
2.21771235396e-08
4.7064815737e-07
1.79348252027e-08
4.92623157991e-07
1.39620200705e-08
5.15853114526e-07
1.02409139284e-08
5.40412381507e-07
5.66379749144e-07
6.7800612519e-09
1.54557487506e-07
4.04967934286e-07
2.01946226953e-07
3.19383133851e-07
2.14081652699e-07
2.86258276039e-07
2.3132979321e-07
2.74480901194e-07
2.38796208105e-07
2.72961626556e-07
2.41566457996e-07
2.76778434931e-07
2.39199413999e-07
2.84266064219e-07
2.25255594235e-07
2.95688583045e-07
1.72769801921e-07
3.2705134379e-07
4.85841494532e-08
3.6803156119e-07
3.47545111826e-08
3.91401704207e-07
3.19987254567e-08
4.09581376672e-07
2.9086634694e-08
4.28729713329e-07
2.61761443559e-08
4.4887035413e-07
2.31848480408e-08
4.70013832315e-07
2.00478201297e-08
4.92216548866e-07
1.67591435502e-08
5.15557091785e-07
1.33472720682e-08
5.4012228375e-07
9.8716558093e-09
5.66001481026e-07
5.93287627752e-07
6.46935051147e-09
2.16707505818e-07
4.39323428184e-07
2.3319225221e-07
3.67491076469e-07
2.36718898377e-07
3.21398338932e-07
2.39258083073e-07
3.03576181792e-07
2.35531203826e-07
2.98665835105e-07
2.29466095669e-07
3.00525577482e-07
2.21684166444e-07
3.0644851416e-07
2.09638298376e-07
3.15964592173e-07
1.84610689892e-07
3.36141102688e-07
8.8381638576e-08
3.64535925366e-07
2.09123856861e-08
3.89006069892e-07
1.96963031668e-08
4.07757161394e-07
1.84252602986e-08
4.27030805627e-07
1.69021647564e-08
4.47291510288e-07
1.52370056798e-08
4.68538570492e-07
1.3390611953e-08
4.90805319305e-07
1.13206443547e-08
5.1415684149e-07
9.01791184223e-09
5.38678210026e-07
6.52622379627e-09
5.64466542031e-07
5.91627096751e-07
4.00214237228e-09
2.56002523404e-07
4.57316512072e-07
2.7013692938e-07
4.01954585184e-07
2.64539359779e-07
3.53277797446e-07
2.60984162509e-07
3.27653854914e-07
2.51142350163e-07
3.1904942392e-07
2.37860240356e-07
3.18589477401e-07
2.22378863555e-07
3.22825359888e-07
2.05813335946e-07
3.30594023441e-07
1.84401082292e-07
3.45022871962e-07
1.37233986689e-07
3.66297598463e-07
2.11501033534e-08
3.88305268866e-07
1.32694720695e-08
4.08533546631e-07
1.25000210275e-08
4.28006252914e-07
1.13512587566e-08
4.48550886843e-07
1.00591904329e-08
4.70098869793e-07
8.65581042459e-09
4.92666239382e-07
7.10252310449e-09
5.16301808333e-07
5.36669213036e-09
5.41078322696e-07
3.46693026322e-09
5.6708609548e-07
5.94427811782e-07
1.5493389016e-09
2.81878124127e-07
4.62095436579e-07
2.95567839439e-07
4.22996552422e-07
2.85708703634e-07
3.81275221153e-07
2.7977047255e-07
3.50051370061e-07
2.70812972917e-07
3.36969265648e-07
2.56832075519e-07
3.33839069549e-07
2.37566164784e-07
3.3616099743e-07
2.15307012277e-07
3.42184280909e-07
1.91407280867e-07
3.5305867481e-07
1.5993235571e-07
3.69479912339e-07
6.23340722371e-08
3.88934015088e-07
1.13504454057e-08
4.08735515557e-07
1.01491317905e-08
4.28604974184e-07
8.81698277899e-09
4.49309832854e-07
7.34380072121e-09
4.71038926383e-07
5.83114572321e-09
4.93793163996e-07
4.26882921296e-09
5.17608951416e-07
2.6257561812e-09
5.4254840014e-07
9.0969050024e-10
5.6869399529e-07
5.96143829807e-07
-7.38204779736e-10
2.87341492286e-07
4.61694360659e-07
3.02617196077e-07
4.3331043394e-07
2.95560987313e-07
4.00969702234e-07
2.88234010861e-07
3.72203132133e-07
2.82169632635e-07
3.54266999234e-07
2.72739200431e-07
3.48292357586e-07
2.56090133331e-07
3.4845630873e-07
2.32657971623e-07
3.52590916087e-07
2.06028843044e-07
3.60893880807e-07
1.76045088944e-07
3.74030381959e-07
1.19866455533e-07
3.91057878629e-07
1.52927050147e-08
4.08683117238e-07
1.02486401967e-08
4.29755881619e-07
8.32082625219e-09
4.50591528598e-07
6.27868060913e-09
4.72431452938e-07
4.27799533658e-09
4.952948527e-07
2.34153353853e-09
5.19210796325e-07
4.50252493801e-10
5.44234455313e-07
-1.38614261531e-09
5.7044371933e-07
5.97934664799e-07
-3.03798828177e-09
2.7659870958e-07
4.6225413298e-07
2.96474117344e-07
4.39538655433e-07
2.94978317744e-07
4.15293731728e-07
2.88764325654e-07
3.92114260484e-07
2.83891496234e-07
3.728118749e-07
2.78777679217e-07
3.6319760118e-07
2.67912763115e-07
3.61004266272e-07
2.48215609744e-07
3.63125131841e-07
2.21704603963e-07
3.69130394157e-07
1.92057705889e-07
3.79643995004e-07
1.53266564923e-07
3.94374610564e-07
4.7294436739e-08
4.11985965117e-07
1.16107859408e-08
4.31874957989e-07
8.49951291959e-09
4.52557764272e-07
5.53075142931e-09
4.74389249574e-07
2.76039682451e-09
4.97238465824e-07
2.27331857085e-10
5.21127167017e-07
-2.08351510896e-09
5.46110639234e-07
-4.16583763147e-09
5.72267374232e-07
5.99689899888e-07
-5.93930094969e-09
2.78559780521e-07
4.62655007075e-07
3.08024013983e-07
4.44333615788e-07
3.00317624639e-07
4.28345950566e-07
2.91716557624e-07
4.11311632439e-07
2.82843193982e-07
3.9402585284e-07
2.7809240404e-07
3.80204080388e-07
2.71686895083e-07
3.74901400235e-07
2.57113801836e-07
3.74712826123e-07
2.33194620865e-07
3.78376918282e-07
2.04361071599e-07
3.86306994931e-07
1.70296645241e-07
3.9874663072e-07
1.01482515167e-07
4.15143123221e-07
1.37624893397e-08
4.3393728807e-07
7.09897611376e-09
4.55470913284e-07
2.98800881207e-09
4.77086224502e-07
-6.10337708026e-10
4.99694072995e-07
-3.69246225121e-09
5.23353609301e-07
-6.31026319314e-09
5.48123153651e-07
-8.51000794102e-09
5.74079886147e-07
6.01318381694e-07
-1.02525001911e-08
2.84024615441e-07
4.65583230508e-07
3.16308016289e-07
4.50772359155e-07
3.01262985036e-07
4.41542341646e-07
2.87824972187e-07
4.30292800399e-07
2.75627636677e-07
4.1551187505e-07
2.69678819824e-07
3.9932739619e-07
2.65754541777e-07
3.89832558185e-07
2.56087297422e-07
3.87203360837e-07
2.35812431959e-07
3.88399200545e-07
2.07895742022e-07
3.93505200944e-07
1.76375956584e-07
4.03384430513e-07
1.31062888912e-07
4.17717429468e-07
2.04893232586e-08
4.37501586532e-07
-2.49931502841e-10
4.59220758745e-07
-4.83693690238e-09
4.80123891536e-07
-8.53819776227e-09
5.02207952415e-07
-1.14803053553e-08
5.25435306941e-07
-1.37786607622e-08
5.49837520585e-07
-1.55209181747e-08
5.75485991122e-07
6.02468733215e-07
-1.67226881023e-08
2.87076202418e-07
4.73765436457e-07
3.1002330681e-07
4.60636233779e-07
2.88512985802e-07
4.55068247669e-07
2.71275247965e-07
4.47968199833e-07
2.58851120414e-07
4.3536651249e-07
2.52346289187e-07
4.18633099507e-07
2.49581340017e-07
4.04577989963e-07
2.43671075009e-07
3.98938528236e-07
2.27347747126e-07
3.97551678048e-07
2.01135952491e-07
3.99827279348e-07
1.71289364395e-07
4.06905136867e-07
1.35046124142e-07
4.19008383706e-07
5.18094512801e-08
4.36408226775e-07
-1.78109601824e-08
4.62080681742e-07
-2.13877052911e-08
4.8192951302e-07
-2.33892272972e-08
5.03554701906e-07
-2.46998645687e-08
5.26336619005e-07
-2.54456139193e-08
5.50396152388e-07
-2.57233792329e-08
5.75788946899e-07
6.02587168044e-07
-2.55786061497e-08
2.81723474468e-07
4.88819739852e-07
2.82833667541e-07
4.73297733976e-07
2.59772286599e-07
4.66797808111e-07
2.43760594528e-07
4.61315341479e-07
2.35316049308e-07
4.50409055337e-07
2.31516513519e-07
4.34254507841e-07
2.29464814861e-07
4.17755582935e-07
2.25417597285e-07
4.07694330077e-07
2.12957911729e-07
4.03800914941e-07
1.89173598675e-07
4.03506792689e-07
1.59443490124e-07
4.0795627419e-07
1.27933379898e-07
4.17964509723e-07
8.01667393844e-08
4.33169616329e-07
-3.75508180318e-08
4.56145892533e-07
-4.68696012398e-08
4.81240065527e-07
-4.47939340927e-08
5.02046029048e-07
-4.26171378557e-08
5.24767791427e-07
-4.04039958114e-08
5.48838629056e-07
-3.81637413659e-08
5.74288869248e-07
6.011771903e-07
-3.58914548802e-08
2.58493863487e-07
5.06742226329e-07
2.41508793085e-07
4.84971881146e-07
2.25389580008e-07
4.73652183294e-07
2.16825314777e-07
4.67352921553e-07
2.15348023775e-07
4.5809074767e-07
2.16368297669e-07
4.44015697634e-07
2.15723367711e-07
4.28072878903e-07
2.13167412461e-07
4.14438865538e-07
2.04614784065e-07
4.07376551544e-07
1.8423178081e-07
4.04874325057e-07
1.5471420225e-07
4.07028040841e-07
1.24300120668e-07
4.15131294305e-07
8.98851866182e-08
4.28779743484e-07
4.93011941277e-09
4.48158204867e-07
-7.45088551146e-08
4.74957219051e-07
-6.74097724143e-08
4.96871578882e-07
-6.0835243904e-08
5.20276691897e-07
-5.50820423401e-08
5.4492825044e-07
-4.99728507798e-08
5.70896646525e-07
5.98246749208e-07
-4.53762411491e-08
2.54159508332e-07
5.17911122454e-07
2.4422991409e-07
4.93192622553e-07
2.25547926528e-07
4.79558606552e-07
2.16926628937e-07
4.71764552257e-07
2.16369235068e-07
4.63277638119e-07
2.19644927057e-07
4.51187621816e-07
2.21610832373e-07
4.36869636428e-07
2.20068966848e-07
4.2277350887e-07
2.13457286997e-07
4.12444126924e-07
1.96537780825e-07
4.07696901087e-07
1.67827196758e-07
4.07458231706e-07
1.34956853663e-07
4.13310633352e-07
1.04893015852e-07
4.25377994372e-07
6.06903182802e-08
4.428450975e-07
-7.0433570241e-08
4.65715475342e-07
-8.22402362092e-08
4.90645841482e-07
-7.26206351499e-08
5.14177257601e-07
-6.44192138628e-08
5.39754573974e-07
-5.7353746582e-08
5.66509420586e-07
5.94536327949e-07
-5.11909372184e-08
2.64886501739e-07
5.22798360142e-07
2.61530714625e-07
4.98178990851e-07
2.39936015461e-07
4.8521230074e-07
2.29063343813e-07
4.77105402364e-07
2.28107793704e-07
4.69044691266e-07
2.33584029384e-07
4.58365551583e-07
2.38787683828e-07
4.45789146148e-07
2.40024447032e-07
4.32859229264e-07
2.35146738643e-07
4.21524133295e-07
2.20562158199e-07
4.14598568578e-07
1.93736547029e-07
4.11930321516e-07
1.60000534923e-07
4.14925946289e-07
1.28755108997e-07
4.24738771186e-07
9.67953373654e-08
4.40743995099e-07
2.0209381421e-08
4.61850650416e-07
-8.19218630118e-08
4.84334673208e-07
-7.32949851563e-08
5.08818102629e-07
-6.49463268334e-08
5.35050551527e-07
-5.77334698861e-08
5.62505672759e-07
5.91147732684e-07
-5.14417098004e-08
2.64861990094e-07
5.23283379788e-07
2.65816234027e-07
4.99575337365e-07
2.4532371122e-07
4.8853083801e-07
2.36421588167e-07
4.81531893037e-07
2.37762394571e-07
4.74462532808e-07
2.46734416351e-07
4.65176981908e-07
2.56466488645e-07
4.5434016227e-07
2.61544550794e-07
4.43156800795e-07
2.5868991003e-07
4.33061259587e-07
2.4487910649e-07
4.25343187489e-07
2.1958996201e-07
4.20523445413e-07
1.87617744668e-07
4.20599616638e-07
1.5619073118e-07
4.27653471783e-07
1.30192010728e-07
4.41914909411e-07
8.90930160836e-08
4.61579763007e-07
-4.06762346387e-08
4.83420539119e-07
-6.28396685797e-08
5.05447148764e-07
-5.65362239888e-08
5.32025855648e-07
-5.09882490322e-08
5.59932831855e-07
5.88974008872e-07
-4.60571889264e-08
2.53882287361e-07
5.21918046812e-07
2.58235586409e-07
4.98964714319e-07
2.41988919686e-07
4.89562148203e-07
2.37758325354e-07
4.84115273619e-07
2.42869455607e-07
4.78508022952e-07
2.5576251434e-07
4.70924351599e-07
2.70247215759e-07
4.62233056169e-07
2.8028759483e-07
4.53597143453e-07
2.79985805099e-07
4.45987639846e-07
2.65417282665e-07
4.39261580548e-07
2.39461727449e-07
4.3292705177e-07
2.09701700773e-07
4.30461795381e-07
1.81240031938e-07
4.34679112693e-07
1.5855773715e-07
4.46698201652e-07
1.30669481667e-07
4.6516365725e-07
4.51935088465e-08
4.87272476601e-07
-4.30489966721e-08
5.05177296124e-07
-4.12681795708e-08
5.3135339081e-07
-3.88610795402e-08
5.59407977286e-07
5.88562468765e-07
-3.65178529185e-08
2.33309046926e-07
5.28319154537e-07
2.40678094599e-07
5.01054816248e-07
2.28572986234e-07
4.90600815647e-07
2.30574257444e-07
4.85663740872e-07
2.41787834735e-07
4.81600310514e-07
2.60696379622e-07
4.76220958582e-07
2.81013270995e-07
4.70295611986e-07
2.95649370357e-07
4.65033874947e-07
2.96439854147e-07
4.60868512205e-07
2.80468854879e-07
4.55986510665e-07
2.52634978653e-07
4.49328330817e-07
2.24030595127e-07
4.44619103508e-07
1.99253219185e-07
4.46079692596e-07
1.78641149596e-07
4.5539318031e-07
1.56984863315e-07
4.72137194131e-07
1.06007434289e-07
4.93321973407e-07
-1.27645204708e-08
5.08934450981e-07
-2.27639162048e-08
5.33481963374e-07
-2.45146938617e-08
5.61279129279e-07
5.90148368465e-07
-2.55294794734e-08
2.23426448743e-07
5.3912747295e-07
2.35895534803e-07
5.06235059205e-07
2.20094309033e-07
4.9425280941e-07
2.24908336442e-07
4.88706315503e-07
2.40804509343e-07
4.85712712472e-07
2.65532999956e-07
4.82659972512e-07
2.912554764e-07
4.79914174224e-07
3.06205447315e-07
4.78662733105e-07
3.05270577569e-07
4.77666757487e-07
2.87783302822e-07
4.74882732053e-07
2.58292939934e-07
4.68978345317e-07
2.29744513561e-07
4.62357970878e-07
2.07630750012e-07
4.61150214562e-07
1.88837426565e-07
4.67413890249e-07
1.70186220168e-07
4.81678614981e-07
1.32676776211e-07
5.01406166978e-07
2.51858797655e-08
5.16504274243e-07
-6.99569155686e-09
5.38182801239e-07
-1.2712419938e-08
5.65281928266e-07
5.93429145508e-07
-1.68875857221e-08
2.19507372874e-07
5.54491208476e-07
2.37170345406e-07
5.1476999594e-07
2.19087701634e-07
5.0052812667e-07
2.24787773517e-07
4.94122407879e-07
2.43464118511e-07
4.91889930605e-07
2.71869777682e-07
4.90924540495e-07
2.95512729306e-07
4.91235457168e-07
3.06469242866e-07
4.93688204651e-07
3.04828644464e-07
4.95609140167e-07
2.87757631646e-07
4.95395478926e-07
2.56191317183e-07
4.90856865141e-07
2.26546950239e-07
4.82184965901e-07
2.05842781592e-07
4.78427472554e-07
1.87933178464e-07
4.81348810196e-07
1.69320330056e-07
4.9227812324e-07
1.37207974768e-07
5.09785761644e-07
4.95976912845e-08
5.29423419924e-07
-6.54939043005e-10
5.44322265877e-07
-8.53814919577e-09
5.70330474743e-07
5.97451330765e-07
-1.44585863053e-08
2.19591771164e-07
5.69767273996e-07
2.42539197856e-07
5.24372318431e-07
2.25887347718e-07
5.08341127805e-07
2.3192969736e-07
5.02044091743e-07
2.50053301479e-07
5.00855376368e-07
2.74877577254e-07
5.01558072271e-07
2.92926675569e-07
5.04380812667e-07
3.02413330763e-07
5.0955166663e-07
3.02496545727e-07
5.14158695937e-07
2.83324978469e-07
5.16582809449e-07
2.47322961083e-07
5.13237300669e-07
2.16343140137e-07
5.03159441511e-07
1.95294169302e-07
4.95835652967e-07
1.76580193983e-07
4.95272595429e-07
1.54893928832e-07
5.01861419645e-07
1.23041215637e-07
5.16098897511e-07
5.24124068678e-08
5.38563762079e-07
-7.82667003198e-09
5.50174434395e-07
-1.51862141084e-08
5.74819420007e-07
6.00843042407e-07
-2.06378892988e-08
2.20147604944e-07
5.83026474686e-07
2.49689248718e-07
5.34014013727e-07
2.36691872408e-07
5.17805384431e-07
2.41924564055e-07
5.1314803548e-07
2.56625800595e-07
5.13536620072e-07
2.76466451967e-07
5.15531086398e-07
2.92335554374e-07
5.19713191168e-07
3.02416771335e-07
5.2634471565e-07
2.98749554991e-07
5.32383372319e-07
2.71392675729e-07
5.35256305355e-07
2.34944978278e-07
5.31889313629e-07
2.03742226229e-07
5.22649851763e-07
1.79835719956e-07
5.11697027414e-07
1.5742369804e-07
5.0620163824e-07
1.31033123116e-07
5.08097237075e-07
9.70258898311e-08
5.18288727349e-07
4.14085670237e-08
5.38071158473e-07
-2.83290335602e-08
5.54153298219e-07
-3.28301990119e-08
5.76876413223e-07
6.02129739051e-07
-3.54715149998e-08
2.19679460361e-07
5.94734936624e-07
2.53501444817e-07
5.45494278375e-07
2.43043129761e-07
5.30785492143e-07
2.47065040592e-07
5.28862159527e-07
2.59828055593e-07
5.3101297753e-07
2.77638384283e-07
5.33235984952e-07
2.90781898317e-07
5.36869354335e-07
2.9246214828e-07
5.4244069053e-07
2.74711426712e-07
5.46990711449e-07
2.4666130824e-07
5.47559356928e-07
2.19957198569e-07
5.43552933999e-07
1.92257383381e-07
5.36242252304e-07
1.64917265935e-07
5.25570766154e-07
1.37545945098e-07
5.13414338781e-07
1.05489555189e-07
5.10330421656e-07
6.9609611082e-08
5.162970605e-07
2.53407833589e-08
5.3273255885e-07
-5.28807819257e-08
5.61087394975e-07
-5.81367555543e-08
5.75506392651e-07
6.00412413694e-07
-5.64542711186e-08
2.41778616759e-07
6.00577399548e-07
2.80700016885e-07
5.59270545542e-07
2.57570754655e-07
5.50398688186e-07
2.51151241194e-07
5.52576052925e-07
2.54412074001e-07
5.54910450439e-07
2.62153366113e-07
5.54032844869e-07
2.62180679868e-07
5.54250301028e-07
2.49535897494e-07
5.56375575746e-07
2.31335179718e-07
5.57054138245e-07
2.16777388543e-07
5.53728637834e-07
2.00533888941e-07
5.47939582976e-07
1.7869292726e-07
5.41787592487e-07
1.52724066861e-07
5.34762912185e-07
1.23944633702e-07
5.21227421627e-07
8.77266612034e-08
5.0973562147e-07
4.93786362389e-08
5.11791905499e-07
9.48698386623e-09
5.25429768073e-07
-5.83970369045e-08
5.51890688528e-07
-8.5667470279e-08
5.70495293881e-07
5.9589421557e-07
-7.96467791336e-08
2.69876698488e-07
6.02270088777e-07
2.98133853855e-07
5.73089235397e-07
2.57268060515e-07
5.74561308052e-07
2.28643596468e-07
5.83330495197e-07
2.13253124537e-07
5.8348694704e-07
2.07292781868e-07
5.75215080255e-07
1.98629599171e-07
5.6918895872e-07
1.88016320769e-07
5.659070216e-07
1.8240025982e-07
5.60874223071e-07
1.79250616935e-07
5.53113855032e-07
1.73566179934e-07
5.45686407512e-07
1.61235881749e-07
5.40795634041e-07
1.42163537561e-07
5.36766102411e-07
1.15483175151e-07
5.27750946948e-07
8.22600988103e-08
5.09190414311e-07
4.19547139885e-08
5.06849725533e-07
4.9051642191e-09
5.1797522669e-07
-3.92711048344e-08
5.40287979589e-07
-1.10175265104e-07
5.71874359903e-07
5.89527166564e-07
-1.01854887027e-07
2.8452939747e-07
5.98313917185e-07
2.81610892246e-07
5.8431314364e-07
2.2210731628e-07
6.00093143494e-07
1.72912522176e-07
6.17602290376e-07
1.44235065646e-07
6.13034586287e-07
1.34053459623e-07
5.93749775773e-07
1.29835841016e-07
5.79078245488e-07
1.30589728898e-07
5.69073871394e-07
1.3631682785e-07
5.58429855389e-07
1.43939947675e-07
5.47036457337e-07
1.48527870882e-07
5.39202708054e-07
1.44555025208e-07
5.35295325086e-07
1.30754575251e-07
5.34114578562e-07
1.11231697187e-07
5.29045146758e-07
8.57102686605e-08
5.10698152891e-07
4.86517336551e-08
5.03107875438e-07
1.39759988071e-08
5.11514789587e-07
-1.93759295252e-08
5.31151207301e-07
-1.12271668914e-07
5.63431931505e-07
5.82445292729e-07
-1.21502838141e-07
2.74978821127e-07
5.95262581042e-07
2.39190344284e-07
5.9611086302e-07
1.7493172429e-07
6.26941854875e-07
1.22933004854e-07
6.52082966916e-07
9.30445175771e-08
6.40694332421e-07
8.45892398781e-08
6.0924604986e-07
8.71719018344e-08
5.8489051613e-07
9.63689227983e-08
5.6793587781e-07
1.10231684421e-07
5.52824126535e-07
1.26180018049e-07
5.39762381943e-07
1.35973138735e-07
5.3299742886e-07
1.35510336563e-07
5.29096811972e-07
1.26324754953e-07
5.28705585376e-07
1.11980943562e-07
5.27015539557e-07
9.38640664188e-08
5.12816847228e-07
6.46536620872e-08
5.01904980442e-07
3.01523776152e-08
5.0711638565e-07
1.13914731954e-09
5.24631483669e-07
-6.39133174234e-08
5.51796368057e-07
5.75246706618e-07
-1.37686056697e-07
2.49043113595e-07
6.03454033598e-07
1.96623826035e-07
6.13700075049e-07
1.42798411078e-07
6.53317204588e-07
1.02530227525e-07
6.80916358423e-07
7.86624656233e-08
6.63270143246e-07
7.30278553477e-08
6.21837274385e-07
7.97098799133e-08
5.8883840834e-07
9.35293908357e-08
5.6576884048e-07
1.11843150911e-07
5.4750378227e-07
1.29679143899e-07
5.34751536819e-07
1.39707284229e-07
5.29558828841e-07
1.39647202042e-07
5.2558080623e-07
1.3257163021e-07
5.2411764886e-07
1.21922913168e-07
5.23947061182e-07
1.07786750681e-07
5.14879997269e-07
8.42056399065e-08
5.03491223953e-07
5.14669114579e-08
5.05303470563e-07
2.49268179633e-08
5.20130807756e-07
-1.07098557088e-08
5.43981654284e-07
5.75292544576e-07
-1.44413040435e-07
2.42191606536e-07
6.16061746726e-07
1.87527002667e-07
6.3282053249e-07
1.42629082404e-07
6.76063944313e-07
1.10593558033e-07
7.03360379921e-07
9.19950291984e-08
6.8037540351e-07
8.92535377898e-08
6.31791708735e-07
9.84568566013e-08
5.92395932932e-07
1.14438627361e-07
5.64800192853e-07
1.33367771037e-07
5.44652112554e-07
1.49396327962e-07
5.33452880747e-07
1.58716921589e-07
5.29695265999e-07
1.59406724081e-07
5.26153129024e-07
1.52672003559e-07
5.23409936646e-07
1.43017530583e-07
5.22852786294e-07
1.27486923253e-07
5.18586575026e-07
1.05044561583e-07
5.07963093092e-07
7.46767649283e-08
5.06370038555e-07
4.95639091097e-08
5.17623997441e-07
2.37550850497e-08
5.39188082948e-07
5.70612440519e-07
-1.19606777655e-07
2.39382191542e-07
6.32344343196e-07
1.84898891677e-07
6.52344882353e-07
1.50123615995e-07
6.91506866596e-07
1.25326876075e-07
7.1803234808e-07
1.128257911e-07
6.90777805261e-07
1.14647129609e-07
6.37970291456e-07
1.26891504062e-07
5.95112819198e-07
1.44675140508e-07
5.65055862975e-07
1.63487657056e-07
5.4457287689e-07
1.77967957617e-07
5.35646333607e-07
1.8753693149e-07
5.33165521295e-07
1.89735042089e-07
5.30372430891e-07
1.83651234131e-07
5.2705502069e-07
1.72792842783e-07
5.25724175175e-07
1.52887386312e-07
5.24904583966e-07
1.27360341972e-07
5.16382156496e-07
9.77057931317e-08
5.10096678706e-07
7.07061842177e-08
5.1686155062e-07
4.75864587901e-08
5.362234407e-07
5.62023936443e-07
-6.30970002871e-08
2.33407608071e-07
6.52981940726e-07
1.78232486783e-07
6.71843004217e-07
1.50792665082e-07
7.00599937305e-07
1.34495586957e-07
7.234719638e-07
1.30422545431e-07
6.92667560175e-07
1.38192934737e-07
6.38978566436e-07
1.54242689621e-07
5.95706964522e-07
1.75276480935e-07
5.65480404133e-07
1.94704012321e-07
5.46557623277e-07
2.08535163031e-07
5.40277166644e-07
2.18913991749e-07
5.39024005525e-07
2.22965791336e-07
5.37173896146e-07
2.1852811367e-07
5.33884190189e-07
2.06938873248e-07
5.32265866273e-07
1.83014289493e-07
5.33963198251e-07
1.50500060377e-07
5.28992985807e-07
1.19470773317e-07
5.16060282654e-07
9.11168015691e-08
5.17743865794e-07
6.8168878133e-08
5.34449466459e-07
5.58076271118e-07
1.06956216883e-08
2.18379206982e-07
6.83991042255e-07
1.61340233336e-07
6.92728588418e-07
1.39717630147e-07
7.04833326299e-07
1.33086321089e-07
7.18695306022e-07
1.39972221917e-07
6.84385388627e-07
1.55405194503e-07
6.33789438363e-07
1.77364733691e-07
5.93360837329e-07
2.030398159e-07
5.65516777957e-07
2.23069087894e-07
5.50051252244e-07
2.36484006086e-07
5.46435879042e-07
2.47876178674e-07
5.46397673208e-07
2.53543441526e-07
5.45666041705e-07
2.51670867243e-07
5.42869364855e-07
2.40660768332e-07
5.4146251348e-07
2.1207475541e-07
5.45069494065e-07
1.70522147273e-07
5.43819884082e-07
1.39145121255e-07
5.24404257006e-07
1.1134260388e-07
5.20516313358e-07
8.9512061612e-08
5.34093371829e-07
5.56719112756e-07
5.54515196327e-08
1.89469895481e-07
7.41271712524e-07
1.30099706419e-07
7.21184799664e-07
1.16129944115e-07
7.04207884462e-07
1.23142509973e-07
7.01965321291e-07
1.42535901389e-07
6.67064231087e-07
1.67463980048e-07
6.23317958536e-07
1.96898584236e-07
5.88551708083e-07
2.26437562674e-07
5.65236855271e-07
2.46285313329e-07
5.54579093635e-07
2.59491145411e-07
5.5348962048e-07
2.71647423737e-07
5.547037019e-07
2.78698397661e-07
5.55073437084e-07
2.78650822075e-07
5.53135333146e-07
2.67792054309e-07
5.5254418398e-07
2.3228007049e-07
5.58088985534e-07
1.8722265375e-07
5.59370464531e-07
1.57398430075e-07
5.37147803011e-07
1.3152136448e-07
5.26542341722e-07
1.11143337225e-07
5.3618143024e-07
5.5800439662e-07
8.55632876781e-08
1.86244305617e-07
8.08512551106e-07
1.24087887915e-07
7.53236871147e-07
1.10481338774e-07
7.02657739447e-07
1.23582086273e-07
6.81069956585e-07
1.49138533537e-07
6.47292619182e-07
1.80488600164e-07
6.11122308964e-07
2.15182746545e-07
5.83062279446e-07
2.45919319134e-07
5.65447192099e-07
2.64573713837e-07
5.59951954922e-07
2.77816705984e-07
5.61175713307e-07
2.9029141832e-07
5.63720029151e-07
2.97640293933e-07
5.6516007346e-07
2.98090778049e-07
5.64424635246e-07
2.85466191425e-07
5.65368490648e-07
2.46372268687e-07
5.73533326449e-07
2.02715995209e-07
5.75405095281e-07
1.72302741935e-07
5.53012710897e-07
1.49373601039e-07
5.35873353396e-07
1.29813741163e-07
5.41192169775e-07
5.61656160199e-07
1.07372557143e-07
2.01239240206e-07
8.68875287809e-07
1.31919678033e-07
7.8524904739e-07
1.19612813954e-07
6.99120839961e-07
1.33124767821e-07
6.60051593179e-07
1.60214048607e-07
6.27863340241e-07
1.94853449273e-07
5.98898122012e-07
2.32447582751e-07
5.7780681793e-07
2.62007096463e-07
5.66671568706e-07
2.79374310632e-07
5.65874787587e-07
2.93580313946e-07
5.69281079775e-07
3.05682418992e-07
5.73094923814e-07
3.12552895036e-07
5.75568025687e-07
3.12633569431e-07
5.7618927606e-07
2.97335208993e-07
5.79112717934e-07
2.56376609993e-07
5.89928490186e-07
2.13669415393e-07
5.91838030567e-07
1.84052533671e-07
5.7035693464e-07
1.64205584393e-07
5.48386720755e-07
1.45915412326e-07
5.49060178005e-07
5.67195911739e-07
1.24618615131e-07
2.10695563518e-07
9.26920882917e-07
1.43293113229e-07
8.09641197606e-07
1.34744455658e-07
6.9184911965e-07
1.47012762413e-07
6.4007244012e-07
1.74113819755e-07
6.09847731791e-07
2.10639931683e-07
5.87616067496e-07
2.49235125069e-07
5.73446219942e-07
2.7639647123e-07
5.69013095453e-07
2.9350368632e-07
5.72027972132e-07
3.08261607997e-07
5.77408927083e-07
3.19715354215e-07
5.82432209991e-07
3.25158655033e-07
5.85873340881e-07
3.24154496465e-07
5.87967702132e-07
3.05286893546e-07
5.9348937e-07
2.62471743417e-07
6.06321769441e-07
2.23392868702e-07
6.08641234775e-07
1.95153064098e-07
5.89377354669e-07
1.77013478606e-07
5.63739298573e-07
1.59501656198e-07
5.59283002965e-07
5.74107092263e-07
1.38549456309e-07
2.01501763674e-07
9.82164661802e-07
1.46436308052e-07
8.20069574848e-07
1.46095881457e-07
6.78361354286e-07
1.60771247069e-07
6.19674397078e-07
1.90030776599e-07
5.92750089789e-07
2.29066944046e-07
5.77430883055e-07
2.66708891886e-07
5.70363077777e-07
2.9181108417e-07
5.7211924967e-07
3.09657874897e-07
5.78251211003e-07
3.2453648857e-07
5.85421466619e-07
3.34298590522e-07
5.91523874047e-07
3.37483725951e-07
5.9580629566e-07
3.35203667117e-07
5.99437340764e-07
3.09251765887e-07
6.07462897027e-07
2.67445896592e-07
6.21374315365e-07
2.34722952332e-07
6.25684736975e-07
2.07479673596e-07
6.10493937343e-07
1.88640464401e-07
5.81544517952e-07
1.70834863641e-07
5.71402853979e-07
5.82029706646e-07
1.49732180841e-07
1.9020202316e-07
1.57053725728e-07
1.61722036865e-07
1.79981027931e-07
2.12764501468e-07
2.54425754594e-07
2.89436038464e-07
3.12921917351e-07
3.3155958651e-07
3.44705888709e-07
3.51439779034e-07
3.51059884962e-07
3.42734972234e-07
3.11135215567e-07
2.76551725271e-07
2.49622275506e-07
2.21069345444e-07
1.98629747997e-07
1.7983837166e-07
1.57989483328e-07
2.07305973475e-08
7.10027811161e-07
7.01189933938e-09
6.77143067475e-07
-6.21126333578e-09
6.45443552244e-07
-1.90046566598e-08
6.14936705346e-07
-3.14655867508e-08
5.85626320214e-07
-4.37098004329e-08
5.57506566049e-07
-5.58505621871e-08
5.30562326885e-07
-6.79817014938e-08
5.04772580447e-07
-8.01901249493e-08
4.80112764573e-07
-9.25671252793e-08
4.56554739533e-07
-1.05253856699e-07
4.3406338637e-07
-1.18497367078e-07
4.12590404258e-07
-1.32707557551e-07
3.92069503424e-07
-1.48282206033e-07
3.72433929571e-07
-1.64848645808e-07
3.536967402e-07
-1.77484876165e-07
3.36209345393e-07
-2.04427138361e-07
3.1920588236e-07
-1.48594945521e-07
3.06492638241e-07
-1.04352110198e-06
2.50709672138e-07
2.60711514143e-07
3.56685001092e-09
5.65893389836e-07
5.70000321421e-10
5.39008305144e-07
-2.26349609539e-09
5.13574054143e-07
-5.00244162059e-09
4.89480690144e-07
-7.69585728509e-09
4.66640261812e-07
-1.03812098863e-08
4.44977657554e-07
-1.30825716105e-08
4.24425300818e-07
-1.58155646121e-08
4.04919848612e-07
-1.85971868118e-08
3.86400328922e-07
-2.14614020029e-08
3.68808006214e-07
-2.44794467826e-08
3.52088427203e-07
-2.77637096258e-08
3.36196570592e-07
-3.1385762161e-08
3.21105064127e-07
-3.50783689268e-08
3.06811033053e-07
-3.80012062455e-08
2.93319900318e-07
-3.98093530844e-08
2.80544006327e-07
-4.17408654628e-08
2.68295901742e-07
-4.79790940833e-08
2.54665394928e-07
-1.40519493141e-08
2.43833706773e-07
2.10432604109e-07
3.18405915851e-09
5.92808268924e-07
3.58715443525e-11
5.64640143159e-07
-2.92473727218e-09
5.37969702882e-07
-5.70275856601e-09
5.12682677564e-07
-8.30648696915e-09
4.88684206411e-07
-1.07451234376e-08
4.65889712202e-07
-1.30253437987e-08
4.44221563791e-07
-1.51601194761e-08
4.23607460343e-07
-1.71802740161e-08
4.03980554113e-07
-1.91405814157e-08
3.85280767329e-07
-2.11044484634e-08
3.67457194681e-07
-2.30674158386e-08
3.50470727118e-07
-2.4780208342e-08
3.34295191414e-07
-2.56000804328e-08
3.189119533e-07
-2.49491423215e-08
3.04284953246e-07
-2.32558923863e-08
2.90265257926e-07
-2.18537785792e-08
2.76129887489e-07
-2.06317139062e-08
2.59806579255e-07
1.67131398292e-08
2.35926639803e-07
2.05447644032e-07