/*--------------------------------*- C++ -*----------------------------------*\
| =========                 |                                                 |
| \\      /  F ield         | OpenFOAM: The Open Source CFD Toolbox           |
|  \\    /   O peration     | Version:  2312                                  |
|   \\  /    A nd           | Website:  www.openfoam.com                      |
|    \\/     M anipulation  |                                                 |
\*---------------------------------------------------------------------------*/
FoamFile
{
    version     2.0;
    format      ascii;
    arch        "LSB;label=32;scalar=64";
    class       volVectorField;
    location    "81";
    object      U.airMean;
}
// * * * * * * * * * * * * * * * * * * * * * * * * * * * * * * * * * * * * * //

dimensions      [0 1 -1 0 0 0 0];

internalField   nonuniform List<vector> 
1875
(
(0.0666027 0.0983287 0)
(0.157502 0.101727 0)
(0.262516 0.110179 0)
(0.311047 0.121597 0)
(0.347758 0.132881 0)
(0.367945 0.142929 0)
(0.376429 0.154109 0)
(0.375275 0.163548 0)
(0.365037 0.171729 0)
(0.347606 0.177233 0)
(0.325458 0.183137 0)
(0.297543 0.187986 0)
(0.266528 0.191373 0)
(0.231204 0.193976 0)
(0.189143 0.198291 0)
(0.142083 0.201213 0)
(0.0907531 0.203701 0)
(0.039138 0.202891 0)
(-0.00958874 0.198391 0)
(-0.0513643 0.190823 0)
(-0.08199 0.180955 0)
(-0.098782 0.169683 0)
(-0.103596 0.158779 0)
(-0.0731074 0.145104 0)
(-0.0358778 0.135057 0)
(0.0577869 0.0674324 0)
(0.131479 0.109796 0)
(0.195178 0.164727 0)
(0.226477 0.212444 0)
(0.250818 0.247124 0)
(0.267555 0.274679 0)
(0.27775 0.296828 0)
(0.28099 0.316685 0)
(0.279576 0.337007 0)
(0.272271 0.355359 0)
(0.259878 0.372043 0)
(0.243459 0.387911 0)
(0.223486 0.401737 0)
(0.199372 0.41782 0)
(0.170453 0.43051 0)
(0.137135 0.439175 0)
(0.100882 0.441216 0)
(0.0651955 0.437515 0)
(0.0302891 0.430296 0)
(-0.00075101 0.416031 0)
(-0.0255187 0.394556 0)
(-0.0434315 0.365587 0)
(-0.0543502 0.327784 0)
(-0.047165 0.283337 0)
(-0.0261291 0.244845 0)
(0.0344463 -0.104851 0)
(0.0757815 -0.0322769 0)
(0.101004 0.043981 0)
(0.119239 0.0976967 0)
(0.134319 0.133327 0)
(0.147366 0.163759 0)
(0.157232 0.19144 0)
(0.162111 0.21759 0)
(0.162622 0.245617 0)
(0.16029 0.273764 0)
(0.15356 0.299322 0)
(0.143906 0.322648 0)
(0.129097 0.346501 0)
(0.112227 0.370978 0)
(0.0938946 0.394294 0)
(0.0726856 0.411893 0)
(0.0508405 0.418659 0)
(0.0309535 0.414381 0)
(0.0133366 0.405596 0)
(0.00106817 0.387408 0)
(-0.00753799 0.360022 0)
(-0.0130177 0.326385 0)
(-0.0170184 0.285246 0)
(-0.0220092 0.229321 0)
(-0.0142258 0.169009 0)
(0.020912 -0.144368 0)
(0.0459299 -0.047497 0)
(0.0503015 0.0386411 0)
(0.0553627 0.101512 0)
(0.0593354 0.145916 0)
(0.0609456 0.181539 0)
(0.0597383 0.214701 0)
(0.0556344 0.24714 0)
(0.0473021 0.279118 0)
(0.0374808 0.310583 0)
(0.0251619 0.341336 0)
(0.0112778 0.371424 0)
(-0.00506116 0.400018 0)
(-0.0204397 0.423975 0)
(-0.0325811 0.444773 0)
(-0.041802 0.460334 0)
(-0.0468663 0.464666 0)
(-0.0484109 0.459343 0)
(-0.0465018 0.444248 0)
(-0.0406662 0.421316 0)
(-0.0338516 0.390634 0)
(-0.0280899 0.35632 0)
(-0.023526 0.313242 0)
(-0.02051 0.252898 0)
(-0.00994271 0.174695 0)
(0.00771655 -0.152183 0)
(0.0154345 -0.0592715 0)
(0.0037058 0.0178995 0)
(-0.00411116 0.0750179 0)
(-0.0130583 0.115521 0)
(-0.0211303 0.152119 0)
(-0.0308408 0.18573 0)
(-0.0406468 0.219989 0)
(-0.0517371 0.253533 0)
(-0.0635722 0.286667 0)
(-0.0768137 0.317642 0)
(-0.0895033 0.347677 0)
(-0.100603 0.375538 0)
(-0.108797 0.395923 0)
(-0.112804 0.412622 0)
(-0.111354 0.422575 0)
(-0.104458 0.423499 0)
(-0.0929845 0.414971 0)
(-0.0785953 0.397936 0)
(-0.0634102 0.374469 0)
(-0.0506157 0.349893 0)
(-0.0394489 0.319589 0)
(-0.0312353 0.28321 0)
(-0.0198503 0.224514 0)
(-0.00641344 0.145391 0)
(0.00639554 -0.128601 0)
(0.0053606 -0.0149082 0)
(-0.0147995 0.0700007 0)
(-0.0296052 0.126022 0)
(-0.0471654 0.16369 0)
(-0.0666235 0.193649 0)
(-0.084927 0.223985 0)
(-0.102329 0.253541 0)
(-0.117291 0.284056 0)
(-0.131877 0.315775 0)
(-0.144577 0.345337 0)
(-0.155482 0.370357 0)
(-0.160753 0.390524 0)
(-0.161703 0.405337 0)
(-0.158077 0.414316 0)
(-0.149029 0.415882 0)
(-0.135396 0.40863 0)
(-0.117897 0.395229 0)
(-0.0991248 0.377248 0)
(-0.0823408 0.359044 0)
(-0.0680884 0.337666 0)
(-0.0556573 0.312756 0)
(-0.0435564 0.272241 0)
(-0.0235769 0.208897 0)
(-0.00779332 0.128504 0)
(0.00321468 -0.0942043 0)
(-0.00291188 0.0182957 0)
(-0.0294877 0.103275 0)
(-0.0435371 0.161018 0)
(-0.0666732 0.196363 0)
(-0.0929853 0.221758 0)
(-0.118451 0.245153 0)
(-0.140953 0.268513 0)
(-0.160731 0.295207 0)
(-0.176155 0.321832 0)
(-0.186093 0.344 0)
(-0.190243 0.36099 0)
(-0.189002 0.373344 0)
(-0.182923 0.382451 0)
(-0.17244 0.384643 0)
(-0.158015 0.38076 0)
(-0.140827 0.368657 0)
(-0.122239 0.351465 0)
(-0.10353 0.335297 0)
(-0.0870039 0.319505 0)
(-0.0730423 0.30466 0)
(-0.0594476 0.278523 0)
(-0.0449346 0.237404 0)
(-0.0235533 0.176037 0)
(-0.00761984 0.0999225 0)
(0.00404481 -0.0508047 0)
(-0.00399217 0.0687916 0)
(-0.031271 0.162776 0)
(-0.0478448 0.223815 0)
(-0.0739665 0.264104 0)
(-0.103512 0.285254 0)
(-0.130612 0.300986 0)
(-0.15479 0.315588 0)
(-0.173878 0.33082 0)
(-0.186997 0.343675 0)
(-0.193346 0.352708 0)
(-0.192733 0.36081 0)
(-0.186647 0.36571 0)
(-0.175833 0.365973 0)
(-0.161866 0.362268 0)
(-0.145356 0.353044 0)
(-0.127642 0.338321 0)
(-0.110151 0.321526 0)
(-0.0938302 0.307344 0)
(-0.0794925 0.297845 0)
(-0.068113 0.285526 0)
(-0.0566233 0.262704 0)
(-0.0433331 0.21892 0)
(-0.0225981 0.153863 0)
(-0.0072394 0.0771545 0)
(0.00342213 -0.016286 0)
(-0.00498925 0.102202 0)
(-0.0305017 0.203209 0)
(-0.0417543 0.274433 0)
(-0.0645987 0.317247 0)
(-0.0900155 0.335653 0)
(-0.115762 0.343994 0)
(-0.137193 0.349936 0)
(-0.1536 0.354391 0)
(-0.164832 0.357215 0)
(-0.168013 0.355364 0)
(-0.166325 0.35148 0)
(-0.16016 0.346183 0)
(-0.149683 0.339674 0)
(-0.136501 0.330481 0)
(-0.121749 0.319203 0)
(-0.106786 0.304775 0)
(-0.0929092 0.290793 0)
(-0.0808879 0.280223 0)
(-0.0713188 0.273447 0)
(-0.0637034 0.265548 0)
(-0.0545007 0.238575 0)
(-0.0424625 0.190975 0)
(-0.021058 0.123318 0)
(-0.00721686 0.04972 0)
(0.00292749 0.0142272 0)
(-0.00468514 0.1319 0)
(-0.0248825 0.239513 0)
(-0.0292678 0.321522 0)
(-0.0436258 0.375264 0)
(-0.0613394 0.396005 0)
(-0.0829969 0.396386 0)
(-0.102035 0.391127 0)
(-0.117536 0.383375 0)
(-0.127872 0.370854 0)
(-0.132249 0.35663 0)
(-0.131554 0.344051 0)
(-0.126121 0.331641 0)
(-0.11786 0.319944 0)
(-0.108161 0.309109 0)
(-0.0977342 0.297529 0)
(-0.0879251 0.285167 0)
(-0.0785676 0.27402 0)
(-0.0708517 0.266778 0)
(-0.0655539 0.262752 0)
(-0.0597397 0.253521 0)
(-0.0522921 0.223342 0)
(-0.0400681 0.166921 0)
(-0.021662 0.0966723 0)
(-0.00836817 0.0253427 0)
(0.000852785 0.0314518 0)
(-0.00203664 0.147726 0)
(-0.0150674 0.257149 0)
(-0.0148025 0.344772 0)
(-0.0195756 0.405398 0)
(-0.0275693 0.434118 0)
(-0.0418439 0.435281 0)
(-0.0565927 0.424056 0)
(-0.0692808 0.407135 0)
(-0.0788944 0.38348 0)
(-0.0851389 0.358909 0)
(-0.0880465 0.338126 0)
(-0.0878371 0.319515 0)
(-0.0848237 0.303206 0)
(-0.0801119 0.290336 0)
(-0.0750423 0.27953 0)
(-0.0702178 0.268532 0)
(-0.0657749 0.258321 0)
(-0.0617384 0.253052 0)
(-0.0589794 0.250002 0)
(-0.0551265 0.239497 0)
(-0.0471832 0.201521 0)
(-0.0363448 0.140773 0)
(-0.0209193 0.0692886 0)
(-0.0091303 -0.00337262 0)
(0.00111686 0.0416863 0)
(0.00322637 0.157193 0)
(-0.00306939 0.267147 0)
(0.000234825 0.35611 0)
(0.00131037 0.421295 0)
(0.00110503 0.458237 0)
(-0.00494845 0.464013 0)
(-0.0140433 0.451172 0)
(-0.0230175 0.428377 0)
(-0.030942 0.400209 0)
(-0.0382464 0.371138 0)
(-0.0445453 0.344008 0)
(-0.0483601 0.318988 0)
(-0.0502851 0.298359 0)
(-0.0505153 0.282521 0)
(-0.0504244 0.270193 0)
(-0.0498281 0.259906 0)
(-0.0505946 0.251302 0)
(-0.0510876 0.247867 0)
(-0.051568 0.246238 0)
(-0.0486753 0.228508 0)
(-0.0410944 0.185166 0)
(-0.0320586 0.120422 0)
(-0.0191127 0.0460303 0)
(-0.00863622 -0.0291111 0)
(0.00311977 0.0433118 0)
(0.00699821 0.15642 0)
(0.00593613 0.26354 0)
(0.011933 0.352751 0)
(0.0169192 0.419648 0)
(0.0216628 0.461919 0)
(0.0226759 0.475053 0)
(0.0197485 0.464669 0)
(0.0143119 0.441427 0)
(0.00747528 0.409916 0)
(-0.000326889 0.379196 0)
(-0.00832379 0.349142 0)
(-0.0153367 0.320736 0)
(-0.0214428 0.297354 0)
(-0.0257232 0.279944 0)
(-0.0289823 0.266597 0)
(-0.0317263 0.258525 0)
(-0.0352315 0.251586 0)
(-0.0387936 0.2485 0)
(-0.0398781 0.241287 0)
(-0.038562 0.216789 0)
(-0.0328096 0.166751 0)
(-0.0276555 0.100979 0)
(-0.0184672 0.0252754 0)
(-0.00817831 -0.0526828 0)
(0.0047557 0.0385364 0)
(0.0099179 0.150852 0)
(0.0118631 0.254288 0)
(0.0187081 0.341947 0)
(0.0257581 0.41017 0)
(0.0332401 0.455096 0)
(0.038109 0.473773 0)
(0.0395129 0.469776 0)
(0.0376399 0.450226 0)
(0.0330374 0.42093 0)
(0.0251232 0.390098 0)
(0.0164755 0.359464 0)
(0.00700872 0.330287 0)
(-0.00165284 0.304551 0)
(-0.00887195 0.284521 0)
(-0.0137599 0.270177 0)
(-0.0182083 0.260748 0)
(-0.021335 0.254511 0)
(-0.0250111 0.251326 0)
(-0.0269942 0.239748 0)
(-0.0262529 0.211435 0)
(-0.0239901 0.159716 0)
(-0.0232337 0.0917366 0)
(-0.0189939 0.0112635 0)
(-0.00848061 -0.0702161 0)
(0.0052811 0.0269965 0)
(0.0119251 0.140585 0)
(0.015585 0.241238 0)
(0.0215224 0.32582 0)
(0.0283585 0.391323 0)
(0.0368099 0.43839 0)
(0.043376 0.462469 0)
(0.0475406 0.464581 0)
(0.0480988 0.449087 0)
(0.045648 0.425174 0)
(0.0393991 0.397544 0)
(0.032185 0.368665 0)
(0.0231961 0.34065 0)
(0.0139201 0.314485 0)
(0.00566287 0.291804 0)
(-0.000680751 0.276333 0)
(-0.00640687 0.266438 0)
(-0.0106744 0.259213 0)
(-0.0144451 0.255204 0)
(-0.0166261 0.239983 0)
(-0.0167716 0.206403 0)
(-0.0157234 0.153439 0)
(-0.0163763 0.0855152 0)
(-0.0159061 0.00380913 0)
(-0.0080018 -0.0789572 0)
(0.00461106 0.0140697 0)
(0.0123216 0.129412 0)
(0.0166659 0.229088 0)
(0.0211648 0.310326 0)
(0.0257908 0.37315 0)
(0.0327236 0.419055 0)
(0.0396292 0.445821 0)
(0.0458928 0.452756 0)
(0.0493915 0.443698 0)
(0.049161 0.425149 0)
(0.0454678 0.401799 0)
(0.0402808 0.37693 0)
(0.0341683 0.351872 0)
(0.0269583 0.32778 0)
(0.0195141 0.30533 0)
(0.0124704 0.288692 0)
(0.00662381 0.277511 0)
(0.00105424 0.269737 0)
(-0.00285333 0.261282 0)
(-0.00446697 0.240536 0)
(-0.00516445 0.203999 0)
(-0.00567421 0.153325 0)
(-0.00683357 0.0849835 0)
(-0.00911848 0.00365421 0)
(-0.00546465 -0.0808676 0)
(0.00320451 0.00403013 0)
(0.00977712 0.119848 0)
(0.015028 0.218772 0)
(0.017091 0.297254 0)
(0.0197528 0.357565 0)
(0.0236343 0.399945 0)
(0.0299606 0.4256 0)
(0.036715 0.433761 0)
(0.0433162 0.429953 0)
(0.0460342 0.419452 0)
(0.045176 0.402296 0)
(0.0430742 0.380746 0)
(0.0404347 0.35823 0)
(0.0362163 0.33746 0)
(0.0302744 0.31727 0)
(0.0236042 0.300787 0)
(0.0166269 0.289217 0)
(0.0109227 0.27931 0)
(0.00812881 0.265987 0)
(0.00589406 0.243176 0)
(0.00490099 0.205912 0)
(0.00258363 0.15848 0)
(0.00152408 0.0896675 0)
(-0.00282742 0.0082783 0)
(-0.00258801 -0.0790492 0)
(0.00156098 -0.00252406 0)
(0.00677844 0.113471 0)
(0.0111186 0.213764 0)
(0.0128988 0.290968 0)
(0.0139261 0.347521 0)
(0.0161499 0.384847 0)
(0.0209007 0.40774 0)
(0.02678 0.413823 0)
(0.0339825 0.412248 0)
(0.0383882 0.408723 0)
(0.0406558 0.397283 0)
(0.0407524 0.380568 0)
(0.0396989 0.363209 0)
(0.0371054 0.346165 0)
(0.0325006 0.329246 0)
(0.0270791 0.314679 0)
(0.0218721 0.301219 0)
(0.01804 0.287327 0)
(0.0154007 0.272752 0)
(0.0119062 0.24934 0)
(0.00946586 0.213259 0)
(0.00655481 0.165556 0)
(0.0063478 0.0975173 0)
(0.000152542 0.0171258 0)
(-0.00150593 -0.0728893 0)
(-0.000806929 -0.00428885 0)
(0.00271811 0.111126 0)
(0.00663282 0.211084 0)
(0.00928272 0.285482 0)
(0.01119 0.341101 0)
(0.0132212 0.37454 0)
(0.017144 0.39343 0)
(0.022238 0.397109 0)
(0.0272484 0.395652 0)
(0.0310016 0.394555 0)
(0.033709 0.388766 0)
(0.0337787 0.377184 0)
(0.033411 0.362947 0)
(0.0321524 0.350226 0)
(0.0296426 0.338031 0)
(0.0262528 0.324231 0)
(0.0227617 0.309256 0)
(0.018873 0.294003 0)
(0.0147577 0.279808 0)
(0.0111993 0.256506 0)
(0.00867227 0.220089 0)
(0.00666812 0.172086 0)
(0.00670362 0.105719 0)
(1.44805e-05 0.0276008 0)
(-0.00141215 -0.063156 0)
(-0.00108933 -0.00241874 0)
(0.00027608 0.108752 0)
(0.00501356 0.208767 0)
(0.00924066 0.280769 0)
(0.0124167 0.333458 0)
(0.0151828 0.365001 0)
(0.0190809 0.381635 0)
(0.0221584 0.384577 0)
(0.024244 0.384703 0)
(0.0249703 0.385631 0)
(0.0260413 0.382004 0)
(0.0258358 0.372916 0)
(0.0260759 0.361417 0)
(0.0249341 0.350498 0)
(0.0243925 0.340183 0)
(0.023118 0.329606 0)
(0.02002 0.318236 0)
(0.0157576 0.305172 0)
(0.0113149 0.28984 0)
(0.00857153 0.263282 0)
(0.00626555 0.225375 0)
(0.00494791 0.177104 0)
(0.00496792 0.112563 0)
(-0.0016415 0.0364185 0)
(-0.00263008 -0.0545486 0)
(0.000361819 0.000850317 0)
(-0.000313516 0.107593 0)
(0.00446179 0.203802 0)
(0.0100489 0.274341 0)
(0.0146579 0.326341 0)
(0.0180684 0.356814 0)
(0.0215901 0.371809 0)
(0.0240497 0.376909 0)
(0.0237714 0.379232 0)
(0.0232792 0.381358 0)
(0.0227534 0.37811 0)
(0.0228452 0.369224 0)
(0.0222236 0.35963 0)
(0.0208564 0.350858 0)
(0.0193865 0.341303 0)
(0.0178412 0.333041 0)
(0.0145175 0.324675 0)
(0.0113775 0.312343 0)
(0.00847865 0.295015 0)
(0.00731165 0.267684 0)
(0.00552096 0.229607 0)
(0.004192 0.180394 0)
(0.00376346 0.117797 0)
(-0.00373144 0.0436408 0)
(-0.003903 -0.0488394 0)
(2.2924e-05 0.00684103 0)
(-0.00100886 0.11082 0)
(0.00163315 0.20051 0)
(0.00691118 0.269328 0)
(0.0125583 0.318049 0)
(0.018002 0.348056 0)
(0.0222983 0.363481 0)
(0.0243429 0.371873 0)
(0.0244172 0.375722 0)
(0.023634 0.377572 0)
(0.0230038 0.376583 0)
(0.0221887 0.370371 0)
(0.020628 0.361988 0)
(0.0182106 0.354192 0)
(0.0158766 0.346274 0)
(0.013602 0.3387 0)
(0.0115369 0.330623 0)
(0.00961244 0.31712 0)
(0.00811775 0.297319 0)
(0.00823412 0.26839 0)
(0.00728009 0.23116 0)
(0.00559065 0.182267 0)
(0.00363568 0.122517 0)
(-0.004775 0.0494128 0)
(-0.00362929 -0.0451695 0)
(0.000182896 0.0125593 0)
(-0.000130029 0.115189 0)
(-7.32667e-05 0.198895 0)
(0.00350152 0.263456 0)
(0.00879412 0.308846 0)
(0.0159564 0.339035 0)
(0.0202914 0.356514 0)
(0.0228106 0.367316 0)
(0.022795 0.373217 0)
(0.0216005 0.375955 0)
(0.020996 0.37428 0)
(0.0191478 0.370643 0)
(0.0169533 0.365885 0)
(0.0146467 0.358529 0)
(0.0128957 0.3505 0)
(0.0109788 0.342434 0)
(0.0106867 0.333036 0)
(0.0101932 0.318353 0)
(0.0109651 0.296936 0)
(0.0110176 0.268066 0)
(0.0101734 0.232039 0)
(0.0075265 0.186355 0)
(0.00399516 0.130019 0)
(-0.00445418 0.0554823 0)
(-0.00293221 -0.0403691 0)
(0.000701616 0.0176398 0)
(0.00144623 0.120773 0)
(0.000596808 0.201069 0)
(0.00259112 0.259807 0)
(0.00553977 0.300552 0)
(0.0115893 0.330475 0)
(0.0156256 0.35026 0)
(0.0181685 0.36262 0)
(0.0191326 0.37105 0)
(0.0186199 0.375439 0)
(0.0169145 0.376019 0)
(0.0147239 0.372339 0)
(0.0129798 0.367919 0)
(0.0122638 0.362618 0)
(0.0120472 0.353977 0)
(0.0118904 0.34318 0)
(0.0131621 0.330719 0)
(0.0140783 0.315443 0)
(0.014354 0.295452 0)
(0.0125287 0.268793 0)
(0.0105129 0.235458 0)
(0.00745678 0.192878 0)
(0.00325252 0.137566 0)
(-0.00422597 0.0612391 0)
(-0.00248605 -0.0358533 0)
(0.00145164 0.0206693 0)
(0.00355696 0.124856 0)
(0.00420671 0.202208 0)
(0.00518776 0.258328 0)
(0.00658059 0.296412 0)
(0.0103851 0.323513 0)
(0.0136183 0.344451 0)
(0.0162118 0.358043 0)
(0.0176446 0.367898 0)
(0.0173707 0.37404 0)
(0.0160188 0.376087 0)
(0.0142828 0.372943 0)
(0.0132899 0.366936 0)
(0.0131426 0.359579 0)
(0.0139531 0.351299 0)
(0.0149976 0.340497 0)
(0.0161835 0.327932 0)
(0.0162836 0.314833 0)
(0.0147529 0.29786 0)
(0.0117101 0.274084 0)
(0.00847133 0.241043 0)
(0.00548793 0.198277 0)
(0.00261277 0.143221 0)
(-0.00325203 0.0652246 0)
(-0.00198554 -0.0314189 0)
(0.00317237 0.020529 0)
(0.00719752 0.12543 0)
(0.00704786 0.203024 0)
(0.00759027 0.257275 0)
(0.00988685 0.292499 0)
(0.0123821 0.318852 0)
(0.0155898 0.340098 0)
(0.0182713 0.354273 0)
(0.0198169 0.36574 0)
(0.0190528 0.372972 0)
(0.0179436 0.374846 0)
(0.0167979 0.371655 0)
(0.0158939 0.366116 0)
(0.0151226 0.35909 0)
(0.0152305 0.349192 0)
(0.0159955 0.337493 0)
(0.0165325 0.326279 0)
(0.0156564 0.316367 0)
(0.0131578 0.301886 0)
(0.00997831 0.278589 0)
(0.00716101 0.245621 0)
(0.00457759 0.203001 0)
(0.00260529 0.147551 0)
(-0.00202622 0.0692343 0)
(-0.00167752 -0.0265828 0)
(0.00512559 0.0177229 0)
(0.0101215 0.123264 0)
(0.00853568 0.201148 0)
(0.00991625 0.253494 0)
(0.0141744 0.288414 0)
(0.0171733 0.31393 0)
(0.0200109 0.334998 0)
(0.0216559 0.35049 0)
(0.0227409 0.363783 0)
(0.0222899 0.372116 0)
(0.0213676 0.374013 0)
(0.0199648 0.371055 0)
(0.0189592 0.365252 0)
(0.0180534 0.357525 0)
(0.0178391 0.34709 0)
(0.0170449 0.335506 0)
(0.0160539 0.32539 0)
(0.0140389 0.317732 0)
(0.0118974 0.305532 0)
(0.00890043 0.284094 0)
(0.0066809 0.250214 0)
(0.00440925 0.207428 0)
(0.0029377 0.15155 0)
(-0.000984375 0.0733306 0)
(-0.00144926 -0.0220999 0)
(0.00595731 0.0154559 0)
(0.00978678 0.119577 0)
(0.00862462 0.196302 0)
(0.0121716 0.246798 0)
(0.017739 0.280848 0)
(0.0209443 0.307973 0)
(0.0235769 0.330794 0)
(0.0243475 0.348244 0)
(0.0237733 0.362034 0)
(0.0231139 0.370515 0)
(0.0221707 0.373154 0)
(0.0209265 0.370389 0)
(0.0198138 0.36462 0)
(0.0191128 0.356892 0)
(0.0183468 0.346982 0)
(0.0167219 0.3359 0)
(0.0149233 0.327114 0)
(0.0124493 0.320736 0)
(0.0106388 0.308992 0)
(0.00854726 0.287638 0)
(0.00735884 0.253459 0)
(0.00464826 0.210766 0)
(0.00401557 0.154436 0)
(0.000476363 0.0784383 0)
(-0.000447945 -0.0163815 0)
(0.00513868 0.0133673 0)
(0.00806928 0.114916 0)
(0.00755548 0.189992 0)
(0.0129104 0.238892 0)
(0.0178847 0.273049 0)
(0.0204777 0.301316 0)
(0.0219287 0.324857 0)
(0.0221363 0.345118 0)
(0.0212635 0.360739 0)
(0.0197382 0.369476 0)
(0.0180556 0.372033 0)
(0.0165123 0.369701 0)
(0.0149112 0.36335 0)
(0.0145012 0.355289 0)
(0.0144576 0.346472 0)
(0.0138842 0.337186 0)
(0.0121735 0.330046 0)
(0.0105488 0.32386 0)
(0.00948735 0.311757 0)
(0.00870386 0.289748 0)
(0.00824546 0.25635 0)
(0.00560408 0.214358 0)
(0.00504984 0.158091 0)
(0.00241952 0.0852928 0)
(0.00082614 -0.00792375 0)
(0.0037315 0.0112775 0)
(0.00641995 0.111301 0)
(0.00606997 0.184305 0)
(0.0109008 0.231584 0)
(0.0145668 0.266612 0)
(0.0160638 0.29825 0)
(0.0158363 0.322508 0)
(0.0141873 0.342572 0)
(0.0126748 0.358971 0)
(0.0113467 0.369604 0)
(0.0100872 0.372889 0)
(0.00840097 0.370146 0)
(0.00707015 0.363683 0)
(0.00640038 0.354188 0)
(0.00671564 0.345055 0)
(0.00728681 0.337557 0)
(0.00702203 0.332037 0)
(0.00668502 0.325514 0)
(0.00687141 0.313141 0)
(0.00722562 0.290557 0)
(0.0066735 0.259601 0)
(0.00520508 0.218811 0)
(0.00483259 0.162565 0)
(0.00282999 0.0923817 0)
(0.00095664 0.00101196 0)
(0.00372883 0.0104245 0)
(0.00590524 0.10968 0)
(0.00506285 0.181391 0)
(0.00753156 0.226576 0)
(0.00947118 0.262983 0)
(0.00976812 0.296158 0)
(0.00958619 0.323483 0)
(0.007114 0.344301 0)
(0.00465453 0.359472 0)
(0.00289514 0.368832 0)
(0.0020038 0.372265 0)
(0.00101238 0.369575 0)
(0.000347856 0.362239 0)
(0.000176775 0.353547 0)
(-6.8201e-05 0.344745 0)
(0.000255399 0.337752 0)
(0.000300225 0.332976 0)
(0.001197 0.326134 0)
(0.00295009 0.313024 0)
(0.00403491 0.292365 0)
(0.00454101 0.262153 0)
(0.00392717 0.220667 0)
(0.00366992 0.16652 0)
(0.0019882 0.0992809 0)
(0.000743478 0.00793173 0)
(0.0041556 0.00977825 0)
(0.00524407 0.110528 0)
(0.00366711 0.1815 0)
(0.00398871 0.22473 0)
(0.00369989 0.262126 0)
(0.00258625 0.295312 0)
(0.00177374 0.322542 0)
(0.000240134 0.345 0)
(-0.00130526 0.360366 0)
(-0.00262976 0.368508 0)
(-0.00331705 0.370668 0)
(-0.00356557 0.368245 0)
(-0.00387803 0.361291 0)
(-0.00423667 0.352891 0)
(-0.00460694 0.344778 0)
(-0.00508619 0.339146 0)
(-0.00554843 0.33339 0)
(-0.00407939 0.324054 0)
(-0.00153747 0.310682 0)
(0.000638249 0.290681 0)
(0.00228911 0.261952 0)
(0.00216426 0.223156 0)
(0.00158781 0.170534 0)
(0.000872875 0.104856 0)
(0.000729151 0.0133436 0)
(0.00373088 0.010489 0)
(0.00460198 0.112637 0)
(0.00158713 0.183206 0)
(0.00102999 0.227597 0)
(-0.00191695 0.263119 0)
(-0.00424918 0.295599 0)
(-0.00680152 0.322575 0)
(-0.00795689 0.343707 0)
(-0.00875272 0.358008 0)
(-0.00863606 0.366403 0)
(-0.00876684 0.368777 0)
(-0.00843013 0.366222 0)
(-0.00804614 0.35994 0)
(-0.00767119 0.353437 0)
(-0.00802058 0.34693 0)
(-0.00841863 0.341122 0)
(-0.00766238 0.333155 0)
(-0.00651808 0.32145 0)
(-0.00483776 0.307427 0)
(-0.00275157 0.287616 0)
(-0.00107679 0.26044 0)
(-0.000171091 0.223093 0)
(-0.000272162 0.172338 0)
(0.000605713 0.107639 0)
(0.000523527 0.0165341 0)
(0.00312348 0.0134745 0)
(0.00392277 0.116356 0)
(-0.00150742 0.186518 0)
(-0.00293578 0.232781 0)
(-0.00719582 0.267629 0)
(-0.0100748 0.298922 0)
(-0.0130185 0.323196 0)
(-0.0141708 0.342746 0)
(-0.014919 0.355852 0)
(-0.0147853 0.36342 0)
(-0.0148888 0.36626 0)
(-0.0142125 0.362722 0)
(-0.0130081 0.356469 0)
(-0.0114261 0.35089 0)
(-0.0102902 0.345854 0)
(-0.00944283 0.34032 0)
(-0.00831785 0.332467 0)
(-0.0078799 0.320695 0)
(-0.00637847 0.304926 0)
(-0.00463185 0.28477 0)
(-0.00251951 0.257863 0)
(-0.00129567 0.221153 0)
(-0.000493535 0.171804 0)
(0.000427223 0.108851 0)
(0.000634149 0.0182784 0)
(0.0024475 0.0192052 0)
(0.00281205 0.121888 0)
(-0.00465406 0.191574 0)
(-0.00642357 0.238807 0)
(-0.0107457 0.272818 0)
(-0.0129156 0.301218 0)
(-0.0150592 0.324246 0)
(-0.0156379 0.341612 0)
(-0.0160941 0.353731 0)
(-0.0165412 0.360715 0)
(-0.0173615 0.362539 0)
(-0.0176937 0.3587 0)
(-0.0170233 0.352481 0)
(-0.0154989 0.347698 0)
(-0.0135178 0.343538 0)
(-0.0114902 0.338446 0)
(-0.00972437 0.331608 0)
(-0.00859488 0.32011 0)
(-0.00740062 0.303234 0)
(-0.00526732 0.281057 0)
(-0.00256788 0.253583 0)
(-0.000450628 0.218252 0)
(0.000612583 0.171506 0)
(0.000679386 0.111476 0)
(0.000864288 0.0207943 0)
(0.001512 0.0267585 0)
(0.00170163 0.129525 0)
(-0.00586306 0.196883 0)
(-0.00733465 0.243828 0)
(-0.0111412 0.275847 0)
(-0.0132913 0.302774 0)
(-0.0145934 0.323002 0)
(-0.0147657 0.339927 0)
(-0.0148194 0.353162 0)
(-0.015631 0.360239 0)
(-0.0170534 0.361811 0)
(-0.0184136 0.357694 0)
(-0.019042 0.350322 0)
(-0.0184101 0.344625 0)
(-0.0167806 0.34044 0)
(-0.0143539 0.335857 0)
(-0.0120089 0.329598 0)
(-0.0100678 0.317445 0)
(-0.00792708 0.299934 0)
(-0.00534112 0.27616 0)
(-0.00284984 0.248517 0)
(8.22667e-05 0.21441 0)
(0.000704488 0.172917 0)
(0.000775997 0.114304 0)
(0.000926074 0.0237677 0)
(0.00103044 0.0347612 0)
(0.00140153 0.136617 0)
(-0.00457171 0.202935 0)
(-0.00600461 0.247756 0)
(-0.00945731 0.280059 0)
(-0.0117025 0.3027 0)
(-0.0130476 0.321715 0)
(-0.0137666 0.337803 0)
(-0.014465 0.350952 0)
(-0.0152065 0.35967 0)
(-0.0161253 0.362577 0)
(-0.0172956 0.358874 0)
(-0.0184393 0.35095 0)
(-0.0186813 0.344386 0)
(-0.0184942 0.338794 0)
(-0.0167726 0.332833 0)
(-0.0149756 0.326249 0)
(-0.01283 0.314042 0)
(-0.0104479 0.295397 0)
(-0.00746827 0.27161 0)
(-0.00432974 0.243655 0)
(-0.00128604 0.211873 0)
(-0.000902214 0.173563 0)
(4.91709e-05 0.115267 0)
(0.000498006 0.0258109 0)
(0.000549654 0.0413568 0)
(0.000409717 0.141773 0)
(-0.00441449 0.207524 0)
(-0.00556465 0.252473 0)
(-0.00894074 0.281777 0)
(-0.0103416 0.304948 0)
(-0.0126626 0.32252 0)
(-0.0139254 0.338886 0)
(-0.0155622 0.351651 0)
(-0.0164858 0.359428 0)
(-0.0167989 0.362436 0)
(-0.016791 0.359798 0)
(-0.0168693 0.352622 0)
(-0.0171595 0.345884 0)
(-0.0168752 0.338343 0)
(-0.0166384 0.331091 0)
(-0.0159096 0.322488 0)
(-0.0139163 0.308964 0)
(-0.0114696 0.289371 0)
(-0.00911132 0.264656 0)
(-0.00552984 0.236233 0)
(-0.00351723 0.208719 0)
(-0.0025285 0.171998 0)
(-0.00150094 0.113822 0)
(1.04319e-06 0.0260228 0)
(-5.56269e-05 0.0499626 0)
(-0.000771554 0.149106 0)
(-0.00552251 0.213501 0)
(-0.00716399 0.256614 0)
(-0.0105645 0.285739 0)
(-0.0125766 0.306083 0)
(-0.013651 0.324617 0)
(-0.0148664 0.339852 0)
(-0.0155315 0.352706 0)
(-0.0162516 0.359472 0)
(-0.0158664 0.360716 0)
(-0.0142946 0.356719 0)
(-0.012537 0.350016 0)
(-0.0113535 0.344006 0)
(-0.0104472 0.337736 0)
(-0.0104034 0.330421 0)
(-0.00976754 0.319765 0)
(-0.00863617 0.304458 0)
(-0.00713576 0.284485 0)
(-0.00539565 0.259102 0)
(-0.00322114 0.23192 0)
(-0.00293606 0.206354 0)
(-0.00255124 0.169529 0)
(-0.00238414 0.111197 0)
(-0.000739789 0.0253561 0)
(-0.000305688 0.059071 0)
(-0.0011914 0.155638 0)
(-0.00506271 0.220036 0)
(-0.00690235 0.263479 0)
(-0.0107331 0.291376 0)
(-0.0133841 0.310471 0)
(-0.0154722 0.325559 0)
(-0.0158235 0.339847 0)
(-0.0155371 0.351486 0)
(-0.0146045 0.357199 0)
(-0.0134436 0.357079 0)
(-0.0116006 0.352873 0)
(-0.00985849 0.346633 0)
(-0.00845226 0.340811 0)
(-0.00642549 0.334908 0)
(-0.00452605 0.327571 0)
(-0.00264678 0.316801 0)
(-0.00141526 0.300915 0)
(-5.22761e-05 0.280752 0)
(0.000980895 0.255993 0)
(0.00117119 0.231955 0)
(0.000630682 0.206496 0)
(-0.000532601 0.169643 0)
(-0.00225592 0.11032 0)
(-0.00125705 0.0258993 0)
(-0.000493752 0.0674632 0)
(-0.00114037 0.161461 0)
(-0.00424996 0.225889 0)
(-0.00554902 0.269313 0)
(-0.00834542 0.298676 0)
(-0.0109409 0.316491 0)
(-0.0135658 0.329487 0)
(-0.0147304 0.34028 0)
(-0.0151654 0.349087 0)
(-0.0140688 0.353612 0)
(-0.0126128 0.353319 0)
(-0.0110599 0.349295 0)
(-0.00947536 0.343108 0)
(-0.00748598 0.336171 0)
(-0.00454267 0.328959 0)
(-0.00125459 0.321091 0)
(0.00191843 0.311452 0)
(0.00419721 0.29689 0)
(0.00578952 0.277907 0)
(0.00629064 0.255929 0)
(0.00494355 0.233048 0)
(0.00429927 0.208472 0)
(0.00145054 0.172613 0)
(-0.0022582 0.112695 0)
(-0.00148428 0.0277959 0)
(-0.00027743 0.0749395 0)
(-0.000371105 0.166435 0)
(-0.00243187 0.229294 0)
(-0.00314345 0.272661 0)
(-0.004571 0.302292 0)
(-0.00602217 0.322108 0)
(-0.00859338 0.334071 0)
(-0.0111063 0.343277 0)
(-0.0128092 0.349302 0)
(-0.0126278 0.351229 0)
(-0.0120752 0.350104 0)
(-0.0109664 0.345157 0)
(-0.00914441 0.337327 0)
(-0.00660367 0.328872 0)
(-0.00347456 0.321008 0)
(-0.00021158 0.313712 0)
(0.00292436 0.304819 0)
(0.00547375 0.291807 0)
(0.00666811 0.274824 0)
(0.00686412 0.255841 0)
(0.00566255 0.236239 0)
(0.00471817 0.212651 0)
(0.00186166 0.176764 0)
(-0.00193789 0.115895 0)
(-0.00149665 0.0303763 0)
(0.000465321 0.0801241 0)
(0.000964351 0.16971 0)
(0.000588276 0.232032 0)
(0.000549357 0.274945 0)
(-0.000606843 0.304721 0)
(-0.00164627 0.324947 0)
(-0.00362636 0.339135 0)
(-0.00573887 0.347597 0)
(-0.00766754 0.351455 0)
(-0.00838218 0.35117 0)
(-0.00833353 0.347793 0)
(-0.00755251 0.340401 0)
(-0.00679283 0.331411 0)
(-0.00517591 0.322566 0)
(-0.00353079 0.314758 0)
(-0.00192414 0.307786 0)
(-8.67689e-05 0.299392 0)
(0.0017768 0.287846 0)
(0.00316657 0.272848 0)
(0.00366241 0.255821 0)
(0.00342723 0.237738 0)
(0.00269137 0.216319 0)
(0.00176483 0.180032 0)
(-0.00106031 0.117833 0)
(-0.00167022 0.0333617 0)
(0.000891547 0.0822991 0)
(0.00191002 0.17062 0)
(0.00228542 0.231624 0)
(0.00364479 0.276613 0)
(0.00275807 0.306426 0)
(0.00189556 0.326896 0)
(0.000692174 0.340623 0)
(-0.000527814 0.349174 0)
(-0.00131493 0.352155 0)
(-0.00131437 0.350704 0)
(-0.00161306 0.346725 0)
(-0.00209742 0.33948 0)
(-0.00265277 0.330063 0)
(-0.00232099 0.320702 0)
(-0.0029732 0.313317 0)
(-0.00334716 0.305275 0)
(-0.00321115 0.295578 0)
(-0.00216162 0.283944 0)
(-0.000845076 0.270995 0)
(0.000480197 0.255647 0)
(0.000809184 0.238378 0)
(0.000518135 0.21742 0)
(0.00162839 0.180774 0)
(-0.000517033 0.119483 0)
(-0.00179298 0.03677 0)
(0.000607788 0.0836016 0)
(0.00207897 0.171135 0)
(0.00147886 0.231177 0)
(0.00335349 0.275455 0)
(0.0034216 0.307602 0)
(0.00324405 0.3275 0)
(0.00229763 0.342052 0)
(0.00161608 0.350093 0)
(0.00200848 0.351917 0)
(0.00221356 0.350638 0)
(0.00157714 0.347051 0)
(0.00112757 0.340309 0)
(0.000998438 0.330147 0)
(0.000726282 0.321518 0)
(-0.000184851 0.314411 0)
(-0.00116544 0.305661 0)
(-0.00229021 0.295625 0)
(-0.00288777 0.282899 0)
(-0.00246758 0.26832 0)
(-0.00146578 0.253455 0)
(-0.00065279 0.23871 0)
(-0.000358989 0.21698 0)
(0.00172141 0.179618 0)
(-0.00078075 0.1207 0)
(-0.0016195 0.0395139 0)
(0.000429356 0.0847352 0)
(0.00223853 0.172733 0)
(0.00117248 0.231534 0)
(0.00207431 0.274212 0)
(0.00255581 0.30764 0)
(0.00281262 0.329399 0)
(0.0024206 0.342169 0)
(0.00259304 0.34845 0)
(0.00323529 0.34964 0)
(0.00378796 0.349175 0)
(0.00398146 0.346923 0)
(0.00432118 0.339074 0)
(0.00463456 0.330336 0)
(0.00436489 0.322172 0)
(0.00362388 0.314871 0)
(0.00259872 0.307043 0)
(0.00104862 0.297023 0)
(0.000157489 0.28319 0)
(-0.000368058 0.267015 0)
(-0.000523475 0.252562 0)
(-0.00039364 0.236926 0)
(0.000832083 0.214722 0)
(0.00274256 0.179152 0)
(-0.000404999 0.122973 0)
(-0.00121341 0.0428839 0)
(0.000391606 0.0855261 0)
(0.00256762 0.172595 0)
(0.00249129 0.232858 0)
(0.00166795 0.27486 0)
(0.00183612 0.306883 0)
(0.00193835 0.327624 0)
(0.00240653 0.341379 0)
(0.00277293 0.346898 0)
(0.00368968 0.348305 0)
(0.00432128 0.347579 0)
(0.00529144 0.344024 0)
(0.00598305 0.337067 0)
(0.00647451 0.329775 0)
(0.00615678 0.323053 0)
(0.00534304 0.315044 0)
(0.00485101 0.307346 0)
(0.00466226 0.29579 0)
(0.00439076 0.282247 0)
(0.00377448 0.26885 0)
(0.00290639 0.254234 0)
(0.00250634 0.235919 0)
(0.00313858 0.21272 0)
(0.00364512 0.180415 0)
(0.000415482 0.126367 0)
(-0.000520705 0.0482767 0)
(0.000631356 0.0864341 0)
(0.00196769 0.170795 0)
(0.00325209 0.234387 0)
(0.00214644 0.274953 0)
(0.00251259 0.306868 0)
(0.00255631 0.327314 0)
(0.00343382 0.341035 0)
(0.00429749 0.345504 0)
(0.00520111 0.345725 0)
(0.00601757 0.343445 0)
(0.0065668 0.339939 0)
(0.00705997 0.334449 0)
(0.00715439 0.326654 0)
(0.0068734 0.320182 0)
(0.00611205 0.313727 0)
(0.00601809 0.303805 0)
(0.00654975 0.292964 0)
(0.00654795 0.28122 0)
(0.00642004 0.26859 0)
(0.00586256 0.254686 0)
(0.00569218 0.236278 0)
(0.00465751 0.214705 0)
(0.00396309 0.183428 0)
(0.000924431 0.130495 0)
(0.000148063 0.0545931 0)
(0.000767941 0.0872112 0)
(0.000924963 0.169838 0)
(0.00206782 0.232481 0)
(0.00246459 0.274564 0)
(0.00320448 0.304244 0)
(0.00472907 0.325104 0)
(0.0064678 0.33694 0)
(0.00856814 0.342451 0)
(0.00976626 0.34303 0)
(0.0103152 0.341365 0)
(0.00982333 0.339237 0)
(0.00872046 0.331663 0)
(0.00755767 0.324907 0)
(0.00666109 0.318745 0)
(0.00606184 0.311352 0)
(0.00586896 0.301419 0)
(0.00633073 0.293101 0)
(0.00712565 0.282143 0)
(0.0074742 0.268938 0)
(0.0075916 0.2551 0)
(0.00760231 0.238134 0)