/*--------------------------------*- C++ -*----------------------------------*\
| =========                 |                                                 |
| \\      /  F ield         | OpenFOAM: The Open Source CFD Toolbox           |
|  \\    /   O peration     | Version:  2312                                  |
|   \\  /    A nd           | Website:  www.openfoam.com                      |
|    \\/     M anipulation  |                                                 |
\*---------------------------------------------------------------------------*/
FoamFile
{
    version     2.0;
    format      ascii;
    arch        "LSB;label=32;scalar=64";
    class       volScalarField;
    location    "0.27/water";
    object      T.gas;
}
// * * * * * * * * * * * * * * * * * * * * * * * * * * * * * * * * * * * * * //

dimensions      [0 0 0 1 0 0 0];

internalField   nonuniform List<scalar> 
750
(
306.733251228
302.487929725
300.915559348
300.340360866
300.127958666
300.048553838
300.018621931
300.007272266
300.002917242
300.001090425
300.000319799
300.000064979
300.000007668
300.000000422
300
300
300
300
300
305.613990932
301.854553627
300.616054436
300.202227189
300.066512308
300.022053188
300.007400138
300.002525832
300.000878891
300.000309491
300.000108743
300.000037117
300.000011613
300.000002497
300
300
300
300
300
304.09968872
301.276205384
300.391751889
300.118843572
300.036026409
300.010953438
300.003344105
300.001027399
300.000315844
300.000097395
300.000029533
300.000008097
300.0000013
300
300
300
300
300.000000029
300.000000033
303.291545245
300.99022447
300.295361097
300.086704217
300.025230307
300.007271536
300.002067962
300.000577911
300.000157084
300.000041733
300.000010121
300.000001478
300
300
300
300
300
300.00000038
300.000000108
306.927487173
302.293507569
300.720943301
300.212158875
300.058629503
300.015501449
300.003964141
300.000987731
300.000240288
300.000056941
300.00001247
300.000001829
300
300
300
300
300.000000069
300.000000486
300
306.750691518
302.265950444
300.757932499
300.250655428
300.080319449
300.023985102
300.00663051
300.001724776
300.000429778
300.000103829
300.000024205
300.000005073
300.000000611
300
300
300.000000101
300.00000027
300.000000498
300
303.902510184
301.370054155
300.49682572
300.177529046
300.062203614
300.021083888
300.006747349
300.002011256
300.000559819
300.000148314
300.000038215
300.00000967
300.000002365
300.000000597
300.000000303
300.000000424
300.000000511
300.000000549
300
301.295411755
300.501991832
300.199770948
300.078950418
300.029836708
300.010851857
300.003798661
300.001265177
300.0003979
300.000118505
300.000034154
300.000009813
300.000002971
300.00000112
300.000000698
300.00000068
300.000000607
300.000000502
300
300.494129943
300.170326653
300.06744537
300.028629657
300.01186103
300.004639397
300.001737278
300.000628268
300.00021882
300.000073501
300.000024395
300.000008336
300.000003207
300.00000154
300.000000996
300.000000804
300.000000555
300.000000235
300
300.335384217
300.093231239
300.029414441
300.011019438
300.004718595
300.001995935
300.000802258
300.000312609
300.000118835
300.00004459
300.000017259
300.000007314
300.000003533
300.000001916
300.000001159
300.000000632
300.000000066
300
300
301.215780785
300.329827731
300.098952261
300.028317559
300.008146641
300.002649616
300.00103943
300.000421079
300.000170087
300.000068388
300.000027786
300.000012013
300.000005959
300.000003271
300.000001781
300.000000755
300
300
300
300
301.391730976
300.375777891
300.138528863
300.049357776
300.016406566
300.005556541
300.001983726
300.000771531
300.000311968
300.000125136
300.000050296
300.000022086
300.000010758
300.000005572
300.000002455
300
300
300
300
300
301.379978874
300.44962398
300.195675224
300.087077702
300.03942329
300.017412708
300.008476495
300.004437369
300.002407593
300.001323803
300.000729284
300.000400775
300.000218235
300.00011722
300.000060298
300.000024736
300
300
300
300.000000409
301.329685415
300.518736363
300.255953
300.129089071
300.067919102
300.036996199
300.021508473
300.012984055
300.007951037
300.004838116
300.002902806
300.001704584
300.000968511
300.000537416
300.000290434
300.000071385
300
300.000032394
300.000056727
300.000044194
301.378796369
300.618479271
300.337703844
300.183067993
300.104751245
300.063873157
300.040119427
300.025362211
300.015861793
300.00973788
300.005826281
300.003362559
300.001900001
300.001116764
300.000679607
300.000059348
300.000078165
300.000421116
300.000336417
300.000207048
302.062498819
300.843968721
300.449411685
300.248703878
300.146742886
300.093302546
300.060779124
300.039080706
300.024309938
300.014481039
300.008160474
300.004493517
300.002793368
300.001957898
300.001203202
300.000845735
300.00091669
300.000882643
300.000782311
300.000508857
306.109927217
301.544568509
300.734745003
300.400796145
300.22663526
300.139020521
300.089751012
300.057961717
300.03605362
300.021137989
300.011419552
300.006317483
300.004210033
300.003104569
300.002350416
300.001751923
300.001616215
300.001425132
300.001186861
300.000768574
316.954537033
302.942852173
301.092979739
300.584311807
300.329278558
300.206938104
300.13923479
300.089037509
300.054007861
300.031072444
300.016334083
300.008253715
300.005328484
300.003999388
300.003161441
300.002517202
300.002006675
300.001689327
300.001364967
300.000883518
325.765189236
306.47235488
301.602990723
300.734269867
300.383807619
300.225694219
300.150440701
300.104509998
300.067465869
300.037612093
300.01942662
300.010333689
300.005612104
300.004150499
300.003296625
300.002609454
300.002010492
300.001575798
300.001256866
300.000822918
332.47565149
308.239030339
302.188526347
300.852836693
300.39155252
300.211648176
300.135465602
300.092564487
300.061432226
300.034463963
300.017476029
300.009050318
300.004862921
300.003598595
300.002815981
300.002225345
300.00173967
300.001354153
300.001059153
300.000717879
335.943011233
309.015760971
302.488300421
300.895535034
300.381723811
300.18506744
300.115036934
300.075215126
300.048588328
300.028097253
300.013826388
300.006893955
300.003967683
300.003067947
300.002365391
300.001874416
300.001514044
300.001232284
300.001000751
300.000683031
337.319427237
308.725700278
302.665943414
300.905880813
300.368819057
300.169455842
300.099488233
300.058810523
300.035290901
300.01957067
300.009190898
300.004856071
300.003607485
300.002771759
300.002193186
300.001791218
300.001514774
300.001307705
300.001107552
300.000735252
338.212355532
307.728355203
302.33335233
300.727753276
300.280729774
300.128701706
300.077112932
300.043783936
300.026961571
300.013435058
300.006430436
300.004568267
300.003573508
300.002809381
300.002282499
300.001930494
300.001693201
300.001506943
300.001274348
300.000770269
338.751632738
306.471833233
302.214779715
300.547983335
300.199013865
300.100253668
300.060070498
300.034822488
300.023555466
300.009765191
300.005943004
300.004684003
300.003724422
300.003000848
300.002500247
300.002167393
300.00193847
300.00174492
300.001468777
300.000862868
337.299315419
306.03132698
302.752884676
300.40629001
300.150270999
300.08412761
300.048184132
300.028511246
300.020566571
300.008803199
300.006183722
300.004984379
300.004054601
300.003350222
300.002856773
300.002520816
300.002285903
300.002075798
300.001752026
300.001029271
334.751310493
306.32685453
302.69560575
300.363839786
300.142674134
300.080398077
300.044295001
300.025997789
300.019962853
300.009613642
300.007155816
300.005870938
300.004888124
300.004150382
300.00362923
300.003267051
300.002998146
300.002735899
300.002334511
300.001402507
331.999406201
306.403292285
302.774105375
300.411702879
300.162213051
300.092041364
300.050325872
300.028170292
300.021208982
300.01348782
300.009808774
300.008104547
300.006862041
300.005952258
300.00531654
300.004879559
300.004547778
300.004176705
300.003513832
300.002127323
330.134599995
305.499141519
302.601145088
300.486832524
300.193160972
300.112802984
300.061592707
300.037267355
300.028513129
300.023178608
300.016382208
300.01241688
300.010409098
300.00911345
300.008200933
300.007556599
300.007061727
300.006513645
300.005451852
300.003108706
329.255243284
305.27974893
302.809987355
300.595956859
300.230749616
300.135004598
300.077423966
300.053919575
300.043723145
300.037327911
300.030322939
300.023352861
300.017376985
300.014250265
300.012589302
300.011520707
300.010791096
300.010075034
300.008293509
300.004697993
327.686299457
304.710290765
302.857738385
300.664732796
300.257330722
300.152754691
300.096661379
300.072402215
300.064150187
300.055759683
300.04761383
300.040346783
300.032698628
300.026733241
300.021995233
300.018656366
300.01622374
300.014144257
300.011248868
300.008031397
325.311805036
304.313931274
302.836827219
300.651509239
300.27362205
300.169276806
300.121106934
300.094032088
300.08813315
300.078334688
300.067132876
300.057768057
300.049983593
300.042934329
300.036023969
300.030897995
300.026933699
300.022090097
300.014481008
300.012909358
323.861957245
305.176627201
302.485076014
300.660216584
300.332824047
300.196945426
300.161701173
300.129355799
300.118326044
300.106839356
300.09248494
300.079881747
300.069585924
300.060910365
300.053248389
300.045511338
300.039023349
300.032596328
300.020120024
300.018616155
324.866323713
306.431448149
302.464746633
300.749713626
300.430085841
300.26727788
300.211515143
300.192050305
300.161703245
300.151508286
300.133748511
300.115115709
300.099406872
300.086520935
300.075447274
300.06362815
300.053845035
300.04490635
300.027335507
300.025320972
328.785273861
306.804040483
304.203229683
301.048700263
300.631823749
300.437846423
300.292146192
300.260066214
300.227560398
300.217806117
300.20099119
300.171853799
300.145626384
300.124488875
300.105757017
300.0868032
300.072572498
300.060403087
300.036685887
300.033631919
331.342081838
315.541933831
304.54158064
302.339460019
300.987726065
300.672017702
300.4718225
300.359386506
300.313900597
300.294380355
300.281482978
300.24685453
300.206970495
300.17132647
300.138195035
300.112504069
300.09397089
300.077960981
300.049723439
300.043564956
329.900218504
316.77846747
307.055600467
302.790759048
301.579822994
301.004752266
300.664154028
300.502169195
300.422956393
300.386709377
300.365650773
300.331948948
300.29977943
300.232965627
300.172246061
300.140106022
300.117040652
300.096872533
300.063777583
300.053897367
328.253974475
316.620095777
308.19142152
303.646548443
302.007092176
301.310606465
300.885608551
300.655857015
300.546191338
300.493365024
300.459613426
300.418957791
300.384248843
300.317123099
300.210743815
300.167215658
300.138259234
300.113727009
300.074530869
300.06308117
337.781450559
317.954186517
308.602038326
304.108896536
302.271665576
301.461213046
301.027179534
300.789905211
300.659329364
300.590104686
300.546890379
300.501292811
300.457377162
300.379402945
300.241464391
300.188684661
300.155123568
300.127099606
300.082247407
300.070654177
)
;

boundaryField
{
    emptyPatch
    {
        type            empty;
    }
    minY
    {
        type            fixedValue;
        value           uniform 300;
    }
    maxY
    {
        type            inletOutlet;
        inletValue      nonuniform List<scalar> 0();
        value           nonuniform List<scalar> 0();
    }
    maxX
    {
        type            fixedValue;
        value           uniform 300;
    }
    water_to_heater
    {
        type            copiedFixedValue;
        sourceFieldName T.liquid;
        value           nonuniform List<scalar> 0();
    }
    procBoundary1to0
    {
        type            processor;
        value           nonuniform List<scalar> 
38
(
309.469711749
311.850409236
310.283915751
308.396956533
307.439238293
306.907038032
324.756266444
353.825904287
368.666508107
376.303856352
380.599827712
382.940343937
384.457057143
383.308270815
375.226882976
365.830697677
359.659235953
358.192019248
358.389581651
354.447103261
352.197171587
355.738444309
364.569063105
373.220336724
364.682331895
347.90991135
343.561889722
318.407510448
317.187400025
313.097027139
310.859766313
320.028460327
321.270268664
312.322668721
303.958230039
301.501202193
301.074862914
301.074862914
)
;
    }
    procBoundary1to2
    {
        type            processor;
        value           nonuniform List<scalar> 
20
(
341.157372672
315.869285901
306.667744236
303.327271064
302.045070178
301.441623504
301.08543914
300.863511245
300.72813698
300.652790676
300.606556697
300.55680751
300.512400236
300.389901987
300.255897404
300.201195012
300.165919439
300.136060156
300.085687025
300.076153595
)
;
    }
    procBoundary1to3
    {
        type            processor;
        value           uniform 382.787631743;
    }
}


// ************************************************************************* //
