/*--------------------------------*- C++ -*----------------------------------*\
| =========                 |                                                 |
| \\      /  F ield         | OpenFOAM: The Open Source CFD Toolbox           |
|  \\    /   O peration     | Version:  2312                                  |
|   \\  /    A nd           | Website:  www.openfoam.com                      |
|    \\/     M anipulation  |                                                 |
\*---------------------------------------------------------------------------*/
FoamFile
{
    version     2.0;
    format      ascii;
    arch        "LSB;label=32;scalar=64";
    class       volScalarField;
    location    "0.025/water";
    object      d.gas;
}
// * * * * * * * * * * * * * * * * * * * * * * * * * * * * * * * * * * * * * //

dimensions      [0 1 0 0 0 0 0];

internalField   nonuniform List<scalar> 
1497
(
0.00498812533995
0.00498811822343
0.00498811128355
0.00498810370987
0.00498809467939
0.00498808450102
0.00498807372351
0.00498806253908
0.00498805100904
0.00498803918146
0.0049880271151
0.00498801488751
0.00498800259722
0.00498837488965
0.00498836552203
0.00498832903508
0.00498832758962
0.00498833414176
0.00498833699445
0.0049883350848
0.00498832940681
0.00498832225013
0.00498831514725
0.00498830751051
0.00498829855246
0.00498828846733
0.00498827779709
0.0049882667424
0.0049882553668
0.00498824371981
0.00498823185713
0.00498821984983
0.00498820778747
0.0049885597723
0.00498855496044
0.00498852739864
0.00498852625717
0.00498853247933
0.00498853532941
0.00498853348454
0.00498852775267
0.00498852038977
0.00498851312855
0.00498850559422
0.00498849689318
0.00498848709223
0.00498847671728
0.00498846597126
0.00498845491678
0.00498844360215
0.00498843208026
0.0049884204188
0.00498840870341
0.00498875662972
0.00498874855365
0.00498871345653
0.00498871303997
0.00498872065702
0.00498872458927
0.00498872361692
0.00498871845768
0.00498871142792
0.0049887045473
0.00498869756125
0.004988689475
0.00498868025345
0.00498867042766
0.00498866021665
0.00498864968808
0.00498863888977
0.00498862787202
0.00498861670101
0.00498860546117
0.00498894457892
0.00498893591133
0.00498889543366
0.00498889510172
0.00498890390424
0.0049889088565
0.00498890857566
0.00498890375325
0.0049888970152
0.00498889058394
0.00498888424444
0.004988876906
0.00498886841586
0.00498885930524
0.00498884980098
0.00498883996851
0.00498882984907
0.00498881948616
0.00498880894142
0.00498879829532
0.00498911563343
0.00498911162557
0.00498907097279
0.0049890707502
0.00498908060163
0.00498908665213
0.00498908727982
0.00498908325687
0.00498907730013
0.00498907159685
0.00498906608587
0.00498905966789
0.00498905208542
0.00498904385813
0.00498903521884
0.00498902622833
0.00498901692023
0.00498900733094
0.0049889975156
0.00498898754863
0.00498927060617
0.00498927605729
0.00498924061632
0.0049892406387
0.0049892511869
0.00498925845677
0.00498926040431
0.00498925754971
0.00498925241387
0.00498924761782
0.0049892433524
0.00498923826208
0.00498923189042
0.00498922477489
0.00498921716934
0.00498920914161
0.00498920072967
0.00498919197211
0.00498918292352
0.00498917365793
0.004989415549
0.00498943421072
0.00498941103943
0.0049894118356
0.00498942233181
0.00498942998321
0.0049894323718
0.00498942973136
0.00498942507749
0.00498942132529
0.0049894183717
0.00498941457177
0.00498940939324
0.0049894033764
0.00498939677971
0.00498938967465
0.00498938210442
0.0049893741122
0.00498936575761
0.00498935712186
0.00498958036695
0.0049896057516
0.00498957852176
0.00498957979277
0.00498959143344
0.00498960009872
0.004989603079
0.0049896009867
0.00498959727317
0.00498959461694
0.00498959292139
0.00498959032233
0.00498958616417
0.00498958103529
0.00498957522068
0.00498956881131
0.00498956186363
0.00498955443058
0.00498954658263
0.00498953840984
0.00498975614827
0.00498979346772
0.0049897618352
0.00498976037861
0.00498977078943
0.00498977860938
0.00498978062135
0.004989777815
0.00498977370385
0.00498977120514
0.00498977000736
0.0049897677743
0.0049897638929
0.00498975902456
0.0049897534583
0.00498974729196
0.00498974058187
0.00498973338124
0.00498972576003
0.00498971780366
0.00498993936484
0.00498999109681
0.00498995625542
0.00498995110019
0.00498995878638
0.00498996474688
0.00498996527978
0.00498996132636
0.00498995641475
0.00498995325482
0.00498995111608
0.00498994781375
0.0049899431
0.00498993763774
0.00498993165297
0.00498992519349
0.00498991828025
0.00498991094644
0.00498990324578
0.00498989525843
0.00499010954842
0.0049901707901
0.00499014267263
0.00499013467183
0.00499014037649
0.00499014591311
0.00499014661902
0.00499014282825
0.00499013782627
0.00499013410896
0.00499013093774
0.00499012657997
0.00499012100985
0.00499011485881
0.00499010830824
0.00499010137772
0.00499009408486
0.0049900864595
0.00499007855189
0.00499007043491
0.00499026314163
0.00499033489727
0.00499031490563
0.004990306394
0.00499031227353
0.00499031871216
0.00499032049185
0.00499031752262
0.00499031293253
0.00499030921931
0.00499030570996
0.004990300933
0.00499029500271
0.00499028852102
0.00499028165933
0.00499027445432
0.00499026693649
0.00499025913961
0.0049902511114
0.00499024291216
0.00499044612251
0.00499051331686
0.00499048295847
0.00499047568428
0.00499048164233
0.00499048791313
0.00499048985773
0.00499048721949
0.00499048288027
0.00499047917977
0.00499047551422
0.0049904706247
0.00499046461999
0.00499045807698
0.00499045117679
0.0049904439516
0.0049904364265
0.00499042863311
0.00499042061473
0.00499041243323
0.00499061940784
0.00499068568667
0.00499064625193
0.00499063770629
0.00499064438343
0.00499065121854
0.0049906537839
0.00499065168809
0.00499064762863
0.00499064405258
0.00499064053029
0.00499063585706
0.00499063005753
0.00499062370078
0.00499061697818
0.00499060992468
0.00499060256163
0.0049905949167
0.00499058703453
0.00499057898302
0.00499077294748
0.0049908433653
0.00499080484947
0.00499079672302
0.0049908028458
0.00499080986895
0.00499081298149
0.00499081149563
0.00499080782655
0.00499080459639
0.00499080145584
0.00499079722253
0.00499079181911
0.00499078581427
0.00499077941504
0.00499077265984
0.00499076557399
0.0049907581892
0.0049907505509
0.00499074272459
0.0049909204297
0.00499100074306
0.00499096527537
0.00499095364595
0.00499095861853
0.00499096558469
0.0049909691787
0.00499096835214
0.00499096517778
0.00499096220826
0.00499095946152
0.00499095569723
0.00499095072865
0.00499094511874
0.00499093909066
0.00499093268136
0.00499092592126
0.00499091884139
0.00499091148904
0.00499090392697
0.00499105624526
0.00499114593749
0.00499112252263
0.0049911114852
0.00499111513411
0.00499112154104
0.00499112507357
0.00499112432704
0.00499112113972
0.00499111817229
0.00499111560984
0.00499111216945
0.00499110755541
0.00499110229113
0.00499109660229
0.00499109052375
0.00499108407623
0.00499107728856
0.00499107020452
0.00499106288645
0.00499121816356
0.00499130623721
0.0049912738878
0.00499126217776
0.00499126604456
0.00499127298951
0.00499127717275
0.00499127693043
0.00499127409581
0.00499127149463
0.00499126942784
0.0049912665728
0.00499126246999
0.00499125763244
0.00499125230625
0.00499124654309
0.004991240377
0.00499123384065
0.00499122697906
0.00499121985627
0.00499136673718
0.00499145856796
0.00499142082871
0.0049914060349
0.00499141066138
0.00499141986631
0.00499142604649
0.00499142722082
0.00499142534578
0.0049914234482
0.00499142203028
0.00499141977666
0.0049914161554
0.00499141169004
0.00499140665083
0.00499140111132
0.00499139512605
0.00499138874235
0.00499138201332
0.00499137500605
0.004991512496
0.0049916150129
0.0049915734973
0.00499155696726
0.00499156356275
0.00499157309895
0.00499157989088
0.00499158143749
0.00499157960394
0.00499157748457
0.0049915758516
0.00499157345688
0.00499156973509
0.00499156520034
0.00499156011277
0.00499155453893
0.00499154852959
0.00499154213101
0.004991535397
0.00499152839521
0.00499165893514
0.00499176842301
0.00499173326887
0.0049917157943
0.00499172001731
0.00499172959472
0.00499173661672
0.00499173790385
0.00499173531711
0.00499173235465
0.0049917299903
0.00499172697197
0.00499172276604
0.00499171784107
0.00499171244221
0.00499170662339
0.0049917004229
0.00499169387706
0.00499168703207
0.00499167994956
0.00499179307723
0.00499191341613
0.00499189144339
0.00499187512162
0.00499187843282
0.00499188672549
0.00499189294437
0.00499189320279
0.00499188961259
0.00499188574343
0.00499188249434
0.00499187875891
0.00499187401036
0.00499186864943
0.00499186290166
0.00499185680337
0.00499185038061
0.0049918436609
0.00499183668156
0.00499182949563
0.00499195448938
0.00499207009844
0.00499204001002
0.0049920233976
0.00499202508511
0.0049920341367
0.00499204112403
0.00499204185796
0.00499203853593
0.00499203457867
0.0049920310568
0.00499202713281
0.00499202223644
0.00499201672017
0.00499201082071
0.00499200458002
0.00499199802964
0.00499199120082
0.00499198413045
0.00499197686942
0.00499210152062
0.00499221652017
0.00499217991823
0.00499215997793
0.00499216368743
0.00499217497557
0.00499218378315
0.00499218571065
0.00499218300128
0.00499217925432
0.00499217587861
0.00499217217324
0.00499216744321
0.0049921619993
0.00499215611695
0.00499214986017
0.00499214327616
0.00499213640656
0.00499212929431
0.0049921219949
0.00499224029796
0.00499235908467
0.00499232159936
0.0049923014725
0.0049923060982
0.0049923178543
0.00499232716497
0.00499232930626
0.00499232644211
0.00499232239966
0.00499231889155
0.00499231521138
0.00499231050512
0.00499230504144
0.00499229912639
0.0049922928354
0.00499228621949
0.00499227932087
0.00499227218349
0.00499226486521
0.0049923721818
0.00499249702495
0.00499246629342
0.00499244707308
0.00499244994316
0.00499246117029
0.0049924703822
0.00499247226359
0.00499246891295
0.00499246432937
0.00499246042917
0.00499245650179
0.00499245160032
0.00499244596504
0.00499243992275
0.00499243354661
0.00499242687698
0.00499241994631
0.00499241279276
0.00499240546983
0.00499249508844
0.00499262491575
0.00499260758139
0.00499258895134
0.00499259010471
0.00499260091721
0.00499261020729
0.00499261210193
0.00499260863561
0.00499260379772
0.00499259954003
0.00499259530241
0.00499259019552
0.00499258440949
0.00499257827219
0.00499257184479
0.00499256515204
0.00499255821751
0.00499255107363
0.00499254376967
0.00499264084004
0.00499276484455
0.0049927392503
0.00499272120366
0.00499272326936
0.0049927347291
0.00499274446305
0.0049927465907
0.00499274321593
0.0049927383362
0.00499273421916
0.00499273035065
0.00499272556443
0.00499271997003
0.00499271395752
0.00499270761384
0.00499270097856
0.00499269408888
0.00499268698703
0.0049926797305
0.0049927738132
0.00499289177714
0.00499286670178
0.00499284971125
0.00499285347943
0.00499286631655
0.0049928763295
0.00499287810949
0.00499287428236
0.0049928694838
0.00499286608774
0.00499286294969
0.00499285858437
0.00499285322145
0.0049928473357
0.00499284105769
0.00499283445866
0.00499282759806
0.00499282053429
0.00499281332925
0.0049929346493
0.00499304544518
0.00499301339479
0.00499299279349
0.00499299536641
0.0049930060951
0.00499301384778
0.00499301384351
0.00499300886463
0.00499300347934
0.00499299954856
0.0049929957927
0.00499299088022
0.00499298508211
0.00499297886803
0.00499297235876
0.00499296561554
0.00499295868833
0.00499295162171
0.00499294446564
0.00499306942203
0.00499318025545
0.00499315282788
0.004993131156
0.00499313313492
0.00499314285965
0.00499314968833
0.0049931490359
0.00499314336123
0.00499313693398
0.00499313168219
0.00499312667114
0.00499312076899
0.00499311424703
0.00499310754036
0.00499310073053
0.00499309384309
0.00499308689755
0.00499307990783
0.00499307290974
0.00499315202338
0.00499327793563
0.00499326742116
0.00499325264611
0.00499325621983
0.00499326564086
0.0049932729198
0.00499327309306
0.00499326797192
0.00499326166517
0.00499325620818
0.00499325090245
0.00499324478669
0.00499323818265
0.00499323152151
0.00499322486805
0.00499321822983
0.00499321160372
0.00499320499396
0.00499319842368
0.00499325911628
0.00499338573881
0.00499337189738
0.00499335886962
0.0049933624803
0.00499337281852
0.00499338155414
0.00499338360235
0.00499338023273
0.00499337537892
0.00499337110044
0.00499336677972
0.00499336156585
0.00499335583091
0.00499335002276
0.00499334420961
0.00499333839701
0.00499333258472
0.00499332677995
0.00499332099533
0.00499335571645
0.00499348248975
0.00499346545494
0.00499345345928
0.00499345913597
0.0049934703038
0.00499348026003
0.00499348414628
0.00499348275953
0.00499347994538
0.00499347768343
0.00499347528339
0.00499347186806
0.00499346780991
0.00499346356777
0.00499345921688
0.00499345477344
0.00499345024944
0.00499344565123
0.00499344099259
0.00499344875588
0.00499357655204
0.00499356083125
0.00499354890205
0.00499355336286
0.00499356390913
0.00499357386201
0.00499357865883
0.00499357886288
0.00499357819729
0.00499357845748
0.00499357866076
0.00499357767977
0.00499357585657
0.00499357366669
0.00499357120188
0.00499356849678
0.00499356557635
0.00499356245534
0.00499355915573
0.00499352620189
0.00499366013416
0.00499365417949
0.00499364346
0.0049936471945
0.0049936567745
0.0049936665004
0.00499367204441
0.00499367366085
0.00499367503084
0.00499367791666
0.00499368085022
0.0049936823592
0.00499368281392
0.00499368271306
0.00499368217
0.00499368124042
0.00499367996285
0.00499367836358
0.00499367647522
0.00499360157187
0.00499374790808
0.0049937575583
0.00499374875677
0.00499375026047
0.00499375813816
0.00499376724728
0.00499377312812
0.00499377552168
0.00499377810268
0.00499378253217
0.00499378696851
0.00499378995859
0.00499379192472
0.00499379332267
0.00499379424797
0.00499379474736
0.00499379484945
0.00499379457624
0.00499379395418
0.0049879907005
0.00498797987244
0.00498797031722
0.00498796191315
0.0049879545332
0.00498794802791
0.0049879422941
0.00498793731582
0.00498793304067
0.00498792938331
0.00498792628487
0.00498792368681
0.00498792153266
0.00498791977152
0.00498791835666
0.00498791724781
0.00498791646015
0.00498791605172
0.00498791601534
0.00498791595823
0.00498819611885
0.00498818550524
0.00498817614099
0.00498816790404
0.00498816066963
0.0049881542905
0.00498814866718
0.00498814378594
0.00498813959514
0.00498813600976
0.00498813297222
0.004988130425
0.00498812831204
0.00498812658264
0.00498812519172
0.00498812409866
0.00498812332195
0.00498812292678
0.00498812290683
0.0049881228492
0.00498839736795
0.00498838705614
0.00498837795576
0.00498836994746
0.00498836291022
0.00498835670147
0.00498835122538
0.00498834647123
0.00498834238937
0.0049883388964
0.00498833593641
0.00498833345407
0.00498833139512
0.0049883297107
0.00498832835699
0.00498832729591
0.00498832654671
0.00498832616989
0.00498832616078
0.0049883261081
0.00498859457144
0.00498858465404
0.00498857589314
0.00498856817488
0.00498856138518
0.00498855538843
0.00498855009361
0.00498854549359
0.00498854154299
0.00498853816097
0.00498853529426
0.00498853289011
0.00498853089644
0.00498852926629
0.00498852795741
0.0049885269315
0.00498852620897
0.00498852585302
0.00498852585617
0.00498852580699
0.00498878794961
0.00498877850625
0.00498877014756
0.00498876276855
0.00498875626531
0.00498875051076
0.0049887454206
0.00498874099348
0.00498873718934
0.00498873393033
0.004988731166
0.00498872884636
0.00498872692154
0.00498872534644
0.00498872408035
0.00498872308745
0.00498872239043
0.00498872205186
0.00498872206579
0.00498872202141
0.0049889778138
0.00498896889453
0.00498896097407
0.00498895396022
0.00498894776196
0.00498894226268
0.00498893738683
0.00498893314048
0.00498892948864
0.0049889263566
0.00498892369729
0.00498892146382
0.00498891960873
0.00498891808906
0.00498891686596
0.00498891590505
0.00498891523146
0.00498891491055
0.00498891493633
0.00498891489682
0.00498916454604
0.0049891561546
0.00498914866974
0.00498914201537
0.00498913611489
0.00498913086352
0.00498912619595
0.0049891221251
0.00498911862016
0.0049891156102
0.00498911305157
0.00498911090056
0.00498910911231
0.00498910764609
0.00498910646496
0.00498910553644
0.00498910488778
0.00498910458483
0.00498910462154
0.00498910458603
0.00498934856777
0.00498934064545
0.00498933354488
0.00498932720689
0.0049893215683
0.00498931653592
0.00498931205336
0.00498930813784
0.00498930476269
0.00498930186089
0.00498929939183
0.00498929731449
0.00498929558615
0.00498929416788
0.00498929302419
0.00498929212414
0.0049892914972
0.00498929121058
0.0049892912583
0.00498929122709
0.00498953026573
0.00498952268659
0.00498951587111
0.0049895097716
0.00498950433353
0.00498949947214
0.00498949513474
0.00498949134105
0.00498948806811
0.00498948525232
0.00498948285493
0.00498948083696
0.0049894791574
0.0049894777788
0.00498947666704
0.00498947579223
0.00498947518539
0.00498947491446
0.00498947497172
0.00498947494286
0.00498970986062
0.00498970246336
0.00498969581034
0.00498968985433
0.00498968454288
0.0049896797935
0.0049896755543
0.00498967184398
0.00498966864237
0.00498966588811
0.00498966354301
0.00498966156913
0.00498965992625
0.00498965857762
0.00498965748966
0.00498965663351
0.00498965604196
0.00498965578343
0.0049896558495
0.00498965582299
0.00498988732896
0.00498987997355
0.00498987337339
0.00498986747657
0.00498986222603
0.0049898575372
0.00498985335464
0.00498984969384
0.00498984653684
0.00498984382268
0.00498984151256
0.00498983956891
0.00498983795189
0.00498983662516
0.00498983555571
0.00498983471491
0.00498983413667
0.0049898338903
0.00498983396406
0.0049898339376
0.00499006243368
0.00499005504377
0.00499004843723
0.00499004255368
0.00499003732748
0.00499003266979
0.00499002851923
0.00499002488939
0.00499002176229
0.00499001907635
0.00499001679169
0.00499001487066
0.00499001327326
0.00499001196309
0.00499001090703
0.00499001007711
0.00499000950901
0.00499000927216
0.00499000935355
0.0049900093277
0.00499023485898
0.0049902274435
0.0049902208357
0.00499021496634
0.00499020976343
0.00499020513474
0.00499020101522
0.00499019741513
0.00499019431593
0.00499019165596
0.00499018939444
0.00499018749382
0.00499018591421
0.00499018461942
0.00499018357669
0.00499018275805
0.0049901822004
0.00499018197465
0.00499018206371
0.00499018203665
0.00499040440971
0.00499039703284
0.00499039046946
0.00499038464778
0.00499037949294
0.00499037491217
0.00499037083841
0.0049903672781
0.00499036421384
0.00499036158525
0.00499035935095
0.0049903574738
0.00499035591399
0.00499035463547
0.00499035360542
0.00499035279681
0.00499035224866
0.00499035203224
0.00499035212953
0.00499035210268
0.00499057108335
0.00499056381838
0.00499055735502
0.00499055162335
0.00499054654897
0.00499054204114
0.00499053803133
0.00499053452344
0.00499053150358
0.00499052891346
0.00499052671147
0.00499052486136
0.00499052332408
0.00499052206413
0.00499052104951
0.00499052025323
0.00499051971595
0.00499051951112
0.00499051961684
0.00499051958868
0.00499073502388
0.0049907279275
0.00499072160766
0.00499071599884
0.00499071102963
0.00499070661286
0.00499070267904
0.00499069923291
0.00499069626539
0.00499069371991
0.0049906915549
0.00499068973539
0.00499068822294
0.00499068698262
0.00499068598263
0.00499068519733
0.00499068466982
0.00499068447404
0.00499068458815
0.00499068456052
0.00499089645766
0.00499088955586
0.00499088339903
0.00499087792605
0.00499087307005
0.00499086874788
0.0049908648926
0.00499086151155
0.0049908585991
0.00499085609955
0.00499085397187
0.00499085218271
0.00499085069479
0.00499084947411
0.00499084848994
0.00499084771674
0.00499084719937
0.00499084701421
0.00499084713606
0.00499084710721
0.00499105563437
0.00499104891724
0.00499104291506
0.00499103756852
0.00499103281619
0.00499102857991
0.00499102479646
0.00499102147541
0.0049910186137
0.00499101615622
0.00499101406272
0.00499101230128
0.00499101083538
0.00499100963164
0.00499100865948
0.00499100789492
0.00499100738508
0.00499100720652
0.00499100733494
0.00499100730667
0.00499121277414
0.00499120620274
0.00499120032038
0.00499119507102
0.00499119039863
0.00499118622924
0.00499118250178
0.00499117922756
0.00499117640502
0.00499117397978
0.00499117191211
0.00499117017138
0.00499116872197
0.00499116753123
0.00499116656958
0.00499116581282
0.00499116530954
0.00499116513844
0.00499116527202
0.00499116524202
0.00499136802222
0.00499136153486
0.00499135572088
0.00499135052869
0.00499134590437
0.00499134177682
0.00499133808575
0.00499133484137
0.00499133204365
0.0049913296392
0.00499132758834
0.00499132586114
0.00499132442224
0.00499132323917
0.0049913222821
0.00499132152829
0.00499132102807
0.00499132085967
0.00499132099678
0.00499132096689
0.0049915214244
0.00499151495134
0.00499150915393
0.00499150397881
0.00499149937137
0.004991495261
0.0049914915855
0.00499148835334
0.00499148556611
0.00499148317067
0.00499148112678
0.00499147940501
0.00499147797035
0.0049914767906
0.00499147583665
0.00499147508504
0.00499147458716
0.00499147442289
0.00499147456236
0.00499147453002
0.00499167292324
0.00499166641273
0.00499166059292
0.00499165540481
0.00499165079046
0.00499164667765
0.00499164300106
0.00499163976842
0.0049916369822
0.00499163458826
0.00499163254556
0.00499163082477
0.00499162939061
0.0049916282107
0.00499162725524
0.00499162650216
0.00499162600406
0.00499162583975
0.00499162598047
0.00499162594784
0.00499182239138
0.00499181582588
0.00499180996873
0.00499180475446
0.00499180012179
0.00499179599644
0.00499179231058
0.0049917890717
0.0049917862817
0.00499178388482
0.00499178183939
0.00499178011623
0.00499177868011
0.00499177749873
0.00499177654289
0.00499177578948
0.00499177529196
0.00499177513044
0.00499177527215
0.00499177523668
0.00499196970555
0.00499196309647
0.00499195720777
0.00499195196975
0.00499194731946
0.00499194318166
0.00499193948761
0.00499193624348
0.00499193344998
0.0049919310505
0.00499192900302
0.00499192727825
0.00499192584064
0.00499192465761
0.00499192369917
0.00499192294371
0.00499192244561
0.00499192228372
0.00499192242621
0.00499192239056
0.00499211480012
0.00499210816809
0.00499210226163
0.00499209700996
0.00499209235002
0.00499208820678
0.00499208451108
0.00499208126609
0.00499207847167
0.00499207607149
0.00499207402322
0.00499207229772
0.00499207085961
0.00499206967645
0.00499206871895
0.00499206796436
0.00499206746797
0.00499206730984
0.00499206745374
0.00499206741546
0.00499225765831
0.00499225101871
0.0049922451075
0.00499223985422
0.00499223519556
0.00499223105709
0.0049922273683
0.0049922241288
0.00499222133856
0.00499221894259
0.00499221689817
0.00499221517614
0.0049922137409
0.00499221255983
0.00499221160285
0.00499221084889
0.00499221035414
0.00499221019738
0.00499221034309
0.00499221030506
0.0049923982656
0.00499239163262
0.00499238573045
0.00499238048902
0.00499237584433
0.00499237172209
0.0049923680495
0.00499236482308
0.00499236204367
0.00499235965768
0.0049923576218
0.00499235590709
0.00499235447821
0.00499235330281
0.00499235235168
0.0049923516026
0.00499235111286
0.00499235096256
0.0049923511114
0.0049923510711
0.00499253659175
0.00499252998523
0.00499252411044
0.00499251889786
0.00499251428249
0.00499251019
0.00499250654587
0.00499250334416
0.00499250058673
0.00499249822085
0.00499249620264
0.00499249450325
0.00499249308733
0.00499249192244
0.00499249097867
0.00499249023577
0.0049924897521
0.00499248960668
0.00499248975975
0.00499248972037
0.00499267260376
0.0049926660472
0.00499266022341
0.00499265506179
0.00499265049644
0.00499264645291
0.00499264285533
0.00499263969548
0.00499263697531
0.00499263464246
0.00499263265262
0.00499263097748
0.00499262958213
0.0049926284347
0.0049926275064
0.004992626776
0.00499262630337
0.00499262616925
0.00499262632875
0.00499262628784
0.00499280626572
0.00499279978583
0.00499279404318
0.00499278896358
0.00499278447868
0.00499278051327
0.00499277698997
0.00499277389719
0.00499277123631
0.00499276895589
0.0049927670115
0.00499276537527
0.0049927640126
0.00499276289191
0.00499276198396
0.00499276126993
0.00499276081125
0.00499276068798
0.00499276085581
0.00499276081693
0.00499293749922
0.00499293114434
0.00499292553354
0.0049929205869
0.00499291623101
0.00499291238889
0.0049929089807
0.00499290598999
0.00499290341777
0.00499290121471
0.00499289933653
0.00499289775634
0.00499289644061
0.0049928953588
0.00499289448343
0.0049928937951
0.00499289335747
0.00499289325309
0.0049928934324
0.00499289339335
0.00499306615912
0.00499306003591
0.00499305465373
0.00499304992711
0.00499304577695
0.00499304212507
0.004993038889
0.00499303604808
0.00499303360489
0.00499303151381
0.00499302973118
0.00499302823153
0.00499302698262
0.00499302595505
0.00499302512161
0.00499302446612
0.00499302405469
0.00499302397
0.00499302416363
0.00499302412868
0.00499319211564
0.00499318641117
0.00499318141222
0.00499317703378
0.00499317319545
0.00499316982149
0.00499316682949
0.00499316419808
0.00499316193404
0.00499315999624
0.00499315834262
0.00499315695051
0.00499315579028
0.0049931548349
0.00499315406009
0.00499315345004
0.00499315307417
0.00499315301882
0.00499315323078
0.00499315319814
0.00499331542516
0.0049933103782
0.00499330595312
0.00499330207464
0.00499329866975
0.00499329567165
0.00499329300368
0.00499329064861
0.00499328861998
0.00499328688182
0.00499328539542
0.00499328414206
0.00499328309547
0.00499328223146
0.00499328152729
0.00499328097151
0.00499328063734
0.00499328061234
0.00499328084562
0.0049932808201
0.00499343644516
0.00499343228594
0.00499342861559
0.00499342537933
0.00499342252136
0.00499341999057
0.00499341772141
0.00499341570509
0.00499341396326
0.00499341246621
0.00499341118035
0.00499341009238
0.00499340918076
0.00499340842536
0.00499340780784
0.00499340731854
0.00499340703498
0.00499340704956
0.00499340730754
0.00499340728728
0.00499355582886
0.00499355271648
0.00499354992596
0.00499354743188
0.00499354520182
0.00499354320481
0.00499354139032
0.00499353975936
0.00499353834268
0.00499353711876
0.00499353606043
0.00499353516033
0.00499353440195
0.00499353376939
0.00499353324698
0.00499353283002
0.00499353260113
0.0049935326553
0.00499353294046
0.00499353292586
0.00499367441965
0.00499367239937
0.00499367052922
0.00499366881394
0.00499366724456
0.00499366581058
0.00499366447666
0.00499366325277
0.00499366217952
0.00499366124463
0.00499366042742
0.00499365972685
0.00499365913193
0.00499365863148
0.00499365821464
0.00499365787987
0.00499365771427
0.00499365781584
0.0049936581263
0.00499365813087
0.00499379306807
0.00499379207287
0.004993791081
0.00499379011854
)
;

boundaryField
{
    emptyPatch
    {
        type            empty;
    }
    minY
    {
        type            calculated;
        value           nonuniform List<scalar> 0();
    }
    maxY
    {
        type            calculated;
        value           nonuniform List<scalar> 0();
    }
    water_to_cooler
    {
        type            calculated;
        value           nonuniform List<scalar> 
37
(
0.00498791595823
0.0049881228492
0.0049883261081
0.00498852580699
0.00498872202141
0.00498891489682
0.00498910458603
0.00498929122709
0.00498947494286
0.00498965582299
0.0049898339376
0.0049900093277
0.00499018203665
0.00499035210268
0.00499051958868
0.00499068456052
0.00499084710721
0.00499100730667
0.00499116524202
0.00499132096689
0.00499147453002
0.00499162594784
0.00499177523668
0.00499192239056
0.00499206741546
0.00499221030506
0.0049923510711
0.00499248972037
0.00499262628784
0.00499276081693
0.00499289339335
0.00499302412868
0.00499315319814
0.0049932808201
0.00499340728728
0.00499353292586
0.00499365813087
)
;
    }
    water_to_heater
    {
        type            calculated;
        value           nonuniform List<scalar> 
60
(
0.00498834219384
0.00498838199499
0.0049885371199
0.00498857663856
0.00498874380717
0.00498878337711
0.00498894162091
0.00498911265298
0.0049892365473
0.0049892779482
0.00498939151936
0.00498943349568
0.00498956641993
0.00498961004284
0.0049897531526
0.00498993641195
0.00499006897221
0.00499011910295
0.00499023502383
0.004990285216
0.00499043050161
0.00499048074504
0.00499061632834
0.0049907698723
0.00499087803465
0.00499093043943
0.0049910269482
0.00499107926957
0.0049912018124
0.00499125459702
0.00499136361326
0.00499150941544
0.00499161363126
0.00499166988192
0.00499176189
0.00499181794044
0.00499193727323
0.0049919933622
0.00499209832419
0.00499223709579
0.00499232610679
0.0049923832179
0.00499246375308
0.00499251976097
0.00499262355881
0.00499267914766
0.00499277027002
0.00499293107534
0.00499302609694
0.00499307906345
0.00499312200534
0.00499317476322
0.00499324229514
0.00499329485936
0.00499335199544
0.00499344498574
0.00499348377795
0.00499353522621
0.0049935720915
0.00499362328381
)
;
    }
    procBoundary1to0
    {
        type            processor;
        value           nonuniform List<scalar> 
41
(
0.00499372249124
0.00499386750777
0.00499387114311
0.00499386067465
0.00499386152174
0.00499386855034
0.00499387736892
0.00499388355656
0.00499388644889
0.00499388945207
0.00499389398841
0.00499389856695
0.0049939019896
0.00499390460081
0.0049939067841
0.00499390859712
0.00499391005694
0.00499391116688
0.00499391192464
0.00499391233478
0.00499378919365
0.00499378831295
0.00499378745332
0.00499378663268
0.00499378590162
0.00499378525617
0.00499378468174
0.0049937841832
0.00499378375516
0.00499378339099
0.0049937830832
0.00499378283437
0.00499378273556
0.00499378288555
0.00499378322464
0.00499378323867
0.00499391244255
0.0049939123456
0.00499391214308
0.00499378919365
0.00499391186796
)
;
    }
    procBoundary1to3
    {
        type            processor;
        value           nonuniform List<scalar> 
41
(
0.00498791616856
0.00498790903201
0.00498790222239
0.004987894782
0.00498788580594
0.00498787563691
0.00498786484086
0.00498785360858
0.00498784200342
0.00498783007598
0.00498781788968
0.00498780552961
0.00498779309813
0.00498817714326
0.00498816518163
0.00498812633976
0.00498812495611
0.00498813123697
0.00498813360527
0.00498813124885
0.00498813124885
0.00498778105723
0.00498777008959
0.00498776040707
0.00498775189031
0.00498774441143
0.00498773782035
0.00498773201163
0.00498772696616
0.00498772263149
0.00498771892289
0.00498771578053
0.00498771314466
0.00498771095775
0.00498770916831
0.00498770772998
0.00498770659983
0.00498770579299
0.00498770537291
0.00498770533153
0.00498770527405
)
;
    }
}

