/*--------------------------------*- C++ -*----------------------------------*\
| =========                 |                                                 |
| \\      /  F ield         | OpenFOAM: The Open Source CFD Toolbox           |
|  \\    /   O peration     | Version:  2312                                  |
|   \\  /    A nd           | Website:  www.openfoam.com                      |
|    \\/     M anipulation  |                                                 |
\*---------------------------------------------------------------------------*/
FoamFile
{
    version     2.0;
    format      ascii;
    arch        "LSB;label=32;scalar=64";
    class       volScalarField;
    location    "0.34/water";
    object      nut.gas;
}
// * * * * * * * * * * * * * * * * * * * * * * * * * * * * * * * * * * * * * //

dimensions      [0 2 -1 0 0 0 0];

internalField   nonuniform List<scalar> 
750
(
1.19508141072e-08
1.16513372525e-08
1.42812669727e-08
2.13266771227e-08
4.70736531479e-08
1.49224214072e-07
5.69198458253e-07
1.82273733605e-06
3.96521291435e-06
6.00603339308e-06
6.77059695943e-06
5.80553619265e-06
3.63506890429e-06
1.50071464195e-06
4.06777881358e-07
1.64761091688e-07
2.57048447963e-07
6.53793071908e-07
1.49312157694e-06
1.84658198554e-08
1.20998063013e-08
9.84559421544e-09
1.05791829324e-08
1.58615803763e-08
3.48840933605e-08
7.6597427664e-08
1.9045393647e-07
4.65829171173e-07
9.88754980695e-07
1.57567696555e-06
1.66669223603e-06
1.06464639558e-06
4.34970094782e-07
2.37365387353e-07
3.79751486206e-07
8.33808325204e-07
1.51292622269e-06
2.32540835837e-06
2.6589522694e-08
1.58132434223e-08
1.02781201486e-08
8.47564070962e-09
9.50507926052e-09
1.38662899304e-08
2.60114388645e-08
6.25727131954e-08
1.14646903843e-07
1.98683472898e-07
3.25835685469e-07
4.16308900911e-07
3.33934797401e-07
2.38918115773e-07
3.5378646085e-07
7.29277475165e-07
1.29586795037e-06
1.9657838875e-06
2.53831423552e-06
3.6519657531e-08
2.32071217721e-08
1.38731707252e-08
9.24420902017e-09
8.44549714476e-09
1.09031202205e-08
1.79733700227e-08
3.06793173e-08
5.05718349764e-08
8.35140043756e-08
1.12242152593e-07
1.46188440605e-07
1.68485515805e-07
2.38121216584e-07
5.02130341681e-07
9.40913616659e-07
1.4018319105e-06
2.00277079632e-06
2.12447525086e-06
4.57915148335e-08
2.80523266177e-08
1.72476029186e-08
1.08378145916e-08
8.52246981464e-09
9.69006810125e-09
1.51972244556e-08
2.53559063578e-08
3.58492241789e-08
4.45497917505e-08
6.89789235928e-08
8.81024732934e-08
1.25589084712e-07
2.43750796403e-07
5.27166808969e-07
9.22563495109e-07
1.25352157855e-06
1.74374258902e-06
1.28389511465e-06
6.13328618097e-08
3.21241571761e-08
2.01758368597e-08
1.28406782004e-08
9.1950592057e-09
8.99093328266e-09
1.29189496888e-08
2.16037178479e-08
3.13100258675e-08
3.82972897569e-08
4.41013987003e-08
6.90149486162e-08
1.18612775154e-07
2.09880246511e-07
3.89255092882e-07
6.62245045795e-07
8.87218863745e-07
1.27043485592e-06
6.72507014677e-07
6.95280976921e-08
4.0787592804e-08
2.4058646101e-08
1.50186791325e-08
1.03079838873e-08
9.04534057899e-09
1.15340257041e-08
1.82511848887e-08
2.71140603619e-08
3.44211496362e-08
4.07379561332e-08
5.47646685698e-08
9.96580229439e-08
2.05312457179e-07
2.80049414165e-07
3.64366354775e-07
4.54017130554e-07
6.6977338889e-07
4.76161040184e-07
6.71100971062e-08
4.47309934819e-08
2.71075650927e-08
1.6197365371e-08
1.07004998719e-08
9.05367610088e-09
1.11432213372e-08
1.71647706327e-08
2.51907806418e-08
3.22037870838e-08
4.00433667329e-08
5.82159066847e-08
1.01109199341e-07
1.59958703547e-07
2.33425277838e-07
3.00701739131e-07
3.37006382384e-07
4.39588230593e-07
4.14483371163e-07
6.15456964047e-08
4.19439661265e-08
2.69652292758e-08
1.60890411426e-08
1.05615697977e-08
9.09534627477e-09
1.13317312127e-08
1.73606604563e-08
2.48691457525e-08
3.13825211861e-08
3.99371390425e-08
6.23964558484e-08
1.1057319825e-07
1.71542575776e-07
2.15772964018e-07
2.4541495698e-07
3.09954089515e-07
4.42311022552e-07
6.40591193052e-07
6.86214676192e-08
3.93142964351e-08
2.55525967555e-08
1.62083123659e-08
1.06943070689e-08
9.11221484662e-09
1.1358451801e-08
1.72821169592e-08
2.43046031415e-08
3.02694233702e-08
3.89483901408e-08
6.33689202581e-08
1.19961718485e-07
2.02499004733e-07
2.7710475121e-07
3.72145601678e-07
5.26468059748e-07
7.53223364961e-07
1.10062184249e-06
1.06684872407e-07
8.49599869388e-08
5.31798887463e-08
2.51257989584e-08
1.52298292169e-08
1.09943359682e-08
9.50925323562e-09
1.13639466191e-08
1.66663596704e-08
2.32412945346e-08
2.91262595475e-08
3.77658724351e-08
6.42556911675e-08
1.38383349813e-07
2.60794237216e-07
3.78306538667e-07
5.03209468218e-07
6.681729875e-07
9.10600600503e-07
1.25269659646e-06
1.01654248997e-07
8.44344709307e-08
5.36456479773e-08
3.10952080149e-08
1.62162428877e-08
9.94689586023e-09
9.45823386721e-09
1.14695502157e-08
1.60474058171e-08
2.18806952581e-08
2.75870992499e-08
3.60422790863e-08
6.16930860911e-08
1.40376575388e-07
2.82483415729e-07
4.17442788671e-07
5.49107323486e-07
7.2937944451e-07
9.66856132989e-07
1.28828731626e-06
8.90018501515e-08
6.21806530606e-08
5.08770633309e-08
3.30004210593e-08
1.92859342402e-08
1.19580630879e-08
8.16675249338e-09
1.02028326058e-08
1.45566307981e-08
1.97069054258e-08
2.46870541534e-08
3.15531194875e-08
4.94293663855e-08
1.03251879928e-07
2.29495972994e-07
4.05356114971e-07
5.66426292444e-07
6.72291927144e-07
7.93175526053e-07
1.05660112296e-06
7.45638405059e-08
4.99763928907e-08
3.52122940089e-08
3.11970601415e-08
2.25149844903e-08
1.48715370038e-08
1.1056556299e-08
8.522161221e-09
1.13128062582e-08
1.5732889753e-08
2.04154782802e-08
2.5386069884e-08
3.47102185478e-08
6.10989634311e-08
1.32737278054e-07
3.08816498455e-07
6.1954506259e-07
8.02021537331e-07
8.4889842584e-07
8.9545366855e-07
6.74498409614e-08
4.21704871176e-08
2.42562710999e-08
2.41840407029e-08
2.27730695174e-08
1.72115683412e-08
1.29827715426e-08
1.16092267401e-08
1.26403450705e-08
1.25248580025e-08
1.52903962762e-08
1.88846901546e-08
2.39374481916e-08
3.56723108621e-08
4.88235668356e-08
1.78849744786e-07
5.30578312669e-07
8.00689100245e-07
9.57219592871e-07
1.05096959852e-06
6.44354656101e-08
4.84187417509e-08
2.24677719411e-08
1.55231726788e-08
1.95151708325e-08
1.67091993206e-08
1.29972656516e-08
1.11720927539e-08
1.13333083624e-08
1.30452150475e-08
1.337948534e-08
1.38126453148e-08
1.66101390581e-08
1.85787638629e-08
2.02470119882e-08
8.200742193e-08
3.05707605144e-07
6.08350790171e-07
8.11434139867e-07
9.6345159424e-07
6.48620146603e-08
5.09088662526e-08
2.69435656044e-08
1.68984684743e-08
1.56955502178e-08
1.57880319416e-08
1.23354305453e-08
1.0325048777e-08
9.88037040103e-09
1.05297440606e-08
1.13192304562e-08
1.00620925698e-08
1.14783223453e-08
1.37225584378e-08
2.48639908135e-08
2.79268246317e-08
2.08801769625e-07
5.31913446132e-07
7.09071459209e-07
8.39786865729e-07
4.88658480881e-08
4.98209883363e-08
3.16239410121e-08
2.01049690347e-08
1.42842205953e-08
1.29838872748e-08
1.20334337064e-08
1.01458162999e-08
9.4741357651e-09
9.41876096349e-09
9.79254144847e-09
7.96910418864e-09
1.16947761924e-08
1.85886960161e-08
4.85602199306e-08
3.23408148632e-08
2.03563754762e-07
5.55683521408e-07
6.97273196549e-07
7.59476229962e-07
6.70014298996e-08
5.63950394353e-08
3.26165049646e-08
2.13590685711e-08
1.57297792065e-08
1.17174196473e-08
9.13701047819e-09
9.32361457983e-09
1.05502946823e-08
1.13594200723e-08
1.0687307986e-08
1.13711918657e-08
1.44846793237e-08
2.71594310563e-08
6.42493536528e-08
3.77996389565e-08
1.7962826391e-07
5.92424288622e-07
7.68161675223e-07
8.16293761237e-07
8.90773669541e-08
3.4137361905e-08
2.34830313887e-08
2.05047991995e-08
1.64092025549e-08
1.18435926434e-08
8.75419009901e-09
8.19769399958e-09
1.20771347181e-08
1.99741258715e-08
2.44043962494e-08
2.21908100256e-08
1.80483756129e-08
2.99108061736e-08
6.74768051735e-08
3.15662514555e-08
8.01629822195e-08
5.68463741676e-07
8.43256198368e-07
9.52167629263e-07
7.63013506474e-08
2.44544746046e-08
1.74103042139e-08
1.8158541901e-08
1.56640377987e-08
1.17156599003e-08
8.6382573095e-09
8.32485058964e-09
2.03505825692e-08
5.62809845726e-08
7.11679746104e-08
5.1988055502e-08
2.45389762248e-08
3.13685048697e-08
5.43806046113e-08
1.54511598487e-08
2.79687719965e-08
4.69254905208e-07
9.46967400332e-07
1.16097083445e-06
6.17368714376e-08
1.90222825547e-08
7.94877305447e-09
1.00518099607e-08
1.33726067992e-08
1.06584940104e-08
9.54162390249e-09
1.74082162955e-08
6.79331046628e-08
1.60062085055e-07
1.91983191623e-07
1.37893149287e-07
6.71361068462e-08
3.99270843073e-08
5.49116874001e-08
2.49528899293e-08
2.4883409266e-08
2.80031244023e-07
9.68014890058e-07
1.27120592291e-06
6.41824918842e-08
1.04154124363e-08
7.17642400724e-09
1.27584985832e-08
1.38350988317e-08
1.68796019554e-08
3.75151929581e-08
1.18646440999e-07
2.10071080615e-07
2.42255789247e-07
2.17691334853e-07
1.55674758426e-07
8.19616899166e-08
5.74911094125e-08
4.59974412097e-08
7.02420453179e-08
1.84942112514e-07
6.3020745279e-07
1.22472233333e-06
1.33639247455e-06
7.2492565177e-08
9.718195825e-09
1.2048267487e-08
1.52607455181e-08
2.39516518794e-08
5.21875616252e-08
1.4244456371e-07
2.26026327104e-07
2.59382188703e-07
2.72498003061e-07
2.74203119044e-07
2.22471889774e-07
1.50832485574e-07
9.14756170393e-08
6.98760916346e-08
1.98273085981e-07
5.39500728085e-07
1.01446822124e-06
1.40128013135e-06
1.56119066952e-06
6.89469678683e-08
1.01159809012e-08
1.81967455132e-08
1.8226940698e-08
3.81347612315e-08
9.63781453898e-08
2.0485816521e-07
2.69032093915e-07
2.87873335646e-07
3.05537891607e-07
3.7525106338e-07
3.54312299673e-07
2.74093067116e-07
1.85666113745e-07
1.4949052753e-07
3.76614254577e-07
7.09697093755e-07
1.00488464725e-06
1.22849616736e-06
1.87096964292e-06
6.24779366823e-08
9.96046801373e-09
2.06889601798e-08
1.94103332617e-08
4.04652238855e-08
1.01296795479e-07
2.09397714488e-07
2.90327765703e-07
3.17101635366e-07
3.21236244371e-07
3.42831452691e-07
3.46097086087e-07
3.07212390371e-07
2.51556218186e-07
2.6377637862e-07
4.63974616298e-07
7.02271011283e-07
9.71516700228e-07
1.49567347201e-06
2.61141255399e-06
5.7771139722e-08
1.01978058591e-08
2.28178112171e-08
1.90846913216e-08
3.29581516351e-08
7.73691023353e-08
1.67100845862e-07
2.74374871152e-07
3.39830042679e-07
3.58840149828e-07
3.48859670861e-07
3.32349169788e-07
3.10956305885e-07
2.93431492742e-07
3.25360356492e-07
5.03986135376e-07
7.95366887703e-07
1.3358386771e-06
2.16731294772e-06
3.26830707624e-06
6.81424736795e-08
1.21410534835e-08
2.25684194357e-08
1.73053725437e-08
2.04467408214e-08
4.05820293843e-08
8.91836572068e-08
1.8145371051e-07
2.87830015731e-07
3.43408311852e-07
3.54950983907e-07
3.39630472346e-07
3.19237436055e-07
3.34132507258e-07
4.38566236773e-07
6.7399711459e-07
1.04498930341e-06
1.63744999406e-06
2.41662616146e-06
3.15576506238e-06
8.80818332258e-08
3.47049705373e-08
1.81959691528e-08
1.59838410419e-08
1.29592865844e-08
1.52933316779e-08
2.8225336679e-08
5.9099524924e-08
1.45718334558e-07
2.5044779824e-07
3.01939687037e-07
3.07071752018e-07
2.96490635801e-07
3.15072945669e-07
4.12251901212e-07
6.29686152217e-07
9.93424383799e-07
1.52264929128e-06
2.16566845582e-06
2.73431431838e-06
1.16366200449e-07
6.42571939007e-08
1.8311390927e-08
1.1740654837e-08
1.28078914109e-08
9.01492836399e-09
1.00070177638e-08
1.71384575685e-08
4.09269796992e-08
1.13089056528e-07
2.13361293608e-07
2.77472051461e-07
2.92231230062e-07
2.88468687801e-07
3.1008413302e-07
4.01992827095e-07
6.02349691395e-07
9.42474460183e-07
1.42611884149e-06
2.00328962559e-06
1.26307808811e-07
8.98774569759e-08
2.22553421163e-08
8.5340108197e-09
1.17212245937e-08
1.08230547522e-08
6.16736232621e-09
8.80217003876e-09
1.5656693774e-08
4.08396490064e-08
1.12892032383e-07
2.2518051757e-07
2.96759792296e-07
3.17537885466e-07
3.1262050703e-07
3.12462266769e-07
3.49932024111e-07
4.57487872441e-07
6.73039434457e-07
1.08408951218e-06
1.32919264866e-07
1.01579363213e-07
2.56869656382e-08
7.57732286113e-09
1.25400302937e-08
1.34981011794e-08
5.3825040878e-09
6.29164218765e-09
9.95054452336e-09
2.16420674793e-08
6.36457126684e-08
1.81416565603e-07
2.95073548787e-07
3.5261050707e-07
3.70730330953e-07
3.67238989411e-07
3.61488404929e-07
3.78273533839e-07
4.49147257712e-07
6.13403846245e-07
1.33068858708e-07
1.10386252284e-07
2.57296854646e-08
9.37949893038e-09
1.98467719736e-08
1.65572653266e-08
5.71697474473e-09
5.23764585089e-09
8.28457469296e-09
1.64471067102e-08
4.54233939824e-08
1.57726466403e-07
2.97754743095e-07
3.78253822047e-07
4.15650036525e-07
4.25258410783e-07
4.22430123482e-07
4.28431535734e-07
5.0577845928e-07
5.64934534962e-07
1.29358499398e-07
1.12287289424e-07
2.01746411179e-08
1.69162230527e-08
3.08980611554e-08
2.29996408637e-08
8.12309575047e-09
5.46740711969e-09
8.36353547329e-09
1.48884364592e-08
3.69988552972e-08
1.37937153994e-07
2.95893817125e-07
3.95544964609e-07
4.50925501744e-07
4.78218048615e-07
4.92414900363e-07
5.27956485934e-07
5.97602493292e-07
6.38288476365e-07
1.22964680566e-07
1.10697883494e-07
5.0064030408e-08
2.30771506576e-08
3.58286037388e-08
3.25443801491e-08
1.44731619779e-08
7.39640105099e-09
9.22476032359e-09
1.36827535049e-08
2.98062093759e-08
1.12917495142e-07
2.77487318751e-07
4.06168772888e-07
4.89502506106e-07
5.41291498908e-07
5.75961217367e-07
6.13638844103e-07
6.68188587794e-07
7.69356945742e-07
1.1270961126e-07
1.05840888645e-07
7.31880396269e-08
3.0307623477e-08
2.90159778074e-08
3.6154853256e-08
2.7086557364e-08
1.52838600919e-08
1.34799725645e-08
1.29276691353e-08
1.73337917762e-08
7.20412826036e-08
2.49595630765e-07
4.24850394471e-07
5.46695689316e-07
6.23399138236e-07
6.6948247827e-07
7.06849062052e-07
7.68834498957e-07
9.11292845194e-07
1.00907103394e-07
9.95134967655e-08
8.08983163727e-08
5.06894248782e-08
3.04583841669e-08
2.91058349068e-08
3.291222869e-08
2.8738297024e-08
2.34065038089e-08
1.7877716468e-08
1.4785698279e-08
3.57325210495e-08
1.89453447927e-07
4.29573998163e-07
6.13525853411e-07
7.35812289125e-07
8.03316205808e-07
8.50775716033e-07
9.51714183066e-07
1.16525304119e-06
9.08734427917e-08
9.36160783679e-08
8.42254723395e-08
6.27668985149e-08
3.55176772948e-08
2.86603737424e-08
2.9582156537e-08
3.15626699321e-08
2.91723312727e-08
2.32829460235e-08
1.7784628838e-08
2.11343631657e-08
1.02487078925e-07
3.36256169281e-07
5.85551362975e-07
7.70359898503e-07
9.06024643268e-07
1.01688711154e-06
1.19703270135e-06
1.46401842184e-06
)
;

boundaryField
{
    emptyPatch
    {
        type            empty;
    }
    minY
    {
        type            calculated;
        value           nonuniform List<scalar> 
19
(
1.93101017511e-05
1.9310086237e-05
1.9310074504e-05
1.93100746485e-05
1.9310081414e-05
1.93100926411e-05
1.93101056463e-05
1.93101182081e-05
1.93101308971e-05
1.93101462188e-05
1.9310166405e-05
1.93101917774e-05
1.93102205563e-05
1.93102501206e-05
1.9310280393e-05
1.93103157778e-05
1.93103624027e-05
1.93104306944e-05
1.93107606708e-05
)
;
    }
    maxY
    {
        type            calculated;
        value           nonuniform List<scalar> 0();
    }
    maxX
    {
        type            nutkWallFunction;
        blending        stepwise;
        value           uniform 0;
    }
    water_to_heater
    {
        type            nutkWallFunction;
        blending        stepwise;
        value           nonuniform List<scalar> 0();
    }
    procBoundary1to0
    {
        type            processor;
        value           nonuniform List<scalar> 
38
(
9.08887997438e-08
1.00102010149e-07
8.50593526309e-08
9.21059477146e-08
8.93919492881e-08
8.1275798875e-08
6.87795772383e-08
7.66579451757e-08
7.10939616195e-08
1.06050843477e-07
1.37971631183e-07
7.40347249147e-08
6.85245357262e-08
7.06951390324e-08
5.99714672528e-08
5.27369844744e-08
4.69322057421e-08
5.47347908797e-08
1.10273485748e-07
1.17900173479e-07
1.26270587964e-07
1.31399913215e-07
1.27836390677e-07
1.17500576591e-07
1.04948794208e-07
9.26459517769e-08
8.30310220638e-08
1.8070851038e-08
3.14382241414e-08
4.40582476188e-08
5.34396659228e-08
7.31352496414e-08
9.18866929718e-08
8.73820967521e-08
8.33655558408e-08
8.01974893629e-08
8.23339195532e-08
8.23339195532e-08
)
;
    }
    procBoundary1to2
    {
        type            processor;
        value           nonuniform List<scalar> 
20
(
8.55857608138e-08
9.01020858286e-08
8.62197537651e-08
6.76645792138e-08
4.05284144075e-08
2.88227669061e-08
2.66943367451e-08
2.82910221499e-08
2.82938482289e-08
2.46843638893e-08
2.01383636755e-08
1.89170907158e-08
4.67187100699e-08
2.01734890098e-07
4.79540557765e-07
7.4494664403e-07
9.71189861336e-07
1.21841444906e-06
1.60423264492e-06
2.04555109612e-06
)
;
    }
    procBoundary1to3
    {
        type            processor;
        value           uniform 7.72290883969e-08;
    }
}


// ************************************************************************* //
