/*--------------------------------*- C++ -*----------------------------------*\
| =========                 |                                                 |
| \\      /  F ield         | OpenFOAM: The Open Source CFD Toolbox           |
|  \\    /   O peration     | Version:  2312                                  |
|   \\  /    A nd           | Website:  www.openfoam.com                      |
|    \\/     M anipulation  |                                                 |
\*---------------------------------------------------------------------------*/
FoamFile
{
    version     2.0;
    format      ascii;
    arch        "LSB;label=32;scalar=64";
    class       volScalarField;
    location    "0.175/water";
    object      k.gas;
}
// * * * * * * * * * * * * * * * * * * * * * * * * * * * * * * * * * * * * * //

dimensions      [0 2 -2 0 0 0 0];

internalField   nonuniform List<scalar> 
1497
(
0.0548693262617
0.0372615297461
0.0269446633665
0.020484196286
0.0161033974985
0.0128989200281
0.01031406335
0.00810012632494
0.0062509240871
0.00481815326043
0.00376862841785
0.00303690539449
0.00254297676343
2.87850350779
1.20347908244
0.597929199283
0.337972121883
0.205843481049
0.12880243459
0.0820744855765
0.0539779222285
0.0372923617785
0.027350426809
0.0210623972163
0.0167360722141
0.013547648982
0.0109802747748
0.00878577635146
0.00696028974233
0.00555772087557
0.00449403956461
0.00367891500943
0.00300344651262
3.0705666875
1.18087825807
0.572370969026
0.317527409859
0.190325783383
0.118985676318
0.0770209573756
0.0517843710872
0.0365793074741
0.0273557077826
0.021397432377
0.0171922345517
0.0140247967588
0.0114165928581
0.00921041890848
0.00748850517371
0.0062133563096
0.0051742125858
0.00425594825843
0.00336935713412
3.19129406998
1.2101015091
0.565347082753
0.299575694782
0.174192269387
0.108312022251
0.0710170623594
0.0488374722256
0.035353963114
0.0269676988311
0.021373031897
0.0172929307477
0.0140548494251
0.0114307974904
0.00942248180583
0.00794058880039
0.00679253654767
0.00573994703407
0.00468141462158
0.00356717254606
3.14740375928
1.1953674379
0.54984409274
0.282244230246
0.160165245462
0.0990158440076
0.0656142147697
0.0460155340893
0.0339633056134
0.026196223729
0.0208357634169
0.0167821033593
0.0136209406048
0.0113001620566
0.00961428673127
0.00834184779724
0.00723442283936
0.00610218767752
0.00487425275919
0.0035186842373
3.03491109557
1.16775758566
0.533622642965
0.269050623825
0.150624920312
0.0930039676733
0.0620172814594
0.0437775725177
0.0323446158626
0.0248811091581
0.0197285199659
0.0159024942434
0.013137308036
0.0112075112064
0.00978629367556
0.00860051522257
0.00743771940547
0.00617319942166
0.0047680889192
0.00318701730329
2.8217711986
1.10185167583
0.506879552464
0.258541116975
0.146310912643
0.0905055186529
0.0598083299145
0.041605677835
0.0303422837146
0.0232050867226
0.0184493252408
0.0150818285294
0.0127650413466
0.0111276496181
0.00981269951755
0.008585468163
0.00730596859742
0.00589818512052
0.00432720540056
0.00258258778814
2.43521581515
0.985773194325
0.476815569034
0.254769744373
0.146858316163
0.0897441993128
0.0577481325067
0.03927158924
0.0283139605196
0.0216330073814
0.0173625285872
0.0144485925345
0.012426331212
0.0108843825129
0.00953649797161
0.0082088847763
0.00680516795784
0.00526446729131
0.00355587092096
0.001747200307
2.00645660138
0.914025531421
0.48037216135
0.267014145195
0.152683603594
0.0904943976567
0.0564270458828
0.0375156119259
0.0267453817755
0.0204132889804
0.0164868105532
0.0138299725356
0.0118992872883
0.0103343659951
0.00890604524509
0.00747576712881
0.00596453092964
0.00430791080409
0.00249562163376
0.000940606691984
1.82554152671
0.97954044327
0.543591551762
0.302048917181
0.16719055662
0.0948230759888
0.05688849676
0.0367165662814
0.025677221801
0.0194195330875
0.0156097072056
0.0130232529791
0.011084985039
0.00946283922219
0.00796222295259
0.00646224889323
0.00486715339858
0.00312230543115
0.00146089316864
0.000491649377011
2.22341514846
1.24900523917
0.683382057591
0.361539559477
0.191476657519
0.10554053013
0.0615552946526
0.0382614939702
0.0257329381459
0.0188526861561
0.0147960940326
0.0121084425866
0.010107621212
0.00844039501181
0.00690107276836
0.00534098572573
0.00366657992787
0.0019674267097
0.000843986770975
0.000384679881894
3.27205298658
1.73006775456
0.853284559541
0.428317545366
0.226329007319
0.127332935051
0.074820237841
0.0452435646354
0.0285585269795
0.0194475019607
0.0144088923031
0.0113467565879
0.00922835179954
0.00753328426368
0.00596432799255
0.00433445641532
0.00262504251799
0.00128989471143
0.000591718001454
0.000403393054056
4.78332390613
2.13079450266
0.975338269506
0.483615001946
0.261829591911
0.153473628955
0.0939318821993
0.0581540316454
0.0354862228262
0.0219505466907
0.0148400819716
0.0110141067543
0.00868105146801
0.00692281499616
0.00529430471276
0.00358433884151
0.00192898707198
0.000923850250055
0.000593484222636
0.000415040861437
5.5923122402
2.2496392825
1.02416544728
0.51733054301
0.287613445473
0.176520306885
0.113112135658
0.0724112687965
0.0442935508446
0.0256568740392
0.0160153700568
0.0111488259375
0.0084863456693
0.00660594160114
0.00488448408304
0.00309184094347
0.00155485734571
0.000802407568846
0.000614860735759
0.000419367102989
5.65877039278
2.31545112496
1.03824366614
0.525287981598
0.30107847143
0.193899510635
0.13076616044
0.0867183744016
0.0531822841389
0.0287605667087
0.0173245155436
0.0115275309607
0.0085013281082
0.00646858629389
0.00463591712605
0.00276021310261
0.00129763018408
0.000856728524356
0.000618822993773
0.000424699022272
5.63876381759
2.32060075002
1.02763486613
0.519639020289
0.307943341862
0.206909476088
0.145763210004
0.100085745939
0.0622245335797
0.0309765681342
0.0182405845442
0.0119366730049
0.00858635832987
0.00639721178169
0.00445729364354
0.00252023177374
0.00112900062539
0.000892392829893
0.0006220816639
0.000435162265098
5.66355482106
2.31543538862
1.0144124554
0.514019955346
0.31184496841
0.216383926686
0.157781673371
0.112082359827
0.0708723075388
0.0327491140178
0.0187389008171
0.0122582197041
0.00866527328589
0.00632010646761
0.00428130343779
0.00230556604847
0.00101883178338
0.000886619819905
0.000625432279781
0.000451910699309
5.75276808244
2.32393004735
1.00732575465
0.509654734531
0.314091201088
0.22313067703
0.166938789176
0.121787515968
0.0784758187442
0.034381859556
0.0191211258574
0.0124982665115
0.00872244356567
0.00621082393798
0.00407197908978
0.00207349156823
0.000952740137104
0.000865037180481
0.000639885110313
0.000476015427373
5.88926006429
2.35828262996
1.00971820827
0.508707782342
0.316630234326
0.228632941798
0.174018225299
0.129095632306
0.0843316151927
0.0359977661682
0.0196852909341
0.0127684774028
0.00878610391191
0.00607591272355
0.00382632118144
0.00182711225469
0.000911444318188
0.000854077312931
0.00066989502734
0.000511636215631
6.0661621071
2.4152521871
1.0255173042
0.514089883596
0.321384072004
0.233986010813
0.179538941778
0.133831243246
0.0870594609193
0.0378188763202
0.0206394287993
0.0132026991757
0.00891246724913
0.00594046509995
0.00356372596721
0.00159958156863
0.000883654322356
0.000861568431616
0.000720800097404
0.000560378768047
6.24467353338
2.49222806814
1.05482950426
0.527490945317
0.329373731159
0.239820261573
0.184081764368
0.136294815972
0.0858280866833
0.0400682983763
0.0221173792089
0.0138952086981
0.00915397651356
0.00583987574673
0.00331610162824
0.0014350517529
0.000873677124516
0.00089040519447
0.000791724763678
0.000620534338528
6.40936887829
2.57298355995
1.09514375851
0.548814903445
0.340907088663
0.24651578928
0.188303298026
0.138565819326
0.083193516338
0.0421592296106
0.0237939866137
0.0148056435088
0.00952876710092
0.00580792518995
0.00311604060149
0.00136199661892
0.00089598915345
0.000939395903124
0.000880621515751
0.000682494331898
6.52490651662
2.65072404551
1.14001345021
0.575634501223
0.355687907353
0.254460830557
0.192747014928
0.140987148563
0.0822726199717
0.0441711067498
0.0254440106605
0.0157561189865
0.00993268521221
0.00581881295861
0.0029902248924
0.00138584314172
0.000952994487477
0.00100845189885
0.000981819645234
0.000741548032845
6.59606757649
2.70254108976
1.18056447927
0.603801493769
0.371029412964
0.261636768359
0.195522152253
0.141497787252
0.0821493135962
0.0456474616905
0.0267897817635
0.0165959286624
0.0103013908626
0.00583257811898
0.00291332657801
0.00148193644129
0.00103798010909
0.001092406624
0.00108849507818
0.000803314461066
6.63073499502
2.72753824379
1.20665879156
0.62435268432
0.38205094377
0.265485314429
0.194917636113
0.138221066255
0.0804637732334
0.0460180127673
0.0275461485786
0.0171431941408
0.0105314230975
0.00581097392555
0.00288924417237
0.00161730445564
0.00113337977439
0.00118637211552
0.00118795710358
0.000855812036877
6.67300309784
2.72808295991
1.21629627985
0.634248197748
0.386713646762
0.264993774378
0.190403203238
0.129731211901
0.076450194339
0.0450964225781
0.0275570537862
0.0172636384711
0.010521337809
0.00569824802287
0.00289872221716
0.00177290763995
0.00122096506496
0.0012846898127
0.00126745895431
0.000883475696496
6.74581204302
2.72285878782
1.22101089808
0.637399169034
0.386829196584
0.261170937742
0.182654795358
0.117471519128
0.0711165779228
0.0432085269824
0.0268694857248
0.01692178363
0.0102172722527
0.00547271849452
0.00292596651261
0.00183926908797
0.0013108677615
0.00138282771055
0.00131182510306
0.000879678956065
6.88385311834
2.72694275438
1.22647221611
0.642027740697
0.386580308746
0.255784471913
0.171093136998
0.107319852215
0.0661102661197
0.0409486134235
0.0257177185978
0.0161976233013
0.00963909908033
0.00517885925204
0.00296439928979
0.0017836812477
0.00139852057096
0.00146339464584
0.00130294688604
0.000845271911791
7.0812403725
2.7578426521
1.24710279388
0.654135116457
0.389424720999
0.250011653514
0.159868275885
0.100562152196
0.0626025010013
0.0389799532341
0.0244515371231
0.0152492645986
0.00888572782358
0.0048995323951
0.00293757122987
0.00172662719596
0.00149579202271
0.00151192912175
0.00124023323131
0.000793601833071
7.31074712432
2.83104459124
1.30140237796
0.68915804529
0.404951262048
0.250813760854
0.158154037883
0.0989914143902
0.0614192954299
0.037860537099
0.0233968279272
0.014235666473
0.00812165433707
0.00465758989294
0.00265108081898
0.00175146026548
0.00159688148204
0.00151059216233
0.00116011404851
0.000741540022809
7.23196789006
2.9197748252
1.40890247053
0.757218118863
0.438719905513
0.267290579473
0.165385251176
0.102313380373
0.0625884670392
0.0377978820114
0.0227090954164
0.0132804632577
0.00751281513369
0.00435997294008
0.00239167306247
0.00184884244459
0.00167271840614
0.00146209394739
0.00109397202914
0.000698804246001
6.37605958598
2.89546784767
1.48393719386
0.820819466138
0.477987441639
0.288035753174
0.175986429998
0.107566059396
0.0648342861179
0.0383313525685
0.0222332479412
0.0124856410207
0.0070639009232
0.00382473919397
0.00233840878949
0.00198141118175
0.00171441330898
0.00143314482215
0.00106040380687
0.000669420409151
5.14950761155
2.60208359893
1.41005635423
0.813187080986
0.48591999095
0.295137304923
0.180475406019
0.110031085743
0.0658983981525
0.0383994049196
0.0215883822211
0.0118817581473
0.00658020251751
0.003407601983
0.00244821396198
0.00211477290983
0.0017866197583
0.0014736198829
0.00106131201366
0.000654263293119
4.47352927065
2.22744685398
1.23328372524
0.735918218745
0.452959270238
0.280620302869
0.173956205996
0.106943411631
0.0642600888631
0.0372195432756
0.0206080500855
0.0113366641418
0.00586628868668
0.00331713313647
0.00266447045321
0.00231328452944
0.0019687568184
0.00158345421302
0.00108529351446
0.0006474834833
4.1915758835
1.95634636478
1.05619588137
0.630941351885
0.395084809421
0.250284145749
0.158242557753
0.0986852310815
0.0598441329804
0.0347283047677
0.0193874479977
0.010661081322
0.00533451527368
0.00352867300762
0.00301907219269
0.00267333913353
0.00227082497304
0.00172540301737
0.00110577907604
0.000645485733314
3.89202192762
1.69339471634
0.878387218006
0.519453226121
0.32935301148
0.213195739749
0.137572136149
0.0871381082478
0.0534667024608
0.0313448019581
0.0179772862799
0.00977097859996
0.00527553830223
0.00403697036821
0.00360001587402
0.00320898868622
0.00262417781708
0.00184295036643
0.00113320252116
0.000647842581472
3.71179704625
1.4729768654
0.725924368224
0.420374093322
0.268215622852
0.17674174935
0.116039453945
0.0745309410561
0.0463055997034
0.0276930288384
0.0164236736368
0.0090445614279
0.00574077825375
0.00486105276192
0.00440167209442
0.00381161932149
0.00292978761857
0.00196735804783
0.00116340495881
0.000651001637923
3.75486774504
1.36092163411
0.627130054121
0.348099113768
0.220398569993
0.14648883973
0.0971458111105
0.063021205342
0.0396214511494
0.0244213864819
0.0150411132261
0.00898825562574
0.00673959221478
0.00595119871863
0.00525543764262
0.0043269566562
0.00322126630631
0.00207288000469
0.00119561649414
0.000655225238411
0.00206351877536
0.00149777312911
0.000884527560076
0.000362642181953
0.000120918951927
9.08875213065e-05
0.00010422123164
0.000123188814759
0.000112905102694
7.89247282104e-05
5.20987317278e-05
8.84316464493e-05
0.00110497638327
0.00443656027964
0.00863211722021
0.0129204610485
0.0165443023415
0.0189276639882
0.0201988235655
0.0209151539891
0.0022992963061
0.00154093723715
0.000789475769398
0.000266922517581
0.000100630404954
9.3686885858e-05
0.000111384619613
0.000133360026192
0.000122942911342
8.57875672007e-05
6.57284075298e-05
9.07289437474e-05
0.00116523239939
0.00458853786827
0.00876607977473
0.0130663236585
0.0168045321622
0.019309498222
0.0206536678959
0.0212087566711
0.00242519103312
0.00145567115279
0.000606022765496
0.000175234281437
9.68050989945e-05
9.87385392639e-05
0.000116466814684
0.000137812559668
0.000125525247088
8.75147889951e-05
7.21393446357e-05
0.000102800077951
0.00122492607594
0.00466712280226
0.00877197878258
0.013036700376
0.0169174907092
0.0196614853199
0.0211754676594
0.0220364293078
0.00236424015583
0.00120462694075
0.00040423037769
0.000122811236726
9.78761555583e-05
0.000103693723022
0.000119959770962
0.00013865530603
0.000121589017669
8.69127926393e-05
7.39775132721e-05
0.000125016256219
0.00129751542441
0.00463586873866
0.00858852193621
0.0127548121982
0.0167508566011
0.0199538126457
0.021667136695
0.0228266908877
0.00208094230628
0.000865606148102
0.000226599962896
0.000112167377036
0.000101407632139
0.000105895472474
0.00012149575791
0.000136328321636
0.000117530420861
9.47563325547e-05
7.45694772001e-05
0.000149618012575
0.00136670905924
0.00452303852119
0.00825846864014
0.0122695790294
0.0162886945738
0.0200874937956
0.0221345867254
0.0234668725117
0.00161568806896
0.000495087505063
0.000152536393995
0.000112221314417
0.000104146775999
0.000106948198726
0.000120770092055
0.000131052676686
0.000113290612565
9.91643826741e-05
7.45933279431e-05
0.000172104159893
0.0014188453825
0.00438427059362
0.00790446863943
0.0117543087948
0.0157292625302
0.0200329127644
0.022589250479
0.0239906767893
0.00101629866051
0.000254844556189
0.000137376975755
0.000115849839125
0.000104661302666
0.000107830480502
0.000117816771984
0.000123380233495
0.000109205560359
9.7332650841e-05
7.2738131709e-05
0.000191500246077
0.00145389831726
0.00426055504374
0.00762406394072
0.0113599558638
0.0153384539427
0.020019964771
0.0230428096432
0.0244385656256
0.000499923876366
0.000184077168538
0.000140585616723
0.0001172078482
0.000104438179241
0.000108582688062
0.000112819627341
0.000116113211683
0.000104741920523
9.2247546218e-05
6.96798096285e-05
0.000203949842403
0.00147726441787
0.00417947851317
0.00746374620677
0.0111619828588
0.0153023110178
0.0203093366902
0.023504742229
0.024859242593
0.000276864756934
0.000184419180333
0.000143457368798
0.000117150583749
0.000104170481711
0.000108886700864
0.000106943328792
0.000108978221631
9.96247162795e-05
8.28991801111e-05
6.53329547852e-05
0.000208726265444
0.00150557244182
0.0041849292177
0.00748167084077
0.011210538166
0.0154851362936
0.020781930685
0.0239790329837
0.0252913221909
0.000255243080345
0.000191727134786
0.000144140578828
0.000116489639811
0.000104150415847
0.000108067501818
0.000101827388872
0.000102061241782
9.29793383267e-05
7.37697132974e-05
6.04885460415e-05
0.000214265960061
0.00157268961601
0.00430251616182
0.00762943815581
0.0114029651343
0.0160584641894
0.0215510086331
0.024464593627
0.0257573179621
0.00027030647889
0.000194821184091
0.000144093408862
0.000115218142711
0.000104604208009
0.000105131992516
9.68715690214e-05
9.5328214692e-05
8.55100149119e-05
6.65070926689e-05
5.51101407317e-05
0.00022987505696
0.00168780134765
0.00450123481476
0.00793512807451
0.0119920073323
0.0172761119832
0.0222050532657
0.0249553270729
0.0262636790667
0.00027705448684
0.000196974961875
0.000143314057495
0.00011330967062
0.000105298221337
9.98398736951e-05
9.19968138625e-05
8.85584081388e-05
7.73411068283e-05
5.95183566366e-05
4.95194628072e-05
0.000256802190844
0.00186667321666
0.00487225837059
0.00859919171737
0.0132358176606
0.0184212461852
0.0225140927417
0.0254411825445
0.0268073033445
0.00028189652892
0.000198930173985
0.00014136358897
0.000111111886538
0.000104872290469
9.41066269487e-05
8.77786070426e-05
8.17974405243e-05
6.83762021852e-05
5.34954925728e-05
4.38597517697e-05
0.000308406693109
0.00216222106631
0.00548442556092
0.00971318344127
0.0145742535655
0.0188139767905
0.0227432327348
0.0259120429185
0.027382613166
0.000287796657526
0.000200530674782
0.000137768804985
0.000108986977895
0.000101544121617
8.9924367677e-05
8.42176633205e-05
7.5204571067e-05
5.91140189238e-05
4.8495027565e-05
3.99021552949e-05
0.000408609979054
0.00260986445726
0.00636572452106
0.0109627492435
0.01518003905
0.0189779636113
0.0229499154791
0.0263596737026
0.0279835763366
0.000295368323258
0.000202065554432
0.000132803916992
0.000106450281396
9.57672786457e-05
8.73791887546e-05
8.11659238957e-05
6.8932061794e-05
5.00150386474e-05
3.98655985362e-05
4.05021763329e-05
0.000586441644813
0.00325053039987
0.00741788657994
0.0117318708436
0.0154138514958
0.0191313592705
0.0231366803832
0.0267785444795
0.028603823168
0.000306206710591
0.000202134723213
0.000128301057182
0.000102155264863
9.04019561251e-05
8.60321589783e-05
7.91756961111e-05
6.30664167852e-05
4.12874832771e-05
2.98832858245e-05
4.90546980568e-05
0.000868808027999
0.00404447544719
0.0082342374185
0.0120550688373
0.0156073266233
0.019276112513
0.0233062576677
0.0271667769223
0.0292372370402
0.000319060972839
0.000198714389269
0.000124839865275
9.64454454922e-05
8.6863478224e-05
8.58290000134e-05
7.8193044198e-05
5.75547120095e-05
3.46886718963e-05
2.33937878725e-05
7.05555355435e-05
0.00122877228609
0.00469989739412
0.00861773782297
0.0122785816015
0.0157805495179
0.0194070572986
0.0234584177097
0.0275262012987
0.0298799289629
0.00033331843076
0.000194078173603
0.000120951660138
9.13764576868e-05
8.52506118166e-05
8.68114680271e-05
7.8222416233e-05
5.25633886962e-05
3.35717038025e-05
2.27967684937e-05
0.000105511971081
0.00152460547363
0.00502821079614
0.00884584143923
0.0124693517757
0.0159297980837
0.0195208555952
0.023593260006
0.0278607183996
0.0305330082251
0.000343754381441
0.000192504478189
0.00011692066188
8.82344686352e-05
8.54079716295e-05
8.873369296e-05
7.92096413597e-05
4.86391209922e-05
2.71164267592e-05
2.83703978779e-05
0.000138237918978
0.00168833483437
0.00522023567109
0.0090311853389
0.0126296348587
0.0160559282782
0.0196173450182
0.0237116355378
0.0281762562205
0.03120501723
0.000349914457368
0.000194685189414
0.000114491521957
8.69573658341e-05
8.63925484597e-05
9.10257225138e-05
8.16356285314e-05
4.81126113396e-05
2.47041903172e-05
3.36739753767e-05
0.000160240531473
0.00179877494685
0.00537216812735
0.00918598175289
0.0127673162624
0.0161659230949
0.0197009052591
0.0238162462709
0.0284794871461
0.0319123703552
0.000364509968596
0.000200234459784
0.00011465031719
8.6978834227e-05
8.72108739771e-05
9.34509779006e-05
8.51797891963e-05
5.05863305778e-05
2.55142112045e-05
3.51928075766e-05
0.000179446693984
0.00189655175526
0.00550484085687
0.00932724700042
0.0128983364191
0.0162728607765
0.0197806777952
0.0239125021846
0.0287768082004
0.0326754127606
0.000390855481586
0.000209230782973
0.000116825674951
8.76523752647e-05
8.81721397166e-05
9.60581484493e-05
8.97791633861e-05
5.49629316704e-05
2.773238534e-05
3.73179148059e-05
0.000200981322088
0.00199725976308
0.0056401380974
0.0094763134159
0.0130405957703
0.0163907132679
0.0198666495181
0.0240062588553
0.0290721306405
0.0335104863358
0.000422856496595
0.000220498985614
0.000120438092014
8.88604269425e-05
8.95829638632e-05
9.87983017389e-05
9.50739116229e-05
6.11280310498e-05
3.18484811929e-05
3.93930227814e-05
0.000227922672559
0.00211410816505
0.00579755891368
0.00965066561527
0.0132077827433
0.0165297974795
0.0199663513264
0.0241017547252
0.0293656400839
0.0344253216688
0.000454445903323
0.000232128301458
0.000124650439512
9.05105913986e-05
9.14650355209e-05
0.000101816159741
0.000100033368907
6.81735372792e-05
3.8077396232e-05
4.06555796407e-05
0.000263582247552
0.00225875755843
0.00599233741542
0.00986292723763
0.0134090403799
0.0166967594771
0.0200849445062
0.0242019888535
0.0296546873161
0.0354188331162
0.000477860366565
0.000241227970262
0.00012834006212
9.2619265889e-05
9.40603607386e-05
0.000105453827747
0.000105073781049
7.48813125933e-05
4.45005363208e-05
4.09791875352e-05
0.000311332516269
0.00244124116795
0.00623566728993
0.0101211309597
0.0136492390224
0.0168947982233
0.0202253881662
0.0243091787793
0.0299350962675
0.0364811168844
0.00048798316643
0.000245658086451
0.000130891426758
9.51269516696e-05
9.7667028679e-05
0.000110013860873
0.000110623708033
8.06362826024e-05
4.94747924557e-05
4.20549590701e-05
0.000373851965361
0.00266856296015
0.0065332580429
0.0104275395108
0.0139282104359
0.0171231755221
0.0203880035981
0.0244245116286
0.0302019031297
0.0375929527792
0.000483142697694
0.000244568313397
0.000132013366512
9.80518146921e-05
0.000102481218018
0.000115629614915
0.000116724380117
8.53626718074e-05
5.41573990345e-05
4.58348522332e-05
0.000455455860531
0.00294390393738
0.00688464077695
0.0107782769029
0.0142407768124
0.0173773682787
0.0205704455053
0.0245478935907
0.0304497920015
0.0387260064847
0.000465623973082
0.000238714559713
0.000132030060129
0.000101579469286
0.000108584745196
0.000122397315294
0.000122639053444
8.76759625037e-05
5.77194553014e-05
5.35160643872e-05
0.000561605802405
0.00326663682365
0.00728280663546
0.0111634891754
0.0145772534402
0.0176495860265
0.0207679431778
0.0246777974137
0.0306734645918
0.0398440883083
0.000441276724712
0.000230288594306
0.000131847022496
0.00010593319392
0.000115913197029
0.000130640658486
0.000127275948753
8.69650223184e-05
5.73697450544e-05
6.7550013833e-05
0.000701870008245
0.00363039517133
0.00771305465936
0.0115674806613
0.0149241300851
0.0179295350819
0.020973821934
0.024811311123
0.0308679774393
0.0409060300787
0.000416133993781
0.00022179266093
0.000132306247234
0.000111120930076
0.000124220645066
0.000140688602274
0.000131382122603
8.34682696273e-05
5.49190939181e-05
9.32634772183e-05
0.000872980612187
0.00402058308989
0.00815423107192
0.0119710259015
0.0152664988248
0.0182064645305
0.0211809637048
0.0249448928547
0.0310293518314
0.0418707136806
0.000394544129444
0.000215111393863
0.000133798618605
0.000116952446922
0.000133129722239
0.000152647853766
0.000135168509241
8.24116731717e-05
5.87781686534e-05
0.000129383583656
0.00107062577633
0.00441820993333
0.00858405435617
0.0123564482183
0.0155918803087
0.0184718292434
0.0213836287524
0.0250755637723
0.0311554684139
0.0427027573516
0.000379103246985
0.000211211749306
0.000136245535224
0.000123169895206
0.000142518061559
0.000164587865394
0.000139086468555
9.54425008689e-05
7.38697204549e-05
0.000170337104974
0.00128412720379
0.00480562809409
0.0089846971729
0.0127114494502
0.015892580273
0.0187206491882
0.0215782923502
0.0252015127279
0.0312464689108
0.0433760614261
0.000369923142205
0.00020975795913
0.000139107918642
0.00012967141334
0.000152415439013
0.000175200830768
0.000143637681438
9.05595775945e-05
9.52544069195e-05
0.000214036164153
0.00149747670676
0.00516341080692
0.00934472020509
0.0130303573121
0.0161659323452
0.0189513391177
0.0217634669031
0.0253220335939
0.0313044551031
0.0438741447208
0.000364713854701
0.000209066072731
0.000141821973761
0.000136351347881
0.000162577695923
0.000186689309656
0.00014899921058
8.72786667999e-05
0.000112731306446
0.000259914786552
0.00169402947068
0.00547822022818
0.00966051269024
0.0133132088167
0.0164130511198
0.0191646683505
0.0219389853888
0.0254370150742
0.0313326601
0.0441882781386
0.000360061029384
0.000207373569419
0.000143941241689
0.000143093438169
0.000173117559999
0.000198987427341
0.000154667815218
9.04227936412e-05
0.00012302650278
0.00030617459768
0.00186669094277
0.00574905705607
0.00993444904875
0.013563472931
0.0166370382765
0.0193624945561
0.0221051640793
0.025546301484
0.0313344178525
0.044314891769
0.000353030336424
0.0002037264696
0.000145220979747
0.000150291396062
0.000184864357424
0.000211876480885
0.000159785411247
9.9745969797e-05
0.000129053816971
0.0003514717169
0.00201733568831
0.00598008632413
0.0101709205751
0.0137852448312
0.0168409531809
0.0195463732594
0.0222618086912
0.0256488712822
0.031312251532
0.0442544459509
0.000344696317356
0.000198150294887
0.00014606427332
0.000158971427961
0.000198349401752
0.00022387734685
0.000165740590472
0.000115489711952
0.00013514896403
0.000396954259252
0.00215077456307
0.00617464679218
0.0103724988348
0.0139805807186
0.0170259924338
0.019716357875
0.0224072946892
0.0257417674891
0.0312663784129
0.0440115785977
0.000338391074777
0.000191985515579
0.000147165911964
0.000169839171551
)
;

boundaryField
{
    emptyPatch
    {
        type            empty;
    }
    minY
    {
        type            fixedValue;
        value           nonuniform List<scalar> 0();
    }
    maxY
    {
        type            inletOutlet;
        inletValue      nonuniform List<scalar> 0();
        value           nonuniform List<scalar> 0();
    }
    water_to_cooler
    {
        type            kqRWallFunction;
        value           nonuniform List<scalar> 
37
(
0.0209151539891
0.0212087566711
0.0220364293078
0.0228266908877
0.0234668725117
0.0239906767893
0.0244385656256
0.024859242593
0.0252913221909
0.0257573179621
0.0262636790667
0.0268073033445
0.027382613166
0.0279835763366
0.028603823168
0.0292372370402
0.0298799289629
0.0305330082251
0.03120501723
0.0319123703552
0.0326754127606
0.0335104863358
0.0344253216688
0.0354188331162
0.0364811168844
0.0375929527792
0.0387260064847
0.0398440883083
0.0409060300787
0.0418707136806
0.0427027573516
0.0433760614261
0.0438741447208
0.0441882781386
0.044314891769
0.0442544459509
0.0440115785977
)
;
    }
    water_to_heater
    {
        type            kqRWallFunction;
        value           nonuniform List<scalar> 
60
(
2.87850350779
2.87850350779
3.0705666875
3.0705666875
3.19129406998
3.19129406998
3.14740375928
3.03491109557
2.8217711986
2.8217711986
2.43521581515
2.43521581515
2.00645660138
2.00645660138
1.82554152671
2.22341514846
3.27205298658
3.27205298658
4.78332390613
4.78332390613
5.5923122402
5.5923122402
5.65877039278
5.63876381759
5.66355482106
5.66355482106
5.75276808244
5.75276808244
5.88926006429
5.88926006429
6.0661621071
6.24467353338
6.40936887829
6.40936887829
6.52490651662
6.52490651662
6.59606757649
6.59606757649
6.63073499502
6.67300309784
6.74581204302
6.74581204302
6.88385311834
6.88385311834
7.0812403725
7.0812403725
7.31074712432
7.23196789006
6.37605958598
6.37605958598
5.14950761155
5.14950761155
4.47352927065
4.47352927065
4.1915758835
3.89202192762
3.71179704625
3.71179704625
3.75486774504
3.75486774504
)
;
    }
    procBoundary1to0
    {
        type            processor;
        value           nonuniform List<scalar> 
41
(
3.91642131949
1.35887934619
0.58862053283
0.308765472609
0.190611812876
0.125815588159
0.0832405307293
0.0541375078509
0.0344671423311
0.0221298108609
0.0143735436754
0.00984128510186
0.00807207420797
0.00705524257498
0.00595506555186
0.00476397721017
0.00344174071445
0.00216046983847
0.00122949793004
0.000654262868044
0.000211683217155
0.000232793277667
0.000177976048185
0.000138130479549
0.000144722507778
0.00044427504421
0.00227042173354
0.00633359824082
0.0105395345755
0.014149783202
0.0171922950204
0.0198722014677
0.0225407953248
0.0258243412193
0.0312024669616
0.0436071901205
0.000320447132978
0.000180553067891
0.000148597238233
0.000211683217155
0.000181122801947
)
;
    }
    procBoundary1to3
    {
        type            processor;
        value           nonuniform List<scalar> 
41
(
0.0546185272979
0.036659871513
0.026292718403
0.0198215898527
0.015441057399
0.0122231650429
0.00959862320701
0.00733129668823
0.00545228548621
0.00403414001457
0.00303930201157
0.00240333681339
0.00205374305545
2.84312967709
1.23586344178
0.632818789713
0.363646469277
0.222987077381
0.136733564245
0.0851787225851
0.0851787225851
0.00175889869243
0.00136872450674
0.000887464170122
0.000432077061375
0.000151647144193
8.92356743064e-05
9.7144946789e-05
0.000110096887816
0.000102233709368
6.75902064028e-05
3.46771366095e-05
8.34611184306e-05
0.00104745861576
0.00429947246843
0.0084649241398
0.0126631900993
0.0161343878251
0.0184538296027
0.0198551843626
0.0210276891943
)
;
    }
}


// ************************************************************************* //
