/*--------------------------------*- C++ -*----------------------------------*\
| =========                 |                                                 |
| \\      /  F ield         | OpenFOAM: The Open Source CFD Toolbox           |
|  \\    /   O peration     | Version:  2312                                  |
|   \\  /    A nd           | Website:  www.openfoam.com                      |
|    \\/     M anipulation  |                                                 |
\*---------------------------------------------------------------------------*/
FoamFile
{
    version     2.0;
    format      ascii;
    arch        "LSB;label=32;scalar=64";
    class       volScalarField;
    location    "68";
    object      alpha.airMean;
}
// * * * * * * * * * * * * * * * * * * * * * * * * * * * * * * * * * * * * * //

dimensions      [0 0 0 0 0 0 0];

internalField   nonuniform List<scalar> 
1875
(
0.195785
0.18477
0.186519
0.193376
0.202134
0.210751
0.219575
0.229569
0.240326
0.248338
0.254621
0.259365
0.263258
0.268251
0.271646
0.271779
0.269249
0.261496
0.24987
0.236966
0.224962
0.217368
0.214009
0.21193
0.215483
0.143625
0.140791
0.143345
0.147566
0.153981
0.161684
0.170636
0.179797
0.188269
0.195535
0.201236
0.207161
0.214897
0.224705
0.23716
0.248319
0.254421
0.253395
0.245972
0.231679
0.21443
0.200136
0.191824
0.186407
0.17401
0.11936
0.13315
0.151371
0.160645
0.166769
0.171637
0.177346
0.182464
0.187755
0.192748
0.199014
0.205584
0.213458
0.222534
0.233437
0.244757
0.252229
0.255168
0.248952
0.236792
0.22196
0.207792
0.198393
0.187554
0.17067
0.103978
0.13269
0.172525
0.192796
0.200382
0.206169
0.210546
0.216782
0.221357
0.224979
0.229424
0.234239
0.239495
0.244416
0.250156
0.255366
0.260073
0.260387
0.254023
0.242155
0.229969
0.219545
0.210058
0.193097
0.171035
0.0990006
0.138205
0.188122
0.213209
0.221865
0.22502
0.228521
0.230382
0.233059
0.235732
0.239815
0.243896
0.246608
0.249254
0.250941
0.252696
0.252063
0.248573
0.2425
0.23544
0.228699
0.221638
0.210748
0.190571
0.170567
0.100895
0.145774
0.196343
0.224544
0.235359
0.23759
0.236948
0.236402
0.236134
0.238386
0.241257
0.243483
0.243947
0.242867
0.24192
0.239545
0.235519
0.232007
0.229855
0.228449
0.226562
0.220579
0.207488
0.187243
0.17613
0.102251
0.155005
0.199749
0.226178
0.242636
0.246093
0.243981
0.240511
0.2371
0.234484
0.232611
0.230913
0.228213
0.225059
0.222384
0.220945
0.219308
0.217774
0.217668
0.219891
0.21974
0.214309
0.201488
0.183853
0.175194
0.105493
0.164882
0.205206
0.232136
0.253372
0.256225
0.251292
0.243519
0.235487
0.227153
0.219486
0.212811
0.208811
0.206758
0.206132
0.205644
0.205039
0.204323
0.205998
0.209412
0.212134
0.208694
0.19714
0.182042
0.176667
0.107446
0.174528
0.210078
0.237121
0.257782
0.259159
0.250074
0.238352
0.227213
0.215879
0.206122
0.199012
0.193806
0.192047
0.191457
0.19075
0.190361
0.191022
0.19451
0.20139
0.207084
0.204351
0.193377
0.180902
0.175056
0.111137
0.18535
0.212316
0.235935
0.253117
0.255054
0.245652
0.233031
0.221267
0.209108
0.198274
0.189325
0.183447
0.180709
0.179972
0.180011
0.181141
0.183353
0.188675
0.19805
0.204146
0.201756
0.191714
0.181958
0.174339
0.118923
0.196334
0.211199
0.229425
0.243492
0.24772
0.241091
0.229933
0.217756
0.20518
0.193698
0.1849
0.178622
0.17558
0.175279
0.176961
0.179022
0.181453
0.187633
0.197215
0.202986
0.200737
0.1934
0.185263
0.172777
0.127067
0.195424
0.209981
0.222023
0.233161
0.238564
0.235613
0.226953
0.215855
0.20444
0.194226
0.185969
0.180402
0.17693
0.176878
0.179273
0.181966
0.184836
0.191262
0.199308
0.204137
0.201775
0.196679
0.18971
0.172561
0.132263
0.194586
0.208473
0.21647
0.225228
0.229474
0.22943
0.222655
0.213923
0.205235
0.197092
0.190323
0.184984
0.181953
0.181501
0.183506
0.186554
0.190412
0.196514
0.202676
0.20647
0.204365
0.200269
0.192405
0.171766
0.135429
0.195226
0.208538
0.214466
0.221403
0.22376
0.223947
0.219624
0.213153
0.206903
0.201063
0.196003
0.191508
0.187798
0.186636
0.188077
0.191419
0.195128
0.200129
0.20566
0.20917
0.208555
0.204096
0.191119
0.164733
0.135791
0.197982
0.210635
0.215529
0.219661
0.222098
0.22195
0.21803
0.213369
0.208928
0.204748
0.201056
0.197291
0.193514
0.191513
0.192008
0.194004
0.196699
0.20195
0.207568
0.210922
0.211
0.205694
0.18914
0.152937
0.136727
0.200571
0.21514
0.218629
0.221991
0.222823
0.22274
0.219451
0.215368
0.211988
0.208589
0.204912
0.202154
0.197977
0.195172
0.195253
0.196754
0.198477
0.202227
0.207434
0.210638
0.210002
0.204915
0.190007
0.147051
0.138537
0.20089
0.219457
0.223483
0.22546
0.226102
0.224422
0.221468
0.21798
0.215504
0.211969
0.207724
0.204083
0.2004
0.197624
0.197412
0.198563
0.199469
0.202125
0.206238
0.208599
0.208174
0.204338
0.193634
0.147325
0.142477
0.200394
0.223814
0.229273
0.231363
0.230094
0.227703
0.223512
0.220382
0.218215
0.214253
0.209512
0.205326
0.202121
0.199197
0.197696
0.198744
0.200011
0.202377
0.205415
0.207366
0.206731
0.20342
0.197561
0.148872
0.149359
0.199984
0.224934
0.233923
0.236601
0.234556
0.229736
0.224483
0.222011
0.220785
0.217386
0.213006
0.207729
0.203954
0.200447
0.198743
0.199205
0.200636
0.203067
0.205223
0.205793
0.20377
0.201565
0.198524
0.150053
0.160743
0.20048
0.22399
0.235858
0.239201
0.236196
0.231356
0.22652
0.224105
0.222917
0.220562
0.216012
0.210427
0.205867
0.202357
0.201548
0.202262
0.202758
0.203986
0.204674
0.204258
0.201469
0.200072
0.199169
0.149984
0.162404
0.201481
0.22112
0.234463
0.238998
0.236756
0.232567
0.228417
0.226267
0.224245
0.220371
0.216046
0.211979
0.208226
0.205628
0.20436
0.205307
0.204909
0.20495
0.204836
0.204056
0.200802
0.200827
0.2012
0.151058
0.16222
0.201648
0.218076
0.229884
0.235311
0.234903
0.231274
0.227996
0.225572
0.223154
0.219306
0.215441
0.21254
0.209979
0.207913
0.206865
0.20715
0.207172
0.206542
0.205659
0.205008
0.202279
0.203168
0.204194
0.150623
0.162721
0.201637
0.217341
0.225549
0.228582
0.228658
0.226836
0.225016
0.223734
0.221488
0.218749
0.2156
0.213499
0.211404
0.209542
0.208878
0.209006
0.208254
0.207214
0.207023
0.207571
0.204969
0.207153
0.205481
0.151238
0.162548
0.201832
0.216845
0.222643
0.222554
0.221168
0.220982
0.221334
0.221338
0.220611
0.218736
0.216146
0.214025
0.212165
0.210244
0.209814
0.2096
0.209951
0.209963
0.210231
0.210146
0.208606
0.212106
0.206778
0.149876
0.161977
0.200886
0.215912
0.221052
0.219184
0.216396
0.216772
0.217807
0.219217
0.219513
0.21879
0.216574
0.214665
0.212294
0.210797
0.210494
0.211233
0.213031
0.214617
0.215361
0.214624
0.211911
0.216606
0.207577
0.149705
0.158823
0.199539
0.215537
0.219897
0.217669
0.214279
0.213882
0.21546
0.217677
0.219159
0.218824
0.217491
0.21544
0.213274
0.21164
0.211769
0.213868
0.216984
0.219334
0.219859
0.218047
0.21478
0.217621
0.208327
0.14825
0.151762
0.199347
0.218104
0.21853
0.216656
0.214619
0.213811
0.214398
0.216818
0.219597
0.219964
0.218317
0.216637
0.214812
0.213632
0.21464
0.217912
0.221146
0.222863
0.222568
0.220359
0.217122
0.218851
0.209283
0.148497
0.144583
0.199878
0.219845
0.216008
0.21503
0.214545
0.215008
0.216053
0.218093
0.220812
0.221943
0.220898
0.219119
0.217929
0.217832
0.21903
0.221594
0.224071
0.225254
0.224741
0.222349
0.219774
0.219285
0.210035
0.147754
0.14062
0.201317
0.217931
0.212289
0.213089
0.214811
0.216376
0.218769
0.22107
0.223533
0.224617
0.224041
0.222177
0.22056
0.220869
0.221986
0.223176
0.224971
0.226218
0.225415
0.224031
0.221135
0.218972
0.209685
0.14864
0.14009
0.201917
0.215712
0.208941
0.211658
0.214746
0.217509
0.220096
0.223302
0.22552
0.227103
0.227125
0.22501
0.222203
0.221443
0.221951
0.223614
0.224277
0.225148
0.224661
0.224058
0.220945
0.217944
0.208275
0.149697
0.139318
0.20082
0.213633
0.206708
0.209754
0.213299
0.217907
0.222439
0.225266
0.226875
0.227795
0.227741
0.225678
0.222883
0.220896
0.22098
0.221781
0.222259
0.22244
0.222637
0.222263
0.219831
0.216047
0.206347
0.150823
0.138384
0.2005
0.212572
0.206051
0.209183
0.212899
0.218221
0.224197
0.227483
0.228386
0.22826
0.227548
0.225315
0.222884
0.221018
0.220701
0.220607
0.219752
0.219748
0.220017
0.220241
0.218699
0.214234
0.203614
0.151096
0.137946
0.200991
0.212374
0.207352
0.211012
0.215146
0.220743
0.225963
0.229044
0.229449
0.229055
0.227883
0.225834
0.223658
0.221841
0.220859
0.220015
0.21891
0.218413
0.218458
0.219011
0.21775
0.212915
0.201262
0.152014
0.138753
0.201488
0.213298
0.209526
0.21457
0.219432
0.224158
0.228211
0.230276
0.230357
0.22935
0.227669
0.225367
0.223644
0.222451
0.221418
0.219645
0.218217
0.217167
0.217101
0.217933
0.216968
0.211687
0.198976
0.1532
0.139055
0.20305
0.216259
0.213533
0.218598
0.223146
0.227159
0.229543
0.231352
0.231693
0.230587
0.227613
0.224672
0.222778
0.221634
0.220656
0.21916
0.217715
0.216644
0.216249
0.216982
0.215739
0.210531
0.197556
0.154294
0.140621
0.2059
0.219798
0.216768
0.222597
0.225776
0.228447
0.230289
0.23201
0.232342
0.231337
0.228277
0.224395
0.221716
0.220194
0.218968
0.218291
0.217668
0.216816
0.21657
0.216066
0.214428
0.210227
0.197059
0.156121
0.141576
0.208465
0.222591
0.21958
0.226212
0.228987
0.230092
0.231357
0.232347
0.232468
0.230824
0.227873
0.223665
0.220898
0.218781
0.21765
0.21781
0.217604
0.216766
0.21637
0.215277
0.213902
0.210715
0.198197
0.157187
0.143566
0.210385
0.224325
0.221868
0.228395
0.231285
0.232615
0.232383
0.232415
0.231366
0.229439
0.227048
0.223315
0.220413
0.218378
0.217797
0.218122
0.218088
0.217065
0.215948
0.21447
0.213697
0.212054
0.199499
0.158022
0.143882
0.210887
0.224244
0.223446
0.229056
0.231353
0.232496
0.232894
0.232222
0.230492
0.227659
0.225036
0.222476
0.220272
0.219146
0.218675
0.218655
0.2186
0.217307
0.215125
0.214099
0.214326
0.213453
0.200793
0.157642
0.14496
0.211067
0.224216
0.224442
0.229574
0.230716
0.230979
0.230781
0.230597
0.228883
0.226118
0.223325
0.221268
0.219806
0.219225
0.219232
0.219431
0.218616
0.217588
0.215232
0.214809
0.215464
0.215336
0.2015
0.15657
0.144688
0.211395
0.223856
0.225238
0.229915
0.230512
0.22977
0.228735
0.228373
0.227091
0.225085
0.222765
0.220785
0.219485
0.218744
0.219076
0.219318
0.21891
0.217794
0.216783
0.216527
0.216821
0.218418
0.202842
0.15507
0.145125
0.211173
0.223856
0.225204
0.229554
0.230264
0.229929
0.228683
0.227212
0.226093
0.224591
0.223048
0.221179
0.219784
0.218736
0.218717
0.219107
0.219362
0.219401
0.219078
0.218851
0.218638
0.223545
0.205194
0.153071
0.144177
0.21042
0.222853
0.224747
0.228998
0.229875
0.230366
0.229793
0.228099
0.22584
0.224182
0.223137
0.221975
0.220064
0.219284
0.219458
0.21966
0.219915
0.220514
0.220594
0.21994
0.219719
0.225367
0.209198
0.151599
0.143632
0.208808
0.221642
0.224418
0.228959
0.229867
0.230789
0.230335
0.228503
0.226055
0.224578
0.223682
0.222035
0.220783
0.220438
0.220318
0.219929
0.219893
0.220375
0.220338
0.22005
0.219426
0.225541
0.214279
0.150805
0.143629
0.207928
0.219927
0.223963
0.228277
0.230268
0.231579
0.230553
0.228804
0.227331
0.226028
0.224455
0.222693
0.221642
0.221396
0.221133
0.220727
0.22009
0.219872
0.219503
0.2197
0.218702
0.225101
0.218407
0.150236
0.144658
0.207599
0.219357
0.222842
0.228248
0.230966
0.232378
0.231007
0.229438
0.228375
0.227073
0.225433
0.223572
0.222553
0.222472
0.222766
0.222364
0.221024
0.219996
0.219666
0.219233
0.218245
0.225089
0.219718
0.149013
0.144338
0.207568
0.219601
0.222953
0.22842
0.231526
0.232512
0.231359
0.229895
0.229594
0.228799
0.226855
0.225192
0.224615
0.224337
0.22455
0.22398
0.222471
0.220977
0.220145
0.21939
0.217708
0.224821
0.220511
0.148749
0.144465
0.20774
0.220836
0.224157
0.228842
0.230756
0.231755
0.230711
0.230285
0.230542
0.230171
0.228308
0.227471
0.227943
0.227355
0.226094
0.225112
0.223528
0.221899
0.221075
0.2196
0.21793
0.225435
0.220257
0.148368
0.144512
0.208815
0.221966
0.225828
0.228952
0.230033
0.230263
0.229889
0.22991
0.231001
0.231446
0.230773
0.230107
0.230112
0.229505
0.227528
0.225435
0.223593
0.222176
0.220721
0.21957
0.218303
0.225722
0.22055
0.148498
0.144971
0.210205
0.222745
0.226293
0.229018
0.229162
0.22896
0.228469
0.229289
0.231062
0.233285
0.233343
0.232705
0.231589
0.230213
0.22777
0.224751
0.222807
0.221511
0.219928
0.218775
0.218675
0.226558
0.220293
0.148258
0.14519
0.212012
0.222833
0.226321
0.228573
0.228184
0.228169
0.228656
0.229424
0.231956
0.233804
0.23436
0.233202
0.231544
0.230104
0.227601
0.224111
0.221334
0.220266
0.218772
0.21813
0.218547
0.226711
0.220974
0.148447
0.145258
0.213632
0.223327
0.22581
0.227927
0.227327
0.228072
0.228889
0.229991
0.231839
0.23319
0.233494
0.232064
0.230182
0.228913
0.226819
0.223976
0.221029
0.218962
0.217925
0.218364
0.218973
0.226758
0.220924
0.148051
0.144799
0.215198
0.224669
0.226359
0.227577
0.227051
0.227886
0.228919
0.230584
0.231808
0.232211
0.231833
0.230914
0.229512
0.228254
0.226179
0.223729
0.221743
0.219646
0.218601
0.219618
0.219737
0.226554
0.221382
0.14793
0.146594
0.219256
0.228988
0.229555
0.230279
0.229327
0.229857
0.231349
0.232464
0.233246
0.233108
0.232984
0.232673
0.232075
0.230607
0.228419
0.226378
0.225087
0.223352
0.222288
0.222752
0.222476
0.229053
0.22299
0.149177
0.149937
0.223761
0.233856
0.234262
0.234434
0.234041
0.234415
0.235409
0.235336
0.23559
0.235996
0.235812
0.235483
0.235018
0.2344
0.233735
0.232708
0.230805
0.228642
0.227023
0.227018
0.226401
0.232423
0.227179
0.15221
0.153641
0.227724
0.23803
0.238137
0.239045
0.238645
0.239273
0.240323
0.240053
0.238829
0.238286
0.238131
0.237981
0.238102
0.238338
0.238678
0.23859
0.237028
0.233982
0.231923
0.231637
0.231392
0.237268
0.231924
0.155027
0.156925
0.230762
0.241026
0.241689
0.242911
0.242951
0.243499
0.244186
0.244191
0.242844
0.241453
0.240383
0.240197
0.240714
0.241348
0.241932
0.242025
0.241317
0.239432
0.237526
0.236927
0.236976
0.24185
0.236515
0.158339
0.159745
0.23495
0.244161
0.245047
0.246783
0.246568
0.247053
0.247448
0.247214
0.245818
0.244289
0.243294
0.242906
0.243136
0.243542
0.243716
0.244243
0.244332
0.244057
0.242927
0.24262
0.242549
0.2464
0.239472
0.161223
0.162234
0.239677
0.24783
0.248427
0.250313
0.250223
0.250475
0.250726
0.250083
0.248703
0.247687
0.246887
0.24583
0.245123
0.244948
0.245508
0.24631
0.247398
0.248036
0.247446
0.247676
0.247396
0.249244
0.242223
0.164457
0.16487
0.244673
0.251978
0.251906
0.253728
0.253977
0.254514
0.25421
0.25341
0.25219
0.251802
0.250442
0.248939
0.247938
0.247753
0.249189
0.250333
0.251728
0.251775
0.25129
0.251857
0.25185
0.252013
0.244706
0.16717
0.167932
0.249698
0.256873
0.256689
0.257969
0.258385
0.258308
0.25778
0.256908
0.25557
0.254472
0.253574
0.252132
0.252168
0.252844
0.253643
0.255045
0.25582
0.255781
0.254486
0.255534
0.255062
0.253986
0.247832
0.170167
0.170928
0.255495
0.261826
0.261867
0.263202
0.26279
0.262112
0.260875
0.259567
0.258046
0.257328
0.256903
0.256975
0.258257
0.258602
0.259158
0.259889
0.26071
0.25998
0.258627
0.258597
0.258083
0.257499
0.251629
0.17311
0.174445
0.260446
0.266517
0.266332
0.267306
0.266604
0.265378
0.263805
0.262038
0.261584
0.261417
0.261461
0.262653
0.263777
0.263986
0.264381
0.265021
0.264816
0.264082
0.262627
0.262343
0.261236
0.261473
0.256281
0.176443
0.178186
0.264456
0.270742
0.270776
0.271899
0.271122
0.269556
0.268177
0.267296
0.267169
0.267099
0.26718
0.268657
0.270217
0.270247
0.270421
0.270546
0.269965
0.268913
0.267253
0.26621
0.264606
0.265509
0.260541
0.179799
0.181403
0.264952
0.271061
0.271355
0.272426
0.271849
0.270451
0.268999
0.268181
0.26842
0.26917
0.269702
0.270839
0.271987
0.272243
0.272657
0.272311
0.271364
0.269783
0.268149
0.266064
0.263838
0.265526
0.261245
0.182603
0.184855
0.259537
0.263716
0.263461
0.263786
0.263229
0.262042
0.260749
0.260643
0.260207
0.260415
0.260757
0.261725
0.262809
0.263167
0.263178
0.262532
0.26164
0.260598
0.259411
0.25738
0.255248
0.256541
0.254494
0.186071
0.209982
0.273172
0.27113
0.271952
0.271363
0.270928
0.269871
0.267918
0.265748
0.262742
0.261057
0.260436
0.260403
0.261494
0.262051
0.261696
0.262195
0.263359
0.26368
0.263308
0.263315
0.263769
0.26548
0.270866
0.211467
0.496929
0.501575
0.495858
0.499732
0.500047
0.500528
0.502175
0.502146
0.500626
0.496854
0.490426
0.486944
0.484081
0.485125
0.484928
0.4841
0.484529
0.489139
0.492252
0.495181
0.498975
0.500127
0.497603
0.511379
0.508969
0.89858
0.873918
0.866845
0.867266
0.867045
0.865963
0.865327
0.864959
0.865061
0.8659
0.866171
0.866248
0.866061
0.866464
0.86707
0.867947
0.868913
0.87066
0.872589
0.874532
0.875435
0.873713
0.872243
0.879398
0.902484
0.995435
0.991724
0.989239
0.988746
0.988622
0.988397
0.988126
0.987919
0.987801
0.987707
0.987649
0.987643
0.98772
0.987877
0.988073
0.988304
0.988556
0.988835
0.989148
0.989441
0.989574
0.989498
0.989878
0.992189
0.995655
0.999956
0.999889
0.999743
0.999672
0.999662
0.999659
0.999653
0.999645
0.999637
0.999631
0.999627
0.999625
0.999627
0.999632
0.999639
0.999648
0.999658
0.999669
0.999677
0.999684
0.999687
0.999696
0.999763
0.999902
0.999963
0.999995
0.999999
0.999998
0.999997
0.999997
0.999997
0.999997
0.999997
0.999997
0.999997
0.999997
0.999997
0.999997
0.999997
0.999997
0.999997
0.999997
0.999997
0.999997
0.999997
0.999997
0.999997
0.999999
0.999999
0.999996
0.999998
1
1
1
1
1
1
1
1
1
1
1
1
1
1
1
1
1
1
1
1
1
1
1
0.999998
0.999999
1
1
1
1
1
1
1
1
1
1
1
1
1
1
1
1
1
1
1
1
1
1
1
0.999998
0.999999
1
1
1
1
1
1
1
1
1
1
1
1
1
1
1
1
1
1
1
1
1
1
1
0.999999
)
;

boundaryField
{
    inlet
    {
        type            calculated;
        value           uniform 0.5;
    }
    outlet
    {
        type            calculated;
        value           nonuniform List<scalar> 
25
(
0.999999
1
1
1
1
1
1
1
1
1
1
1
1
1
1
1
1
1
1
1
1
1
1
1
0.999999
)
;
    }
    walls
    {
        type            calculated;
        value           nonuniform List<scalar> 
150
(
0.195785
0.143625
0.11936
0.103978
0.0990006
0.100895
0.102251
0.105493
0.107446
0.111137
0.118923
0.127067
0.132263
0.135429
0.135791
0.136727
0.138537
0.142477
0.149359
0.160743
0.162404
0.16222
0.162721
0.162548
0.161977
0.158823
0.151762
0.144583
0.14062
0.14009
0.139318
0.138384
0.137946
0.138753
0.139055
0.140621
0.141576
0.143566
0.143882
0.14496
0.144688
0.145125
0.144177
0.143632
0.143629
0.144658
0.144338
0.144465
0.144512
0.144971
0.14519
0.145258
0.144799
0.146594
0.149937
0.153641
0.156925
0.159745
0.162234
0.16487
0.167932
0.170928
0.174445
0.178186
0.181403
0.184855
0.209982
0.496929
0.89858
0.995435
0.999956
0.999995
0.999998
0.999999
0.999999
0.215483
0.17401
0.17067
0.171035
0.170567
0.17613
0.175194
0.176667
0.175056
0.174339
0.172777
0.172561
0.171766
0.164733
0.152937
0.147051
0.147325
0.148872
0.150053
0.149984
0.151058
0.150623
0.151238
0.149876
0.149705
0.14825
0.148497
0.147754
0.14864
0.149697
0.150823
0.151096
0.152014
0.1532
0.154294
0.156121
0.157187
0.158022
0.157642
0.15657
0.15507
0.153071
0.151599
0.150805
0.150236
0.149013
0.148749
0.148368
0.148498
0.148258
0.148447
0.148051
0.14793
0.149177
0.15221
0.155027
0.158339
0.161223
0.164457
0.16717
0.170167
0.17311
0.176443
0.179799
0.182603
0.186071
0.211467
0.508969
0.902484
0.995655
0.999963
0.999996
0.999998
0.999998
0.999999
)
;
    }
    defaultFaces
    {
        type            empty;
    }
}


// ************************************************************************* //
