/*--------------------------------*- C++ -*----------------------------------*\
| =========                 |                                                 |
| \\      /  F ield         | OpenFOAM: The Open Source CFD Toolbox           |
|  \\    /   O peration     | Version:  2312                                  |
|   \\  /    A nd           | Website:  www.openfoam.com                      |
|    \\/     M anipulation  |                                                 |
\*---------------------------------------------------------------------------*/
FoamFile
{
    version     2.0;
    format      ascii;
    arch        "LSB;label=32;scalar=64";
    class       volScalarField;
    location    "0.18/water";
    object      rhom;
}
// * * * * * * * * * * * * * * * * * * * * * * * * * * * * * * * * * * * * * //

dimensions      [1 -3 0 0 0 0 0];

internalField   nonuniform List<scalar> 
1497
(
649.978194558
712.123965762
785.692085707
850.887685884
873.750186362
873.94985163
874.060678343
873.92720097
874.132828389
873.424582052
872.933211975
873.050200966
873.026867824
562.190446003
592.425504312
602.165543951
602.612700716
602.544483946
604.042449965
616.591015887
651.822959688
714.592575176
791.487458894
855.63558535
873.951772271
874.060632901
873.952327219
874.240817147
873.92813641
873.723067586
872.921159663
872.994256502
873.003565352
561.452053364
591.630018346
601.334225274
602.231195372
602.393418829
604.554566848
617.637508523
651.940254627
713.278222016
789.698042079
854.328741565
874.002117569
873.969184736
874.246931274
873.955552128
874.243639377
873.928145422
872.984005438
872.97518742
872.980262865
562.067186118
591.642650626
601.611089628
602.843400012
602.86532219
606.059953844
619.649193615
652.82507836
711.100102988
784.74691378
849.955732784
873.728551245
874.133395777
873.97071575
874.243609476
873.955569006
874.189494678
873.094201817
872.939319929
872.957442825
561.323702351
591.902703454
604.17755586
606.436429683
606.725427601
611.1122129
625.324810512
657.186684153
712.265914328
781.590253342
845.265030904
873.339096478
874.064585821
874.243574816
873.970741517
874.297238976
872.354270081
869.005001592
871.034338251
871.548061021
562.067033963
595.151834111
612.46356425
616.605616101
618.093732688
624.036472538
639.355520702
669.943055356
719.950256108
784.081330679
845.275803455
873.353603045
874.214569613
874.064620176
874.262623008
869.860573256
857.77793836
858.086761494
867.432782103
869.417694568
561.784526524
607.988491632
629.631965936
636.700408358
640.911232758
649.769302255
667.263878869
696.827499946
740.707976285
795.788437149
849.745775921
873.92822515
874.296366438
874.217110611
866.743594218
849.287981037
846.774905278
854.297548712
867.581407353
870.690784629
562.287980129
630.457430711
656.464878649
669.341350766
678.695531454
692.307128177
712.735195164
741.350252988
778.619875516
822.128106269
862.217421584
875.0641983
874.405236695
865.691014134
846.193611166
844.458968352
846.218964482
857.415589131
870.48251441
877.305874976
562.133920893
655.768919387
691.713994732
716.010517443
733.402708388
752.562639758
774.921603439
800.814741871
829.630270651
857.936595701
875.301232862
875.471562138
868.806655924
848.679449817
844.458943564
844.466169492
851.673131873
866.541187609
878.577014343
891.150963639
562.515239637
682.766256004
735.130339878
774.24908041
800.281191007
822.052769216
841.506241411
858.424730385
872.111904295
880.358680458
880.129493593
874.007688338
858.041767125
846.313476635
845.458098248
850.781719133
864.615905041
879.06505232
892.373408141
904.166516951
568.349368847
712.945256786
785.908801497
834.461891716
860.536322885
875.800356875
883.782946709
887.100845069
887.139917256
884.560494977
878.764384378
867.331577584
854.862676133
850.262393598
854.082080847
865.699193276
880.275480325
893.850982605
904.310243206
904.378090462
589.973210293
763.344635857
841.814618115
879.046791431
889.069033634
891.286571818
891.489574699
891.665080219
890.20678978
883.703561794
873.291515502
863.184469791
858.261814003
861.311766482
870.805171851
883.989177055
897.19855986
904.562493377
904.62119633
893.71919201
614.58863269
850.841187697
885.026324763
891.273853639
891.286223653
891.88569713
891.699249668
892.219638793
891.60780092
880.345934683
869.101381018
865.241632001
868.479157531
878.146248767
890.028713398
901.913609427
906.366672681
906.384428209
886.567597552
782.210687176
663.361909218
891.045959671
891.433928902
891.28537978
892.512132805
891.699186649
893.027531995
892.297178309
892.053401057
877.437504067
871.178885885
874.816538982
885.389868626
897.189365145
907.828379308
908.322907626
908.285491306
876.941972333
760.309476063
682.105382497
734.137671876
892.416954342
891.282745003
893.268475339
891.699068958
893.451095915
892.297169468
893.427283633
891.014484651
880.200180217
883.085418534
893.328579402
904.091341904
911.811280059
911.945749655
908.711860006
866.438777252
744.514112531
680.985487661
682.237121165
785.825095474
884.251980239
889.805441108
891.698384823
893.453401735
892.29713286
893.540527631
892.852670186
892.042792713
895.380118236
903.220613756
910.243591054
914.358831768
914.445220305
909.656960463
864.153100114
758.25317735
681.163556334
682.237066276
680.136182825
761.993505437
782.123034133
808.054048626
827.04006299
843.112975423
859.908395347
878.464544933
893.073991817
905.784166185
912.59638619
915.368081844
916.939199188
917.798789943
913.929386387
874.999793591
776.861041685
689.552099039
682.126367931
679.940722939
682.237027178
657.073690557
623.536967358
658.104388396
677.452580806
698.266083592
730.660835459
802.339321488
876.804510238
909.247903571
917.803648921
918.459603809
918.54438482
918.460481703
903.794147491
827.570081144
727.564439708
682.126313772
680.058790409
682.126331932
680.126115254
566.084638581
560.31346083
575.834849774
585.994162351
595.567112819
608.665682766
653.583448954
771.902554058
885.024729621
917.089646183
918.694572515
918.780296851
918.752295957
901.611330025
819.17985767
720.969770569
681.094330823
682.126284433
679.954919019
682.126295849
549.889083646
552.5369723
556.631970692
564.558378137
571.06697448
576.63380912
588.788986968
646.724717984
798.677615082
903.805375038
918.901749018
918.766490151
918.862374675
907.797527434
828.788003072
724.085917897
682.126241929
679.976833518
682.126253069
680.482028086
550.711226162
550.973211442
552.175481094
560.054434879
566.924637441
572.304141786
580.077818237
604.32741154
705.587578251
860.691318707
917.199260581
919.055814208
918.909802228
916.942068612
857.332048669
736.767813111
681.147714162
682.110187249
680.331830258
682.126222458
549.455859635
550.862858534
550.964191341
558.708713918
566.044336216
571.787270543
579.502308099
597.349513573
657.399262854
799.391523466
904.658975367
918.90975961
919.191418625
918.977278531
894.172570394
764.40083758
682.119285682
680.337869626
682.119291523
681.324275856
550.708888441
550.692039768
550.994654938
558.407794269
566.24354726
572.446156787
580.417223208
596.867735278
638.681170867
745.103195781
876.237836477
919.194904892
918.97723868
919.189352241
915.878277567
811.861792329
681.709059714
682.119261061
680.817729229
682.126161902
549.475249231
550.890493349
550.921809363
558.776900088
567.485139684
574.389971848
582.674413369
597.836499632
631.454186353
709.550865525
835.652926897
913.033812689
919.289968077
919.121200444
919.148423997
867.950186047
696.55212513
680.493704472
682.126132809
681.776424186
550.739662155
550.672486686
550.990973732
560.106404848
569.62024246
576.758440838
584.992643145
599.476504802
628.557349454
688.772637254
796.026479593
894.18535149
919.121162011
919.319167234
919.121216649
907.0608483
728.929013695
682.126105308
681.117057958
682.23675143
549.63503714
550.888053685
551.272915719
562.294376868
572.060395298
579.06893051
587.080778265
600.952739113
627.504724399
677.653973943
766.383322495
865.475769915
919.36612442
919.179240735
919.499809707
919.066430122
763.575704154
680.828533465
682.236725452
682.156920825
550.73943349
550.764076625
552.5851711
565.122837604
574.849978848
581.692118693
589.500353711
602.80178889
627.591698777
672.693747347
748.322950082
838.375252251
915.204403117
919.510706545
919.169922079
919.496062865
781.675934789
682.236700521
681.382306434
684.351872116
549.91507985
550.940823884
555.03123839
568.779391424
578.447711612
585.166292049
592.845045353
605.783152564
629.200845434
671.765535431
739.271234327
821.9005894
900.605610338
919.169892256
919.522586773
919.0639041
778.888104135
681.034816982
682.263662183
688.434768062
550.792868288
550.948178922
558.628641054
573.680169738
583.315791677
589.918688574
597.569329168
610.514004943
633.430718328
673.284853957
737.329318721
815.090874304
890.736881559
919.322916296
919.063885504
919.5775582
747.663304633
682.263640125
681.561562357
691.908944796
550.238793195
551.982226267
563.834269795
580.175088977
589.70979032
596.168590727
603.946747077
617.393453662
640.729572286
679.402231378
739.577604551
814.950487575
889.568018732
919.057366717
919.490206865
897.061643976
704.746940111
681.164602386
682.263629678
696.454120547
550.869310219
555.94500227
571.177111131
588.268479043
597.527033916
603.833316451
611.985108411
626.541221572
651.299473166
691.185745104
748.920783176
820.769895592
893.235987391
919.201217388
918.96268073
844.877132105
681.986550676
682.263612166
681.939190772
704.932979677
550.558925991
563.603728823
580.697567135
597.414804949
606.140029407
612.347858859
621.207019718
637.521991108
664.991209821
707.738867075
765.985252741
836.221596609
904.185482183
918.953471431
916.157255481
765.642145873
682.3318896
681.582747996
682.33190407
720.275321982
550.869296331
574.36708729
591.685217467
606.468889358
614.225471449
620.450047658
630.479916387
649.278566683
680.844518235
727.402077433
787.897231686
858.224622653
915.632006036
919.026989276
885.497350497
703.146757167
681.600854629
682.33188893
688.814752264
745.535879875
553.471750855
587.307981243
602.592309188
613.88356278
620.00742806
626.354783946
638.146846982
660.393849355
696.936822712
747.844854757
811.25846337
881.549137671
918.594335673
918.802819776
819.151877124
682.011563416
682.420026463
682.192392904
710.698803866
779.434684639
568.052311218
600.574276495
611.536810167
618.412156358
622.473372247
629.050277722
643.170081799
669.577716447
711.171980686
766.497326735
832.753232158
900.611265583
918.491020809
904.838807351
742.560019653
682.420002334
682.13325532
691.723368479
745.741931013
815.513041407
593.287037534
612.326397393
617.802622527
620.511636686
622.795407442
629.647430961
646.195948015
676.592679003
722.515752132
781.749861376
850.22321492
911.17548328
918.387704783
863.592768538
695.368510536
682.176298464
685.417912999
721.839678343
789.233645183
846.431780433
614.441210381
622.321079964
622.57661548
622.014557487
623.046400935
630.136644683
648.901328699
682.714373935
731.961200692
794.201074008
864.037779502
915.14118956
914.26402587
801.502860984
684.911912847
682.706799149
707.689941229
767.771273051
833.024883053
865.475603193
625.212921764
630.845412634
628.013851466
624.49626613
624.599514993
632.035238474
653.185580482
690.051730766
741.862401807
806.270970105
876.569449502
915.434435186
898.309667384
747.347752445
684.891622612
698.262269803
750.597929715
818.79001231
867.253708049
873.849228862
864.078229249
817.311257828
804.745291263
813.401003745
861.653173076
901.809432238
835.765358886
696.751790827
706.402238216
808.270137009
929.757515184
990.69923912
999.725522287
999.982327345
999.990259512
999.994549557
999.998287255
999.999861991
999.999999533
1000
868.400755837
827.99201487
806.177137503
826.633944843
884.668154781
896.508770888
782.803689969
696.473796458
716.987358112
822.13508526
933.041106607
987.600503528
999.161803824
999.936701167
999.971561203
999.98212795
999.991832236
999.998566001
999.999974777
1000
867.817648396
832.105700709
818.677930198
848.989044972
901.347635385
883.32979865
733.437954354
696.669572818
740.747021428
851.582052027
943.722753169
987.410452058
998.511114923
999.82536493
999.927605068
999.951082275
999.972015475
999.9929229
999.999712091
999.999999975
865.041236908
836.992873588
840.647641844
881.627029776
904.432287493
856.674351553
700.908402154
696.568139766
777.535448175
887.463349815
957.749845225
989.073135307
998.20086715
999.670923865
999.847936497
999.890044327
999.925245143
999.976275989
999.998818697
999.999999851
861.964534679
849.496651451
867.271027477
904.223739526
904.416992433
800.816110343
694.067382717
720.088089735
822.021549169
918.216032468
970.00235232
991.77275924
998.323976836
999.526241739
999.734638369
999.794951494
999.843693713
999.939468563
999.997753397
999.999999931
863.612479281
868.324745063
896.920025582
904.59202765
893.994985625
736.26334359
693.937236087
754.888727774
860.892690049
939.305055989
978.689366244
994.222180331
998.53104199
999.399927199
999.603507694
999.676659039
999.734461284
999.878093135
999.997616377
1000
873.115137349
891.667828477
904.592023397
904.595825578
843.311431536
699.580255164
703.191838377
790.650604982
888.762690144
952.400814504
984.336830102
995.818228519
998.659961518
999.284167608
999.474398761
999.558377581
999.620316439
999.800687253
999.997972784
1000
890.715737212
904.592015727
904.595819374
897.939302889
751.935663088
699.351131472
729.721773234
824.139612024
906.89031785
960.320950919
987.771248918
996.624805033
998.679742075
999.175765208
999.362064975
999.458540123
999.529455757
999.752544459
999.999166584
1000
904.453018128
904.595809601
904.592009145
820.732677514
698.317190262
700.381481354
761.059108734
850.636848029
917.249905647
964.533242141
989.519825357
996.932388336
998.639732215
999.077814084
999.275100053
999.396304458
999.501081797
999.758301566
999.999884164
1000
904.595796808
904.591996904
844.57130262
716.330247055
698.057938958
715.331380486
792.693067
869.466605284
922.389928723
965.879525875
990.005680546
996.974535451
998.561280847
999.01052898
999.244686659
999.392200916
999.510645519
999.792917163
999.999998857
1000
900.911281474
836.483208975
724.858575282
685.933915224
698.058402458
738.929176528
821.610347863
881.833877139
925.138207849
965.627601864
989.735471367
996.879985734
998.50805999
999.00399046
999.249803108
999.40582312
999.563514254
999.875876806
999.999999833
1000
810.301606511
713.545791097
686.222770406
685.548210892
703.105282238
764.649318706
844.334840763
889.589054597
926.984318426
965.809018667
989.431595038
996.824221013
998.511260132
999.018649027
999.279503286
999.467713981
999.708516312
999.967812547
999.999999973
1000
692.234693399
682.332504066
682.389378549
685.563440712
715.503839554
793.056159433
859.856542982
894.303045749
928.992982977
966.520075395
989.592079992
996.868069936
998.551673936
999.084400479
999.373517997
999.627522757
999.901529186
999.998447081
999.999999999
1000
682.264151631
681.831686038
682.332466732
690.051212951
738.361860274
820.099290516
866.9970912
896.697333489
932.142084527
968.827830104
990.352013081
997.087812889
998.691019955
999.233081351
999.562146763
999.85224239
999.991401964
999.999994447
1000
1000
680.672310164
682.264112636
682.277482382
702.536487312
769.129071858
838.264679101
867.754381245
897.614131808
936.834496793
973.285520145
992.081595894
997.600184314
998.952341593
999.465797712
999.803950877
999.98088668
999.999924774
999.999999999
1000
1000
682.237081221
681.498317655
683.473543354
724.768734839
799.622909678
845.280436315
866.420457043
898.178950803
942.862895357
979.023687119
994.40064267
998.314875021
999.306886497
999.741646151
999.963825807
999.99966154
999.999999961
1000
1000
1000
680.508447432
682.237040123
691.846163206
756.356796337
824.485996419
845.897091733
862.598449426
899.490869872
950.173610228
984.906759693
996.609274724
999.044547191
999.681724161
999.941483966
999.998701177
999.999999532
1000
1000
1000
1000
682.236987383
681.96902837
713.701181722
793.583271162
840.484280537
844.529734592
857.854402034
902.932563538
958.876799471
990.330528495
998.337405955
999.629010725
999.929333702
999.996617338
999.999994555
1000
1000
1000
1000
1000
681.39464188
684.947945139
747.322707072
826.266501956
841.671714852
840.119993673
854.40048073
909.437576872
968.616112695
994.81508958
999.436337579
999.927921653
999.995397501
999.999965744
999.999999851
1000
1000
1000
1000
1000
682.126261957
699.452763363
784.051539737
842.122142374
841.631041823
825.12843003
850.389914422
916.608768999
978.279486953
997.923976403
999.894693314
999.994886305
999.999897016
999.999994927
999.999999815
999.999999999
1000
1000
1000
1000
681.928729157
727.803580958
815.454735032
842.202950833
828.940247706
824.224915288
846.470365671
915.58919396
979.879711548
998.811353224
999.977926367
999.999216352
999.999943917
999.999994293
999.999999705
999.999999998
1000
1000
1000
1000
685.01367115
759.273986026
834.285861846
840.388718351
824.150625425
823.98442821
842.703703423
911.008462232
978.246318166
998.686368986
999.978511023
999.999213496
999.999936886
999.999991877
999.999999494
999.999999996
1000
1000
1000
1000
698.733717821
784.393967251
837.054312664
830.849619643
823.8639431
824.150609252
838.715488799
903.09757387
973.944934007
998.199109917
999.972795173
999.999049652
999.999911927
999.999986557
999.999999007
999.999999988
1000
1000
1000
1000
718.785840547
801.191505925
837.071088112
824.077846526
824.078127326
823.912640931
834.627729277
893.281080997
966.963477542
997.111821513
999.951629781
999.998560168
999.999857741
999.999975496
999.999997753
999.999999957
1000
1000
1000
1000
732.755636574
809.070967243
832.934689869
824.002674803
823.800309199
824.078113724
831.113419992
883.676876621
958.26522806
995.176821255
999.889601
999.997564264
999.999745931
999.999952567
999.999994803
999.999999864
1000
1000
1000
1000
738.980276371
810.258194373
826.023802543
823.784574419
824.002662756
823.839976188
828.892241726
876.665563986
949.977043106
992.465228844
999.740623924
999.995336219
999.999508994
999.999910741
999.99998924
999.999999652
1000
1000
1000
1000
742.43748231
810.312856324
823.858412511
823.933659475
823.787072025
824.002651869
828.10396974
873.640678202
944.600355761
989.708668074
999.480814405
999.990048215
999.999036507
999.99984963
999.999981207
999.99999928
999.999999999
1000
1000
1000
745.445813026
810.939401456
824.352114355
823.805057923
824.002640255
823.826958198
828.264576812
873.75015524
943.33926863
987.978538303
999.180278115
999.979551261
999.998341886
999.99977767
999.999971942
999.999998772
999.999999997
1000
1000
1000
749.622049451
813.702847455
826.368160359
824.002629821
823.752533552
824.078068483
829.924187274
877.265741942
944.862841684
987.803890947
998.985852551
999.966649002
999.997574055
999.999702853
999.999963211
999.999998262
999.999999994
1000
1000
1000
757.430141869
820.181469282
830.74741767
823.947680859
824.078059009
823.920922414
834.272384149
886.431502876
950.808170131
988.839935213
998.99168798
999.955849851
999.996812998
999.999638772
999.999957659
999.999998033
999.999999994
1000
1000
1000
771.332352299
830.3689842
836.718399688
824.713606713
823.920914093
824.150517215
841.544349859
899.98803797
960.338924688
991.460250829
999.167780058
999.953863342
999.996257144
999.999608964
999.999957098
999.999998107
999.999999995
1000
1000
1000
791.95443344
841.785748673
842.404996474
826.584136238
824.150509189
824.075347809
851.536498355
915.207036574
970.380551883
994.473672556
999.46091617
999.958130387
999.99611085
999.999619333
999.999961312
999.99999856
999.999999998
1000
1000
1000
816.634109984
850.588192796
846.176558821
827.242332301
824.060968578
825.350184028
863.61944641
929.568194573
978.86330536
996.785567724
999.701187913
999.968107698
999.996571389
999.999678266
999.999971165
999.999999214
1000
1000
1000
1000
839.922565768
854.932307062
846.826946343
827.014008614
824.224765368
830.332605157
875.559323134
941.531559074
985.185127331
998.227093887
999.847537344
999.980940618
999.997731872
999.999760855
999.999980463
999.999999638
1000
1000
1000
1000
855.22527219
856.140353599
845.753867267
827.088656945
824.204259205
835.529462921
885.356537507
950.66160404
989.573790585
999.058517818
999.929336489
999.990885689
999.998685161
999.999820687
999.99998628
999.999999821
1000
1000
1000
1000
861.226349337
856.382891831
841.65066245
827.8068254
824.578377707
840.253368519
892.561321458
957.317177862
992.584426913
999.526912951
999.970386154
999.995539915
999.999109209
999.999855873
999.999989962
999.999999904
1000
1000
1000
1000
863.464586762
852.007426013
838.420533426
829.813104014
827.791736464
844.380259886
897.472875123
962.476559148
994.770651291
999.778660781
999.986759405
999.997189141
999.999293045
999.999881965
999.999992775
999.999999949
1000
1000
1000
1000
862.294556997
846.089463981
839.096018813
834.631812239
)
;

boundaryField
{
    emptyPatch
    {
        type            empty;
    }
    minY
    {
        type            calculated;
        value           nonuniform List<scalar> 0();
    }
    maxY
    {
        type            calculated;
        value           nonuniform List<scalar> 0();
    }
    water_to_cooler
    {
        type            calculated;
        value           nonuniform List<scalar> 
37
(
1000
1000
999.999999975
999.999999851
999.999999931
1000
1000
1000
1000
1000
1000
1000
1000
1000
1000
1000
1000
1000
1000
1000
1000
1000
1000
1000
1000
1000
1000
1000
1000
1000
1000
1000
1000
1000
1000
1000
1000
)
;
    }
    water_to_heater
    {
        type            calculated;
        value           nonuniform List<scalar> 
60
(
562.107756755
562.107743344
561.371226956
561.371214195
561.987882922
561.987870177
561.244861004
561.987857823
561.705376497
561.705366064
562.209789283
562.209781597
562.057268495
562.057263869
562.441474228
568.278918771
589.886135137
589.886136935
614.458212405
614.458206015
663.203998541
663.203987247
733.98904323
785.694945565
761.852488254
761.852477661
656.919020329
656.919008942
565.974830433
565.974828052
549.80228738
550.631696892
549.378061353
549.378066075
550.63169911
550.631703537
549.398057785
549.398062786
550.662716866
549.558097036
550.66272234
550.66273089
549.838300792
549.83831506
550.716077183
550.71609727
550.16144284
550.791573716
550.480955763
550.480971802
550.791588013
550.791600092
553.392915565
553.39292707
567.966017611
593.1787497
614.306115231
614.306113685
625.063160793
625.063157278
)
;
    }
    procBoundary1to0
    {
        type            processor;
        value           nonuniform List<scalar> 
41
(
626.045859016
639.940457985
635.934373382
630.140251762
629.788888247
638.057132059
661.635584463
701.130469412
754.934026909
820.816230408
890.401504325
915.438269866
866.949022261
722.501272099
695.672258852
734.162658221
802.840575501
863.67752897
884.754152484
877.575443564
831.769136171
846.628069876
901.150766545
967.462408677
996.521905776
999.902323788
999.992239414
999.997854859
999.999415522
999.999906759
999.999995101
999.999999977
1000
1000
1000
1000
857.441492852
845.389590696
844.408061553
831.769136171
841.920973255
)
;
    }
    procBoundary1to3
    {
        type            processor;
        value           nonuniform List<scalar> 
41
(
642.288315646
696.184266322
763.227428374
831.786079568
871.261626065
874.038674689
873.927177891
874.057312713
873.884846568
873.462443449
873.036198516
873.141207834
873.050170371
561.324326837
594.595270123
603.86754356
603.53006097
602.695298238
603.777799644
615.02023171
615.02023171
851.681713843
807.201486304
804.499418454
806.50408507
845.21177777
901.786289026
869.331445242
716.977694334
706.934596338
806.841315476
941.749533392
995.874678461
999.963996032
999.994646064
999.997081012
999.998937726
999.999863061
999.999997064
1000
1000
)
;
    }
}


// ************************************************************************* //
