/*--------------------------------*- C++ -*----------------------------------*\
| =========                 |                                                 |
| \\      /  F ield         | OpenFOAM: The Open Source CFD Toolbox           |
|  \\    /   O peration     | Version:  2312                                  |
|   \\  /    A nd           | Website:  www.openfoam.com                      |
|    \\/     M anipulation  |                                                 |
\*---------------------------------------------------------------------------*/
FoamFile
{
    version     2.0;
    format      ascii;
    arch        "LSB;label=32;scalar=64";
    class       volScalarField;
    location    "0.01/water";
    object      d.gas;
}
// * * * * * * * * * * * * * * * * * * * * * * * * * * * * * * * * * * * * * //

dimensions      [0 1 0 0 0 0 0];

internalField   nonuniform List<scalar> 
1497
(
0.00501880680161
0.00501881233282
0.0050188177392
0.00501882309377
0.00501882837045
0.00501883346072
0.00501883816983
0.00501884229543
0.00501884568232
0.00501884815125
0.00501884952718
0.00501884994671
0.00501884974579
0.00501812654429
0.0050177607354
0.00501738248655
0.00501727534683
0.00501725440229
0.00501725189625
0.00501725151455
0.00501725566587
0.00501726356282
0.00501727435892
0.00501728737855
0.00501730205764
0.00501731789424
0.00501733442804
0.00501735127279
0.00501736809855
0.0050173845796
0.0050174004028
0.00501741554653
0.00501743012991
0.00501618988121
0.00501586292949
0.00501559289093
0.00501554184034
0.00501556135768
0.00501559096199
0.00501561721014
0.00501564427812
0.00501567256117
0.00501570199933
0.00501573248394
0.00501576387052
0.00501579595219
0.0050158284721
0.00501586116022
0.00501589375399
0.00501592594769
0.00501595741103
0.0050159880472
0.00501601787141
0.0050146261072
0.00501425686692
0.00501391244904
0.00501386226959
0.00501389702869
0.00501394488991
0.00501399024864
0.00501403670855
0.00501408429411
0.00501413274254
0.00501418188475
0.00501423154944
0.00501428152578
0.0050143315808
0.00501438147515
0.00501443096127
0.00501447971665
0.00501452739575
0.00501457386584
0.00501461907467
0.00501271563162
0.00501242354263
0.00501220823336
0.00501218570673
0.00501224580604
0.00501231791533
0.00501238530296
0.00501245238414
0.0050125196067
0.00501258698365
0.00501265451154
0.0050127221235
0.00501278969235
0.00501285702813
0.00501292388804
0.00501298999828
0.00501305502301
0.00501311858767
0.00501318051354
0.00501324064223
0.00501130441213
0.00501103362261
0.00501065800839
0.00501062390298
0.00501068435453
0.00501076477857
0.00501084328946
0.00501092327782
0.00501100453227
0.00501108663684
0.00501116929753
0.00501125226229
0.00501133526782
0.00501141801139
0.00501150016771
0.00501158141199
0.00501166134719
0.00501173953377
0.00501181571769
0.00501188961495
0.00500948544902
0.00500927714112
0.00500911753741
0.0050091058759
0.0050091796549
0.00500927241561
0.00500936337951
0.00500945584698
0.00500954956786
0.00500964414348
0.00500973931905
0.00500983486649
0.00500993051688
0.00501002594516
0.00501012081277
0.00501021476655
0.00501030735411
0.00501039807889
0.00501048659917
0.00501057250641
0.00500815406235
0.00500802536632
0.0050077170812
0.00500771505171
0.00500779211141
0.00500788628889
0.00500798046478
0.0050080773691
0.00500817651113
0.00500827733428
0.00500837947543
0.00500848261534
0.00500858640485
0.00500869045715
0.00500879437809
0.00500889773476
0.00500899998971
0.00500910055186
0.00500919897669
0.00500929472724
0.00500682423369
0.00500661210783
0.00500644388011
0.00500644650703
0.00500651943714
0.0050066082705
0.0050066983817
0.00500679251154
0.00500689023051
0.00500699098797
0.00500709435285
0.00500719990414
0.0050073071811
0.00500741569021
0.00500752491828
0.00500763430364
0.00500774317894
0.00500785082769
0.00500795667908
0.0050080600494
0.00500571594452
0.00500562090448
0.00500527444202
0.00500525977179
0.00500532306313
0.00500540603533
0.00500549093336
0.00500558067066
0.00500567495904
0.00500577332342
0.00500587537857
0.00500598072178
0.00500608887376
0.0050061992784
0.00500631132549
0.00500642434529
0.00500653756011
0.00500665014652
0.00500676140774
0.00500687051504
0.00500464934923
0.00500444491609
0.00500417873648
0.0050041489246
0.00500419619629
0.00500426839589
0.00500434482056
0.00500442809217
0.0050045176091
0.00500461264018
0.00500471261271
0.00500481697538
0.00500492513463
0.00500503644073
0.00500515019586
0.00500526564862
0.00500538193651
0.00500549814202
0.00500561347098
0.00500572696155
0.00500345305064
0.00500333770664
0.00500303105782
0.00500301073881
0.00500306382863
0.00500314126385
0.0050032210679
0.00500330653513
0.00500339753371
0.00500349367966
0.00500359465547
0.00500370009872
0.00500380955153
0.00500392244414
0.00500403812827
0.00500415588193
0.00500427484066
0.00500439406266
0.00500451269766
0.00500462969975
0.00500230826263
0.00500214702591
0.00500194238176
0.00500193042815
0.00500198366952
0.00500205994692
0.00500214014283
0.00500222697237
0.00500231986363
0.00500241814026
0.00500252132478
0.00500262899586
0.00500274068831
0.0050028558552
0.00500297389216
0.00500309411104
0.00500321566568
0.00500333761756
0.00500345910165
0.00500357905035
0.00500094860066
0.00500095183787
0.00500077868263
0.00500080420364
0.00500088731484
0.0050009857069
0.00500108145493
0.00500117929398
0.00500128016621
0.00500138443011
0.00500149229892
0.00500160380429
0.00500171878224
0.00500183689653
0.00500195768076
0.00500208052691
0.00500220464119
0.00500232911521
0.00500245310461
0.00500257555034
0.00500023043645
0.00500025126929
0.00499995619547
0.00499991577082
0.0049999563838
0.00500003396205
0.00500011696497
0.00500020762867
0.00500030513215
0.00500040851013
0.0050005170579
0.00500063018344
0.00500074730167
0.00500086779758
0.00500099102272
0.00500111626606
0.00500124268881
0.00500136936968
0.00500149546369
0.00500161992257
0.00499920514255
0.00499918000914
0.00499891695924
0.0049988828634
0.00499894419121
0.00499904651849
0.00499914756181
0.00499925158327
0.00499935922816
0.00499947046874
0.0049995852472
0.00499970340634
0.00499982466119
0.00499994860495
0.00500007473262
0.00500020244174
0.00500033097623
0.00500045948279
0.00500058717098
0.00500071303168
0.00499839564238
0.0049983734817
0.00499801688517
0.00499800407632
0.00499804927577
0.00499815347367
0.00499825847902
0.00499836701146
0.00499847925037
0.00499859481401
0.00499871345474
0.00499883493707
0.00499895897197
0.00499908518244
0.00499921311799
0.00499934224649
0.00499947188287
0.00499960122977
0.00499972954
0.00499985584763
0.00499729155745
0.00499725900635
0.00499718860484
0.00499718537963
0.00499723554691
0.0049973441384
0.00499745204035
0.00499756237711
0.00499767577476
0.0049977920409
0.00499791104088
0.00499803261623
0.00499815652252
0.00499828241575
0.00499840988197
0.00499853842016
0.00499866737133
0.00499879595967
0.00499892346654
0.00499904895554
0.00499672577675
0.00499686559565
0.00499655376583
0.00499651295422
0.00499654060979
0.00499663993609
0.00499674124354
0.00499684563198
0.00499695378064
0.00499706538047
0.00499718018203
0.00499729792685
0.00499741830381
0.00499754093471
0.00499766537558
0.00499779109208
0.0049979173993
0.0049980435114
0.00499816869582
0.00499829203116
0.00499592706229
0.00499604762124
0.00499599185136
0.00499591348049
0.00499591220261
0.00499600264604
0.00499609788464
0.00499619570666
0.00499629737256
0.00499640269691
0.00499651149851
0.00499662356855
0.0049967386229
0.00499685627246
0.0049969760439
0.0049970973847
0.00499721960538
0.0049973419089
0.00499746355454
0.00499758363778
0.00499563555025
0.00499591635689
0.00499550070606
0.00499538712181
0.00499535427083
0.00499542942213
0.00499551510328
0.00499560380421
0.00499569715614
0.00499579483673
0.00499589653971
0.00499600198132
0.00499611081681
0.00499622261471
0.00499633688077
0.0049964530452
0.00499657039692
0.00499668812497
0.00499680549164
0.00499692159441
0.00499498674548
0.00499510421232
0.0049950045083
0.0049948717001
0.00499482382676
0.00499489061112
0.00499497066083
0.00499505284661
0.00499513961181
0.00499523078691
0.00499532613059
0.00499542539145
0.00499552824349
0.00499563427779
0.00499574300295
0.00499585384012
0.00499596609117
0.00499607895996
0.00499619170965
0.00499630345162
0.00499465040108
0.00499481930342
0.00499449037502
0.00499437473598
0.00499432686562
0.00499438732354
0.00499446069422
0.00499453681294
0.0049946180096
0.00499470387451
0.00499479402082
0.00499488812512
0.00499498584287
0.00499508675561
0.00499519037402
0.00499529616013
0.0049954034597
0.00499551150208
0.00499561957438
0.00499572682786
0.00499382749036
0.00499397681167
0.00499396214329
0.00499385134339
0.00499381748672
0.00499388629919
0.00499396468962
0.00499404279532
0.00499412390854
0.0049942082295
0.00499429577953
0.00499438653033
0.00499448035716
0.00499457701152
0.00499467614357
0.004994777314
0.00499487993536
0.00499498330649
0.0049950867665
0.00499518954562
0.00499362483156
0.00499391198902
0.00499355665424
0.00499344436297
0.00499339421575
0.00499345159555
0.00499352320794
0.00499359572151
0.00499367206643
0.00499375205812
0.00499383546006
0.00499392208796
0.00499401172387
0.00499410407622
0.00499419879076
0.00499429544782
0.00499439350723
0.00499449230268
0.00499459122796
0.00499468959635
0.00499308117779
0.00499327612373
0.0049931722108
0.00499302265712
0.00499297411961
0.00499303304611
0.00499310538267
0.00499317692372
0.00499325130505
0.00499332863693
0.0049934088548
0.00499349189669
0.00499357764572
0.00499366588988
0.00499375632949
0.00499384859237
0.00499394218793
0.00499403650996
0.0049941310107
0.00499422505454
0.00499298069192
0.00499314346207
0.00499277748273
0.00499266279355
0.00499261404151
0.0049926674193
0.0049927332902
0.00499279933451
0.00499286885277
0.0049929416452
0.00499301745644
0.0049930961233
0.00499317747532
0.0049932612795
0.00499334724364
0.00499343502196
0.00499352415606
0.00499361406766
0.00499370423209
0.00499379405586
0.00499222882727
0.00499239952094
0.0049923473417
0.00499226115741
0.0049922509453
0.00499231568153
0.004992383482
0.00499244894593
0.00499251615909
0.00499258557701
0.00499265739125
0.00499273172042
0.00499280857211
0.00499288782925
0.00499296926712
0.0049930525768
0.0049931373274
0.00499322295805
0.00499330895367
0.00499339473885
0.00499216511869
0.00499240870993
0.0049920850699
0.00499202072551
0.00499199268231
0.00499203855481
0.00499209031555
0.00499214353563
0.00499220104975
0.00499226256206
0.00499232772671
0.00499239628301
0.00499246797832
0.00499254250921
0.00499261951897
0.00499269861469
0.00499277931318
0.00499286101417
0.0049929431869
0.00499302527696
0.00499174577908
0.0049919219776
0.00499180481402
0.00499170727981
0.00499168140798
0.00499172860378
0.00499178123182
0.00499183411248
0.00499189041327
0.00499195012666
0.00499201310426
0.0049920792053
0.00499214824057
0.00499221994841
0.00499229400884
0.00499237005667
0.00499244762696
0.00499252614659
0.00499260511442
0.00499268403121
0.00499160816925
0.00499179125303
0.0049914760663
0.00499140652524
0.00499137211213
0.00499142007794
0.00499147573549
0.00499153124092
0.00499158958371
0.0049916506455
0.00499171426006
0.00499178032444
0.00499184872304
0.00499191928014
0.00499199175175
0.00499206584235
0.00499214116354
0.00499221721825
0.0049922935786
0.00499236982309
0.00499094001469
0.00499118687294
0.00499117563372
0.00499107716758
0.00499106147231
0.00499112179726
0.00499118679168
0.00499124849465
0.00499131085896
0.00499137435033
0.00499143920522
0.00499150560637
0.00499157364564
0.00499164329477
0.00499171441885
0.00499178681312
0.00499186016886
0.0049919340579
0.00499200811832
0.00499208196825
0.00499090123385
0.00499123067154
0.00499097460846
0.00499089679945
0.00499086508289
0.00499091127453
0.00499096558026
0.00499101973899
0.00499107666639
0.00499113610956
0.00499119779792
0.00499126156378
0.00499132726182
0.0049913947047
0.00499146365925
0.00499153386853
0.00499160500489
0.00499167663645
0.00499174839435
0.00499181990438
0.004990539769
0.00499081984483
0.00499078175619
0.00499067829983
0.00499065010575
0.00499069825573
0.00499075432285
0.00499080845742
0.00499086426728
0.00499092196423
0.00499098156509
0.00499104308027
0.00499110646208
0.00499117156989
0.00499123819102
0.00499130607677
0.00499137489952
0.00499144422047
0.0049915136665
0.00499158288065
0.0049906299139
0.00499093745363
0.00499062633016
0.00499054665013
0.0049904924842
0.00499052605938
0.00499057607408
0.00499062541898
0.00499067743739
0.00499073201086
0.00499078891148
0.00499084797703
0.00499090904273
0.00499097190205
0.00499103630939
0.00499110199691
0.00499116862202
0.00499123574071
0.00499130298078
0.00499137001375
0.00499020544295
0.00499046971888
0.0049904749622
0.00499037172815
0.00499031251439
0.00499034515026
0.00499039890109
0.00499045000746
0.00499050277681
0.00499055741729
0.00499061386952
0.00499067209215
0.00499073201058
0.00499079348313
0.00499085631007
0.00499092025747
0.00499098501748
0.00499105018489
0.00499111542383
0.00499118044909
0.00499020843907
0.00499054410612
0.00499030683669
0.00499022637738
0.00499015510439
0.00499018333957
0.00499023997238
0.00499029283101
0.00499034680238
0.00499040215492
0.00499045882763
0.00499051681008
0.00499057607911
0.00499063655645
0.00499069810544
0.0049907605483
0.00499082363401
0.00499088701153
0.00499095038735
0.00499101351504
0.00498970197333
0.00499007936926
0.00499018298355
0.00499008189096
0.00499001684914
0.00499004947719
0.00499010967772
0.00499016412205
0.00499021856753
0.0049902736523
0.00499032953188
0.00499038634631
0.0049904441801
0.00499050303205
0.00499056281799
0.0049906234036
0.00499068458135
0.0049907460275
0.00499080746857
0.00499086867466
0.00501884896471
0.00501884746853
0.00501884488274
0.00501884137443
0.00501883786419
0.00501883464204
0.00501883161163
0.00501882885205
0.00501882637147
0.00501882416968
0.00501882224088
0.00501882057505
0.00501881916112
0.00501881798446
0.00501881702443
0.00501881626472
0.00501881568336
0.00501881527025
0.00501881505206
0.00501881509294
0.00501744366873
0.00501745529513
0.00501746444524
0.0050174713855
0.00501747708018
0.00501748190979
0.00501748587565
0.00501748915747
0.00501749186258
0.00501749407791
0.00501749587818
0.00501749732372
0.00501749846601
0.00501749934664
0.00501750000681
0.0050175004794
0.00501750080067
0.00501750103151
0.00501750124204
0.00501750149685
0.00501604591864
0.00501607066075
0.00501609139268
0.00501610853763
0.00501612318563
0.00501613582287
0.00501614654349
0.00501615564214
0.00501616332722
0.00501616977806
0.00501617515084
0.00501617958165
0.00501618318793
0.00501618607356
0.00501618832818
0.00501619004035
0.00501619128729
0.00501619215225
0.00501619275619
0.00501619320033
0.00501466157607
0.00501469924417
0.00501473128918
0.00501475835521
0.00501478168129
0.00501480184841
0.0050148190608
0.00501483373509
0.00501484618469
0.00501485668337
0.00501486547139
0.00501487276111
0.00501487873952
0.0050148835713
0.00501488740101
0.00501489034765
0.0050148925209
0.00501489404294
0.00501489503488
0.00501489563474
0.00501329707669
0.00501334713353
0.00501338997743
0.00501342649853
0.00501345807717
0.00501348537999
0.00501350873513
0.00501352867804
0.00501354562745
0.00501355994776
0.00501357195857
0.00501358194077
0.00501359014083
0.00501359677549
0.00501360203398
0.00501360609096
0.00501360909455
0.00501361118501
0.00501361253368
0.00501361330919
0.00501195891169
0.00501202040639
0.00501207323221
0.00501211850244
0.00501215770623
0.00501219159563
0.00501222061679
0.00501224541473
0.005012266505
0.0050122843358
0.00501229930101
0.00501231174724
0.00501232198014
0.00501233026902
0.00501233685174
0.00501234193194
0.0050123456933
0.00501234832174
0.00501234999862
0.00501235091511
0.00501065311089
0.00501072472734
0.00501078643468
0.00501083950456
0.00501088550552
0.00501092528654
0.00501095938558
0.00501098854071
0.0050110133518
0.00501103434094
0.00501105196611
0.00501106663028
0.00501107868797
0.00501108845232
0.00501109619872
0.00501110217806
0.00501110660774
0.00501110969173
0.00501111165671
0.00501111271823
0.00500938475564
0.00500946491658
0.00500953418561
0.00500959392293
0.00500964577392
0.00500969066165
0.00500972917466
0.00500976212576
0.00500979018321
0.00500981392986
0.0050098338789
0.00500985048319
0.00500986414294
0.00500987521217
0.00500988400446
0.00500989079205
0.00500989582009
0.00500989932987
0.00500990155431
0.00500990272687
0.00500815754612
0.00500824460051
0.00500832005006
0.00500838530148
0.00500844205179
0.00500849124104
0.00500853349042
0.00500856966902
0.00500860049744
0.00500862660641
0.00500864855193
0.00500866682538
0.0050086818609
0.00500869404349
0.00500870371325
0.00500871117935
0.00500871671217
0.00500872056433
0.00500872300642
0.005008724291
0.00500697377079
0.00500706624101
0.00500714661718
0.00500721633692
0.00500727709981
0.00500732982733
0.00500737516498
0.00500741402053
0.00500744715285
0.00500747522877
0.00500749883899
0.00500751850751
0.00500753469948
0.00500754782809
0.00500755826081
0.00500756631852
0.00500757229041
0.00500757645804
0.00500757909039
0.00500758045338
0.00500583467827
0.00500593139447
0.00500601568561
0.0050060889939
0.00500615299404
0.00500620858698
0.00500625643814
0.005006297481
0.005006332503
0.00500636219859
0.00500638718388
0.00500640800628
0.00500642515168
0.00500643905272
0.00500645009293
0.00500645862131
0.00500646494431
0.00500646934741
0.00500647213148
0.00500647357638
0.00500474098046
0.00500484109372
0.00500492852153
0.00500500470335
0.00500507128705
0.00500512917119
0.00500517903563
0.00500522183143
0.00500525836782
0.00500528936044
0.00500531544661
0.0050053371943
0.00500535510973
0.00500536964401
0.00500538119966
0.00500539012919
0.00500539675067
0.00500540137201
0.0050054042854
0.00500540577958
0.00500369326937
0.005003796144
0.00500388609614
0.00500396455387
0.00500403316459
0.00500409285555
0.00500414430701
0.0050041884851
0.00500422621742
0.00500425823687
0.0050042851963
0.00500430767776
0.00500432619948
0.00500434122392
0.00500435316197
0.00500436238793
0.00500436923097
0.00500437399722
0.00500437700663
0.00500437855719
0.00500269218225
0.00500279726611
0.00500288919181
0.00500296939378
0.00500303956049
0.00500310063235
0.00500315328787
0.00500319850937
0.00500323713993
0.0050032699265
0.00500329753573
0.00500332056296
0.00500333953966
0.00500335494021
0.00500336718868
0.00500337665686
0.00500338368036
0.00500338858314
0.00500339167131
0.00500339324712
0.0050017384171
0.00500184514601
0.00500193850099
0.00500201996029
0.00500209124283
0.00500215328854
0.00500220678773
0.00500225273756
0.00500229199453
0.00500232531705
0.00500235338111
0.00500237678972
0.00500239608013
0.00500241173207
0.005002424172
0.00500243378843
0.00500244092313
0.00500244589376
0.00500244903119
0.00500245064207
0.00500083273236
0.00500094047107
0.00500103468011
0.00500111688113
0.00500118880672
0.00500125140198
0.00500130537287
0.00500135172574
0.005001391326
0.00500142493915
0.00500145324794
0.00500147686185
0.0050014963249
0.00500151212263
0.00500152468928
0.00500153440546
0.00500154161471
0.00500154664839
0.00500154981954
0.00500155143417
0.00499997586677
0.00500008383483
0.00500017822449
0.00500026057447
0.00500033261454
0.00500039530264
0.0050004493559
0.0050004957802
0.00500053544358
0.00500056911313
0.00500059747191
0.00500062112883
0.00500064062627
0.00500065644837
0.00500066902543
0.00500067874955
0.00500068596548
0.00500069099399
0.0050006941701
0.00500069579918
0.00499916819765
0.00499927547559
0.00499936927718
0.00499945110705
0.00499952268104
0.00499958498148
0.00499963871002
0.00499968485976
0.00499972429199
0.00499975776743
0.00499978596441
0.00499980948849
0.00499982888029
0.00499984462241
0.00499985714683
0.00499986683191
0.00499987401931
0.00499987903954
0.00499988220597
0.00499988381813
0.00499840934829
0.00499851497613
0.00499860738845
0.0049986880189
0.00499875857193
0.00499882002566
0.00499887304224
0.00499891859299
0.00499895752372
0.00499899058171
0.00499901843323
0.00499904167288
0.00499906083083
0.00499907638069
0.00499908874364
0.00499909830405
0.0049991053997
0.00499911034611
0.00499911347625
0.0049991150839
0.00499769804714
0.00499780118859
0.00499789151097
0.0049979703663
0.00499803942521
0.00499809962503
0.00499815158372
0.00499819624212
0.00499823442202
0.0049982668503
0.00499829417682
0.00499831698309
0.00499833578925
0.00499835106033
0.00499836321334
0.00499837261334
0.00499837959045
0.00499838446624
0.00499838754849
0.00499838912075
0.0049970324106
0.00499713245955
0.00499722017443
0.00499729682417
0.00499736401644
0.00499742263625
0.0049974732618
0.00499751679528
0.00499755402966
0.00499758566724
0.00499761233653
0.00499763460001
0.00499765296052
0.0049976678681
0.00499767972348
0.00499768889356
0.00499769570056
0.00499770044743
0.00499770345978
0.00499770501196
0.00499641028473
0.00499650687663
0.00499659166283
0.00499666581826
0.00499673087393
0.00499678767488
0.00499683676138
0.00499687899063
0.00499691512349
0.00499694583455
0.00499697172938
0.00499699335164
0.00499701118911
0.00499702567882
0.00499703721383
0.00499704613791
0.00499705276265
0.00499705739482
0.00499706033192
0.00499706183538
0.00499582951909
0.0049959224824
0.00499600416599
0.00499607564538
0.00499613838363
0.00499619321102
0.00499624062516
0.00499628143471
0.00499631636817
0.00499634607174
0.00499637112589
0.00499639205184
0.0049964093168
0.00499642333986
0.00499643449476
0.004996443125
0.00499644953192
0.00499645400127
0.00499645684781
0.00499645832212
0.00499528806873
0.00499537734038
0.00499545583518
0.00499552453317
0.00499558485828
0.00499563763431
0.00499568330136
0.00499572262188
0.00499575629209
0.00499578492922
0.00499580908927
0.004995829273
0.00499584593091
0.00499585946744
0.00499587024737
0.00499587858921
0.00499588478219
0.0049958891149
0.00499589187183
0.00499589329011
0.00499478397643
0.00499486955066
0.00499494483061
0.00499501072013
0.00499506861825
0.00499511932187
0.00499516321863
0.00499520102895
0.00499523341817
0.0049952609756
0.00499528423219
0.00499530366591
0.00499531970615
0.00499533273876
0.00499534310817
0.00499535113226
0.00499535708929
0.00499536124566
0.00499536390307
0.00499536528836
0.00499431535526
0.00499439728079
0.00499446938217
0.00499453250694
0.00499458801456
0.00499463666363
0.00499467880167
0.0049947151079
0.00499474621725
0.00499477269145
0.00499479503781
0.0049948137144
0.0049948291342
0.0049948416686
0.00499485165351
0.00499485938155
0.00499486511882
0.0049948691347
0.00499487169912
0.00499487302652
0.00499388038575
0.00499395876844
0.0049940277959
0.00499408825317
0.00499414143865
0.0049941880842
0.00499422851001
0.00499426335214
0.00499429321694
0.00499431864026
0.00499434010596
0.00499435805056
0.00499437286699
0.00499438490879
0.00499439449182
0.0049944019087
0.00499440741483
0.00499441125718
0.00499441372336
0.00499441501895
0.00499347729455
0.00499355232418
0.00499361844461
0.00499367636407
0.00499372732393
0.00499377205152
0.0049938108389
0.00499384427712
0.00499387294532
0.00499389735437
0.00499391796666
0.0049939352007
0.00499394943452
0.00499396100851
0.00499397023127
0.00499397737098
0.00499398267153
0.00499398638343
0.00499398876178
0.00499399000165
0.00499310437994
0.00499317632389
0.00499323975031
0.00499329529593
0.00499334416787
0.00499338710413
0.00499342435863
0.00499345648191
0.00499348402981
0.00499350749118
0.00499352730824
0.0049935438806
0.00499355756848
0.00499356869627
0.00499357755389
0.00499358441075
0.00499358950117
0.0049935930538
0.0049935953418
0.00499359655351
0.00499276009975
0.0049928292812
0.00499289026357
0.00499294363789
0.00499299060329
0.00499303189748
0.00499306773698
0.00499309864128
0.00499312514596
0.00499314772013
0.0049931667887
0.00499318273659
0.0049931959118
0.00499320662781
0.00499321516946
0.00499322178358
0.00499322669431
0.00499323013469
0.00499323234546
0.00499323350634
0.00499244325525
0.00499250998762
0.00499256877347
0.00499262019179
0.00499266543614
0.00499270523117
0.00499273977473
0.00499276956085
0.00499279510848
0.00499281687039
0.00499283525584
0.00499285063447
0.00499286333957
0.00499287367107
0.00499288189701
0.00499288826674
0.00499289299616
0.0049928962976
0.0049928984301
0.00499289956822
0.00499215301193
0.00499221751837
0.00499227430689
0.00499232395263
0.00499236762388
0.00499240603598
0.00499243938407
0.00499246813617
0.00499249279596
0.00499251380108
0.00499253154705
0.00499254639182
0.0049925586588
0.00499256863904
0.0049925765973
0.00499258276253
0.00499258734157
0.00499259055112
0.00499259261869
0.00499259371169
0.00499188867025
0.00499195108717
0.00499200602187
0.00499205402412
0.00499209622057
0.00499213333592
0.00499216557072
0.0049921933621
0.00499221719972
0.00499223750741
0.00499225466741
0.00499226902453
0.0049922808895
0.0049922905416
0.00499229823036
0.00499230418746
0.00499230861252
0.00499231170318
0.00499231370411
0.00499231477831
0.00499164945754
0.00499170989082
0.00499176307298
0.00499180951175
0.00499185030232
0.00499188619612
0.00499191738496
0.00499194427306
0.00499196733644
0.00499198698522
0.00499200358921
0.00499201748281
0.00499202896795
0.00499203831609
0.00499204577451
0.0049920515573
0.00499205585564
0.00499205887011
0.00499206081626
0.00499206185075
0.00499143451693
0.00499149306378
0.00499154457507
0.00499158952118
0.00499162898218
0.00499166372894
0.00499169393317
0.00499171997152
0.00499174230784
0.00499176133991
0.00499177742597
0.00499179088891
0.00499180201977
0.00499181107984
0.00499181830288
0.00499182390403
0.00499182806812
0.00499183098004
0.00499183286918
0.00499183388684
0.00499124300833
0.00499129977067
0.00499134969507
0.00499139323267
0.00499143144928
0.00499146511435
0.00499149438616
0.00499151961804
0.00499154126162
0.00499155970287
0.00499157528888
0.00499158833348
0.00499159912001
0.00499160790291
0.00499161491404
0.00499162035581
0.00499162440492
0.00499162724488
0.00499162908293
0.00499163006433
0.00499107422076
0.00499112928345
0.00499117770513
0.00499121992459
0.00499125697267
0.00499128961074
0.00499131799978
0.00499134246802
0.00499136345503
0.00499138133537
0.00499139644613
0.00499140909121
0.00499141954532
0.00499142805469
0.00499143484041
0.00499144010187
0.00499144401148
0.00499144674813
0.00499144852889
0.00499144949773
0.00499092754626
0.00499098096574
0.00499102796265
0.00499106894424
)
;

boundaryField
{
    emptyPatch
    {
        type            empty;
    }
    minY
    {
        type            calculated;
        value           nonuniform List<scalar> 0();
    }
    maxY
    {
        type            calculated;
        value           nonuniform List<scalar> 0();
    }
    maxX
    {
        type            calculated;
        value           nonuniform List<scalar> 
37
(
0.00501881509294
0.00501750149685
0.00501619320033
0.00501489563474
0.00501361330919
0.00501235091511
0.00501111271823
0.00500990272687
0.005008724291
0.00500758045338
0.00500647357638
0.00500540577958
0.00500437855719
0.00500339324712
0.00500245064207
0.00500155143417
0.00500069579918
0.00499988381813
0.0049991150839
0.00499838912075
0.00499770501196
0.00499706183538
0.00499645832212
0.00499589329011
0.00499536528836
0.00499487302652
0.00499441501895
0.00499399000165
0.00499359655351
0.00499323350634
0.00499289956822
0.00499259371169
0.00499231477831
0.00499206185075
0.00499183388684
0.00499163006433
0.00499144949773
)
;
    }
    water_to_heater
    {
        type            calculated;
        value           nonuniform List<scalar> 
60
(
0.00501807431661
0.00501814113682
0.00501615486212
0.00501622050436
0.00501460709731
0.00501467459364
0.00501271337975
0.00501130223149
0.0050094337773
0.00500949961304
0.00500811769565
0.00500818604909
0.00500680519267
0.00500687221556
0.0050057137348
0.00500464710523
0.00500339902994
0.005003468045
0.00500227124575
0.00500234075754
0.00500092903211
0.00500099803548
0.00500022821186
0.0049992027818
0.00499833963858
0.00499841130862
0.00499725416208
0.00499732419549
0.00499670545522
0.00499677762975
0.00499592465925
0.00499563328134
0.0049949307086
0.00499500222055
0.00499461151039
0.00499468464189
0.00499380712091
0.00499387882827
0.00499362252624
0.00499307873935
0.00499292272613
0.00499299687674
0.00499218997996
0.00499226273489
0.00499214400496
0.00499221913865
0.00499174330348
0.00499160579536
0.00499088221896
0.00499095594788
0.00499086089119
0.00499093684703
0.00499051868757
0.00499059297113
0.00499062752764
0.00499020292246
0.00499014844685
0.00499022523504
0.00498966178099
0.00498973709285
)
;
    }
    procBoundary1to0
    {
        type            processor;
        value           nonuniform List<scalar> 
41
(
0.00498999293077
0.00499036751583
0.00499013653126
0.00499006731371
0.00498997948297
0.00498999231776
0.00499004038027
0.00499008510995
0.00499013177768
0.00499018060003
0.00499023135298
0.0049902838873
0.00499033807127
0.0049903937389
0.00499045068326
0.00499050868657
0.00499056748071
0.00499062670164
0.00499068604498
0.00499074525844
0.00499110488522
0.00499113654815
0.00499116410763
0.00499118786015
0.00499120823245
0.00499122558714
0.00499124025013
0.00499125251585
0.00499126264956
0.00499127088969
0.00499127745285
0.00499128253082
0.00499128629563
0.00499128893286
0.00499129066087
0.00499129160799
0.00499080231092
0.00499085415113
0.0049908997994
0.00499110488522
0.00499093961373
)
;
    }
    procBoundary1to3
    {
        type            processor;
        value           nonuniform List<scalar> 
41
(
0.0050203464351
0.00502034889412
0.0050203498594
0.00502034936929
0.00502034740846
0.00502034392041
0.00502033880998
0.00502033196236
0.00502032332021
0.00502031283955
0.00502030051057
0.00502028665649
0.0050202718712
0.00501942394535
0.00501916941903
0.00501883561519
0.00501877376862
0.00501878259927
0.00501879416558
0.00501880095318
0.00501880095318
0.00502025677388
0.0050202420111
0.00502022746257
0.00502021319963
0.00502020014255
0.00502018854753
0.00502017822124
0.00502016914456
0.00502016122976
0.00502015438776
0.00502014852949
0.00502014357008
0.0050201394288
0.00502013603005
0.00502013330095
0.00502013116716
0.00502012956176
0.00502012844383
0.00502012779063