/*--------------------------------*- C++ -*----------------------------------*\
| =========                 |                                                 |
| \\      /  F ield         | OpenFOAM: The Open Source CFD Toolbox           |
|  \\    /   O peration     | Version:  2312                                  |
|   \\  /    A nd           | Website:  www.openfoam.com                      |
|    \\/     M anipulation  |                                                 |
\*---------------------------------------------------------------------------*/
FoamFile
{
    version     2.0;
    format      ascii;
    arch        "LSB;label=32;scalar=64";
    class       volScalarField;
    location    "0.85/water";
    object      p;
}
// * * * * * * * * * * * * * * * * * * * * * * * * * * * * * * * * * * * * * //

dimensions      [1 -1 -2 0 0 0 0];

internalField   nonuniform List<scalar> 
6000
(
101174.627706
101170.81258
101169.804858
101169.034271
101168.383161
101167.806435
101167.283018
101166.812645
101166.398791
101166.039226
101165.731607
101165.472407
101165.256674
101165.079685
101164.93745
101164.826629
101164.744438
101164.688633
101164.657492
101164.649686
101155.422278
101153.593001
101153.762991
101153.790649
101153.532303
101153.300376
101153.081181
101152.869058
101152.657017
101152.451545
101152.265773
101152.104582
101151.965831
101151.847098
101151.747451
101151.666924
101151.605897
101151.564794
101151.544021
101151.543884
101138.245685
101136.388288
101137.184563
101137.802843
101137.999577
101138.161773
101138.288884
101138.369268
101138.407199
101138.410337
101138.391784
101138.366922
101138.34403
101138.324679
101138.308949
101138.297621
101138.292277
101138.294922
101138.307667
101138.33233
101123.784786
101122.526152
101123.368901
101123.782623
101123.826837
101123.927585
101124.077384
101124.228433
101124.359628
101124.465334
101124.546301
101124.610459
101124.667058
101124.720763
101124.772543
101124.822567
101124.8715
101124.920664
101124.971828
101125.02668
101109.379768
101108.588149
101109.722485
101110.167651
101110.178347
101110.223558
101110.347333
101110.50355
101110.655243
101110.790415
101110.906632
101111.006757
101111.097716
101111.18508
101111.270793
101111.354857
101111.437026
101111.51747
101111.596831
101111.675776
101096.185163
101095.371774
101096.46535
101096.927284
101096.959725
101096.950085
101097.000946
101097.111932
101097.243056
101097.367446
101097.478331
101097.576458
101097.667463
101097.75723
101097.84851
101097.941518
101098.035574
101098.130018
101098.224467
101098.318503
101083.52475
101082.392223
101083.305863
101083.749248
101083.85051
101083.871056
101083.890005
101083.945422
101084.030949
101084.118413
101084.196761
101084.267299
101084.335539
101084.407625
101084.486802
101084.573413
101084.666449
101084.76457
101084.866468
101084.970663
101071.350879
101069.735127
101070.240689
101070.565962
101070.664018
101070.735593
101070.787324
101070.827621
101070.870724
101070.910616
101070.941888
101070.972088
101071.009026
101071.05848
101071.123132
101071.202741
101071.295547
101071.399254
101071.511437
101071.629373
101058.465208
101056.52553
101057.029165
101057.277212
101057.326774
101057.407077
101057.477003
101057.518949
101057.539196
101057.544756
101057.537493
101057.536231
101057.556428
101057.602027
101057.672359
101057.764981
101057.876556
101058.00332
101058.141477
101058.287161
101044.495827
101042.137482
101042.713715
101043.053995
101043.185813
101043.334666
101043.472441
101043.571116
101043.638769
101043.690105
101043.725298
101043.762898
101043.829992
101043.930955
101044.06009
101044.211859
101044.381388
101044.563989
101044.755157
101044.950417
101028.653895
101026.081826
101026.974845
101027.54686
101027.846796
101028.11982
101028.385938
101028.63783
101028.880898
101029.117074
101029.342041
101029.554481
101029.780687
101030.030261
101030.294998
101030.567455
101030.843312
101031.119138
101031.391546
101031.657096
101011.530423
101009.317479
101010.641569
101011.42001
101011.856523
101012.256642
101012.682084
101013.144439
101013.631745
101014.132817
101014.64511
101015.146801
101015.630083
101016.101415
101016.555724
101016.987398
101017.395665
101017.781246
101018.144271
101018.484186
100995.712703
100994.614841
100995.934634
100996.699552
100997.154427
100997.594002
100998.090341
100998.648635
100999.251343
100999.882273
101000.54155
101001.234546
101001.924232
101002.577345
101003.183019
101003.738921
101004.247396
101004.71297
101005.139205
101005.528369
100985.105019
100984.206119
100985.197754
100985.53195
100985.635856
100985.806293
100986.081144
100986.441525
100986.876132
100987.362043
100987.891621
100988.492501
100989.167485
100989.844952
100990.475059
100991.049398
100991.57133
100992.04503
100992.474327
100992.862122
100973.638574
100972.929761
100974.332401
100974.861433
100975.046312
100975.212668
100975.405436
100975.631612
100975.886837
100976.175977
100976.50934
100976.903221
100977.39792
100977.952792
100978.483817
100978.965937
100979.405322
100979.805793
100980.169164
100980.497221
100965.563947
100964.513382
100965.442418
100965.664648
100965.590063
100965.531044
100965.523485
100965.525541
100965.545942
100965.638033
100965.818517
100966.070088
100966.378269
100966.737934
100967.084875
100967.390092
100967.667354
100967.925042
100968.162692
100968.380143
100955.91443
100954.417746
100955.396263
100955.764531
100955.76928
100955.733786
100955.681017
100955.57425
100955.43396
100955.356956
100955.43662
100955.623421
100955.809954
100955.963674
100956.074698
100956.139134
100956.195153
100956.259402
100956.32978
100956.403051
100948.182925
100946.061959
100946.367141
100946.499535
100946.357035
100946.182784
100945.959221
100945.631152
100945.247973
100945.014191
100944.999748
100945.141055
100945.256329
100945.240518
100945.116633
100944.921305
100944.738063
100944.595526
100944.490183
100944.415322
100936.996825
100934.721454
100935.620063
100935.957818
100935.87952
100935.685405
100935.324422
100934.73869
100934.213823
100933.950731
100933.901584
100934.040531
100934.145028
100934.047963
100933.753756
100933.353169
100932.979933
100932.675794
100932.435253
100932.24914
100925.73093
100923.36267
100924.329768
100924.541085
100924.258512
100923.81609
100923.150806
100922.470364
100922.089797
100921.768125
100921.672188
100921.838353
100922.001006
100921.929854
100921.5792
100921.088879
100920.635984
100920.272679
100919.986301
100919.765697
100912.91909
100910.195873
100911.168169
100911.277809
100910.844896
100910.282782
100909.626441
100909.065719
100908.504579
100908.026064
100908.013901
100908.2533
100908.525712
100908.595054
100908.357554
100907.941759
100907.556586
100907.26891
100907.056306
100906.902839
100898.993334
100896.089492
100896.808288
100896.843314
100896.390647
100895.803054
100895.01321
100894.127293
100893.364815
100893.086544
100893.215809
100893.498396
100893.817356
100894.040888
100894.08865
100893.949676
100893.791045
100893.711482
100893.690615
100893.705085
100885.24721
100881.752858
100881.720855
100881.558561
100880.962509
100880.163977
100879.193097
100878.344149
100877.942423
100877.999275
100878.192826
100878.41042
100878.625757
100878.899984
100879.188756
100879.439332
100879.615139
100879.825828
100880.071369
100880.322206
100868.017704
100864.134105
100864.171339
100863.975745
100863.522167
100863.060811
100862.611113
100862.451057
100862.670565
100863.002412
100863.252296
100863.448826
100863.710064
100863.974735
100864.3209
100864.850752
100865.392187
100865.918639
100866.451257
100866.96118
100846.837229
100843.046117
100843.856405
100844.320024
100844.653821
100845.107971
100845.626833
100846.307486
100847.082597
100847.772104
100848.344479
100848.823985
100849.234019
100849.619071
100850.069
100850.652648
100851.46092
100852.281221
100853.081761
100853.833078
100827.348461
100824.554081
100826.161327
100827.015296
100827.67209
100828.544734
100829.6028
100830.776153
100831.965151
100833.062309
100833.973978
100834.73679
100835.391835
100836.057911
100836.671085
100837.287243
100838.161702
100839.183145
100840.189871
100841.127916
100812.959509
100811.533136
100813.070608
100813.736274
100814.18538
100814.870547
100815.887088
100817.111041
100818.407743
100819.640257
100820.671658
100821.625482
100822.53632
100823.388936
100824.214019
100824.938148
100825.759734
100826.837929
100827.949934
100828.991756
100802.112786
100801.697115
100802.777478
100803.223732
100803.469633
100803.881329
100804.644938
100805.680169
100806.825256
100807.906536
100808.867709
100809.875
100810.892041
100811.852667
100812.751707
100813.538157
100814.323167
100815.347161
100816.455918
100817.507044
100792.548838
100792.989496
100794.170514
100794.546569
100794.690311
100794.922016
100795.451317
100796.236684
100797.136276
100797.951106
100798.742656
100799.638085
100800.537521
100801.406164
100802.212835
100803.006454
100803.784418
100804.70048
100805.71769
100806.689099
100784.725827
100785.472144
100786.749982
100787.120506
100787.224651
100787.36336
100787.736481
100788.341204
100789.021072
100789.532156
100790.077047
100790.741707
100791.392071
100792.002375
100792.59315
100793.287832
100794.019609
100794.813964
100795.680922
100796.500698
100778.661688
100779.437497
100780.663322
100780.994128
100781.046913
100781.096711
100781.338006
100781.777969
100782.150003
100782.283694
100782.549219
100782.914972
100783.246198
100783.516637
100783.788524
100784.256617
100784.932695
100785.60981
100786.278525
100786.883558
100773.846468
100774.487299
100775.519485
100775.784817
100775.787806
100775.765434
100775.885289
100776.082009
100776.017291
100775.762329
100775.742311
100775.80346
100775.76885
100775.644337
100775.522363
100775.779895
100776.458753
100777.008886
100777.432787
100777.762941
100768.645393
100769.26129
100770.196688
100770.485599
100770.497889
100770.459851
100770.488883
100770.423493
100769.935758
100769.412289
100769.21006
100768.966471
100768.600446
100768.091319
100767.617798
100767.936177
100768.574983
100768.922038
100769.038971
100769.024178
100763.71054
100764.350761
100765.499157
100765.667439
100765.494915
100765.263596
100765.042231
100764.570186
100763.667131
100763.038824
100762.570442
100762.138738
100761.510022
100760.604333
100760.042901
100760.373976
100760.765931
100760.965521
100760.81502
100760.430863
100757.416624
100758.089054
100759.718494
100759.932168
100759.680232
100759.346052
100758.928734
100758.056343
100756.987943
100756.219209
100755.675725
100755.00195
100754.04675
100752.841965
100752.331014
100752.530944
100752.726976
100752.824306
100752.435116
100751.687522
100752.169218
100752.584652
100754.225151
100754.254306
100753.753498
100753.151877
100752.322966
100750.966671
100749.717321
100748.975775
100748.149426
100747.258532
100746.087726
100744.575293
100744.179614
100744.120609
100744.204264
100744.170792
100743.566643
100742.492356
100746.49414
100746.166697
100747.761939
100747.725802
100747.051474
100746.147849
100744.764431
100743.091226
100742.068282
100741.005111
100739.946286
100738.773731
100737.008657
100735.651731
100735.291524
100735.008213
100734.87621
100734.680492
100733.912275
100732.579523
100741.809739
100740.418663
100741.298903
100740.917145
100739.815739
100738.330399
100736.389209
100734.912352
100733.532177
100732.205997
100730.7733
100729.220476
100727.294462
100725.91579
100725.408814
100724.812213
100724.408394
100724.022086
100723.190241
100721.703934
100736.318248
100733.252291
100734.249589
100733.486791
100731.706142
100729.537918
100727.58105
100725.820682
100724.196579
100722.46628
100720.724662
100718.664524
100716.184991
100715.128882
100714.210027
100713.195211
100712.345221
100711.81413
100711.069321
100709.578989
100731.247261
100726.185386
100726.364996
100724.856523
100722.39359
100720.106686
100717.927775
100715.974775
100713.843629
100711.573831
100709.357658
100706.45707
100704.41327
100702.928619
100701.330617
100699.640283
100698.406411
100697.74546
100697.167928
100695.860743
100725.982443
100718.52837
100716.706199
100714.78107
100712.195414
100709.513337
100706.872633
100703.99377
100700.793968
100698.130151
100695.290269
100692.743209
100690.485989
100688.248368
100685.832412
100683.683196
100682.339014
100681.602333
100681.178099
100680.149388
100717.690582
100706.739347
100703.463674
100701.296436
100698.144454
100694.360446
100690.329756
100686.584299
100683.492613
100680.543346
100677.678561
100674.886799
100672.162224
100669.381314
100666.748042
100664.701845
100663.489135
100662.906387
100662.565441
100661.897579
100680.934495
100666.126732
100664.97501
100665.535462
100664.641532
100662.470241
100660.06759
100657.906589
100655.798045
100653.607039
100651.363866
100649.221346
100647.246294
100645.410161
100643.750711
100642.498179
100641.760236
100641.568286
100641.454286
100641.298793
100587.468991
100578.680749
100587.077955
100592.632869
100597.559202
100602.52161
100606.924182
100609.97274
100611.905685
100613.165982
100614.115763
100614.974809
100615.830331
100616.654261
100617.385863
100617.983173
100618.352867
100618.80116
100619.158922
100619.710338
100523.848105
100524.638133
100527.146356
100530.599106
100534.115786
100538.934771
100546.441882
100555.226668
100562.966301
100569.27402
100574.574295
100579.22531
100583.393832
100587.173265
100590.591147
100593.541665
100595.589232
100596.948535
100598.192628
100599.293839
100521.805347
100521.783311
100521.729638
100521.681749
100521.65762
100521.784801
100522.829753
100526.48954
100532.922764
100540.086221
100546.782617
100552.802434
100558.281224
100563.342907
100567.987498
100572.225651
100575.686469
100578.006095
100579.843351
100581.256822
100520.360315
100520.35284
100520.343684
100520.330452
100520.30931
100520.277798
100520.261986
100520.766319
100523.042731
100527.240222
100532.390675
100537.592456
100542.579308
100547.296826
100551.777672
100555.913746
100559.714125
100562.478777
100564.5494
100566.251598
100519.209264
100519.204217
100519.197987
100519.192684
100519.187589
100519.181691
100519.171579
100519.241977
100520.144894
100522.413899
100525.748617
100529.52367
100533.31159
100537.139185
100540.824933
100544.422237
100547.679286
100550.41831
100552.399145
100554.144615
100518.154676
100518.149747
100518.146286
100518.144628
100518.143376
100518.141525
100518.137962
100518.134578
100518.599316
100520.052542
100522.303141
100524.899522
100527.710645
100530.557417
100533.496512
100536.278401
100538.87405
100541.071767
100542.712519
100544.502611
100517.143849
100517.140803
100517.140524
100517.142777
100517.147075
100517.154487
100517.165957
100517.168628
100517.445827
100518.516176
100520.140998
100522.000982
100523.959295
100526.137127
100528.271116
100530.457994
100532.37885
100533.71743
100535.080166
100536.702309
100516.163457
100516.159672
100516.157799
100516.157418
100516.157228
100516.156122
100516.194595
100516.259911
100516.573314
100517.488795
100518.572051
100519.666205
100521.184493
100522.708399
100524.347297
100525.881638
100527.241962
100528.138635
100528.795785
100530.219566
100515.219767
100515.217098
100515.216718
100515.217845
100515.218883
100515.218059
100515.327355
100515.398956
100515.73857
100516.402507
100516.878388
100517.665646
100518.648182
100519.853744
100520.968546
100522.158484
100523.112491
100522.969134
100523.506689
100524.651359
100514.315583
100514.314103
100514.317221
100514.323914
100514.332568
100514.344016
100514.46919
100514.503812
100514.805856
100515.071517
100515.171758
100515.599331
100516.409368
100517.097312
100517.9131
100518.594336
100519.04923
100519.024497
100518.755571
100519.618573
100513.386974
100513.387078
100513.391961
100513.398767
100513.405612
100513.456624
100513.531318
100513.619643
100513.832229
100513.61769
100513.395952
100513.793417
100514.119309
100514.62545
100514.980542
100515.311554
100515.487053
100514.47108
100514.274378
100514.792015
100512.42621
100512.427291
100512.435621
100512.44847
100512.485244
100512.612211
100512.655954
100512.768508
100512.673986
100511.957158
100511.724117
100511.722381
100511.871
100511.803298
100511.746067
100511.603131
100511.172582
100510.504035
100509.645016
100509.802092
100511.326455
100511.331304
100511.343683
100511.451314
100511.553048
100511.600883
100511.673359
100511.700109
100510.934579
100510.02343
100509.631585
100509.438499
100508.97362
100508.531084
100508.100063
100507.57804
100507.044212
100505.471624
100504.619546
100504.348591
100509.996488
100510.00385
100510.558166
100510.922823
100510.998908
100510.93874
100510.845101
100510.119662
100508.629229
100507.57307
100507.08092
100506.294863
100505.44865
100504.633879
100503.783894
100502.91949
100501.479867
100500.110782
100498.850938
100498.232983
100508.374591
100507.494712
100509.095051
100509.806019
100509.821276
100509.552724
100508.664344
100506.739763
100505.027814
100504.260843
100503.204067
100502.194758
100501.079329
100499.772551
100498.460868
100496.926399
100495.496179
100493.666377
100492.136714
100491.228203
100506.788631
100503.820631
100506.901859
100507.877967
100507.433291
100506.013846
100503.693459
100501.595911
100500.642263
100499.382866
100498.257447
100496.865147
100495.281457
100493.711843
100491.849546
100490.160358
100488.097685
100486.087474
100484.17819
100482.91689
100505.302664
100499.214146
100503.322295
100504.02482
100501.908037
100499.306473
100497.142746
100496.079688
100494.612541
100493.400871
100491.798626
100490.005
100488.210069
100486.041789
100484.109211
100481.758313
100479.560702
100477.168657
100474.871422
100473.173629
100504.021247
100495.682497
100498.738784
100497.516391
100494.718673
100492.46768
100491.152386
100489.275651
100487.847988
100485.995357
100483.886653
100481.797672
100479.247165
100477.012123
100474.300323
100471.916419
100469.385087
100466.695918
100463.963579
100461.804975
100502.76382
100493.671632
100493.23444
100491.673027
100489.052704
100486.996197
100484.236067
100481.996257
100479.505106
100476.72449
100474.058238
100470.802287
100468.029178
100464.803287
100462.127517
100459.411373
100456.761364
100453.91718
100450.990921
100448.661315
100504.019145
100490.5887
100488.181117
100485.870222
100482.362583
100477.998432
100473.520932
100469.523226
100465.568027
100462.101604
100457.957651
100454.584745
100450.876869
100447.941695
100445.16749
100442.70861
100440.397133
100437.997842
100435.643914
100433.741825
100445.263146
100430.191236
100432.181263
100434.933161
100436.034564
100435.53149
100435.182497
100434.442159
100433.701374
100431.382456
100429.214249
100426.661198
100424.685723
100422.932806
100421.581943
100420.493352
100419.523013
100418.591474
100417.712728
100417.029127
100342.818831
100334.92133
100339.311535
100342.793125
100346.308509
100350.890509
100356.787522
100364.73323
100372.800114
100379.872312
100384.222433
100387.20386
100389.447318
100391.348431
100392.98672
100394.493296
100395.819386
100397.030533
100398.118786
100399.260274
100323.76065
100323.68978
100323.651019
100323.619015
100323.577792
100323.473505
100323.797269
100324.953683
100328.175831
100335.091722
100344.029588
100351.588024
100357.542288
100362.525526
100366.776886
100370.463639
100373.717847
100376.669889
100379.376394
100381.861265
100322.746884
100322.735706
100322.727603
100322.712911
100322.691647
100322.666607
100322.640948
100322.618714
100322.60827
100322.931561
100326.038668
100332.007909
100338.024277
100343.356598
100348.181631
100352.558944
100356.497229
100360.096742
100363.440633
100366.578652
100322.051834
100322.044264
100322.039697
100322.035076
100322.028165
100322.018769
100322.006252
100321.990911
100321.973871
100321.938234
100322.222133
100324.60053
100328.523206
100332.672495
100336.698195
100340.583467
100344.280817
100347.696093
100350.93148
100353.956441
100321.411633
100321.405752
100321.402345
100321.398739
100321.39356
100321.386351
100321.376886
100321.364836
100321.351182
100321.334642
100321.174007
100322.00536
100324.105363
100326.856299
100329.709651
100332.672583
100335.637796
100338.51553
100341.18668
100343.794483
100320.809848
100320.804677
100320.801733
100320.798585
100320.79442
100320.789182
100320.783081
100320.775898
100320.76747
100320.756893
100320.610193
100320.938089
100322.084137
100323.710258
100325.513742
100327.480012
100329.578853
100331.666545
100333.742773
100335.652179
100320.259294
100320.254339
100320.251025
100320.247707
100320.243537
100320.23859
100320.232847
100320.226103
100320.217926
100320.207074
100320.118755
100320.257849
100320.874968
100321.691285
100322.635008
100323.926749
100325.245301
100326.584481
100327.867192
100329.213605
100319.759781
100319.755353
100319.752303
100319.74885
100319.74456
100319.73962
100319.734087
100319.727801
100319.72076
100319.710329
100319.684689
100319.752373
100320.042349
100320.26223
100320.648219
100321.248687
100321.994338
100322.682024
100323.341146
100323.82503
100319.31283
100319.308967
100319.306094
100319.30234
100319.297465
100319.292467
100319.287447
100319.282839
100319.27758
100319.268041
100319.320455
100319.387351
100319.482901
100319.28948
100319.060768
100319.341471
100319.528216
100319.700005
100319.788912
100319.83102
100318.902288
100318.899653
100318.89772
100318.895216
100318.891266
100318.887156
100318.883634
100318.880594
100318.875959
100318.869185
100319.033784
100319.140512
100319.130413
100318.601131
100318.117644
100317.880878
100317.786857
100317.507259
100317.150358
100316.682276
100318.506178
100318.501125
100318.503026
100318.505092
100318.50525
100318.504675
100318.50409
100318.50324
100318.499857
100318.556468
100318.792501
100318.995401
100318.924748
100318.109587
100317.241146
100317.026862
100316.541672
100316.034365
100315.417195
100314.633717
100318.193576
100317.935157
100318.099934
100318.10508
100318.11007
100318.1143
100318.117617
100318.119583
100318.126907
100318.34049
100318.655888
100318.914717
100318.611556
100317.468053
100316.814546
100316.243494
100315.75629
100315.029887
100314.030396
100312.940059
100317.739455
100316.625601
100317.484666
100317.673176
100317.66647
100317.665757
100317.67163
100317.679415
100317.738117
100318.033594
100318.436281
100318.649812
100317.779665
100316.626373
100315.888829
100315.518121
100314.745922
100313.807972
100312.471042
100310.952158
100316.773742
100315.251903
100316.126039
100316.313877
100316.269429
100316.197147
100316.181104
100316.323374
100316.619693
100317.086694
100317.519859
100317.143725
100315.846744
100314.839507
100314.630094
100314.036571
100313.227402
100311.612705
100309.859914
100309.861186
100314.583275
100313.66151
100314.438981
100314.234519
100313.930081
100314.020367
100314.246839
100314.495905
100314.778455
100315.058549
100314.73509
100313.453058
100312.289768
100312.24246
100311.90662
100311.384909
100309.75496
100307.396874
100307.648991
100307.988346
100307.937235
100307.865052
100308.934307
100308.617666
100307.867766
100307.726046
100308.318428
100308.939345
100309.230377
100308.907245
100308.044513
100307.290533
100307.537713
100307.535288
100307.415139
100305.734296
100302.649589
100303.046193
100304.180691
100304.579059
100298.735944
100299.191298
100300.093896
100300.057033
100299.338359
100298.746235
100299.149472
100299.987709
100300.416497
100300.328497
100300.266685
100300.720364
100300.858345
100300.237108
100297.716683
100294.772218
100296.003317
100298.04157
100299.264598
100299.905479
100294.010174
100294.39391
100294.878522
100294.794132
100294.129559
100292.91453
100292.429346
100292.936946
100293.62953
100294.060394
100294.290863
100293.991572
100292.001208
100288.473977
100287.393019
100289.552221
100291.7212
100293.37145
100294.582728
100295.634767
100290.991173
100291.394065
100291.748961
100291.695807
100291.280236
100290.315366
100288.920307
100288.092393
100288.135762
100288.366648
100287.951803
100286.444133
100284.503353
100285.181206
100287.295647
100288.737349
100289.770499
100290.755211
100291.794402
100292.888597
100289.485501
100289.728611
100290.122958
100290.052783
100289.729503
100289.270992
100288.511856
100287.381257
100286.31892
100285.507297
100284.68686
100284.257591
100285.115854
100286.690978
100287.789874
100288.459134
100288.995381
100289.686458
100290.496263
100291.346243
100288.251047
100288.450257
100288.911266
100288.957054
100288.782863
100288.492897
100288.173867
100287.749138
100287.163583
100286.587224
100286.170818
100286.203938
100286.788875
100287.398029
100287.779156
100288.114418
100288.542316
100289.094209
100289.726495
100290.419445
100287.778876
100287.714483
100288.086916
100288.121303
100287.985418
100287.798583
100287.603134
100287.425896
100287.22618
100287.039995
100286.846211
100286.765157
100286.922371
100287.130954
100287.355866
100287.662422
100288.038812
100288.574067
100289.180434
100289.756265
100286.73431
100286.503011
100286.826836
100286.892795
100286.815614
100286.668577
100286.533529
100286.410431
100286.299866
100286.190524
100286.009331
100285.89956
100286.013637
100286.265657
100286.575197
100286.909762
100287.407753
100288.03828
100288.617813
100288.939764
100285.896434
100285.444929
100285.61741
100285.635983
100285.5365
100285.409526
100285.276107
100285.172034
100285.067515
100284.938813
100284.757942
100284.698054
100284.88072
100285.179008
100285.518603
100285.992026
100286.640103
100287.305417
100287.650781
100287.550468
100284.539553
100284.009696
100284.266403
100284.293162
100284.215408
100284.098017
100284.012531
100283.936825
100283.872626
100283.730581
100283.532229
100283.481697
100283.663031
100283.982056
100284.411398
100285.007312
100285.6944
100286.133007
100285.911207
100285.487178
100282.909518
100282.254694
100282.653599
100282.712351
100282.654255
100282.583533
100282.506623
100282.465256
100282.414038
100282.227022
100282.018145
100281.968876
100282.173053
100282.579493
100283.108035
100283.744559
100284.220136
100284.020931
100283.26471
100282.83122
100280.608074
100279.647396
100280.291315
100280.387924
100280.390947
100280.327729
100280.267702
100280.259017
100280.164929
100279.92106
100279.709352
100279.66566
100279.920304
100280.405074
100280.966654
100281.438157
100281.317645
100280.405562
100279.63351
100279.37584
100275.876272
100274.613236
100275.534774
100275.769615
100275.903469
100276.029099
100276.160549
100276.145673
100275.986041
100275.726041
100275.555196
100275.565272
100275.865719
100276.316416
100276.685628
100276.6381
100275.879892
100275.077464
100274.827405
100274.863094
100265.077855
100264.014104
100265.069861
100265.507848
100265.787242
100266.219817
100266.755159
100266.909462
100266.839149
100266.909025
100267.123898
100267.522278
100268.000246
100268.407172
100268.579764
100268.423347
100268.236772
100268.38464
100268.772535
100269.349933
100248.562873
100248.573923
100249.899959
100250.582344
100250.942176
100251.348426
100252.430429
100253.449969
100254.189215
100254.90909
100255.696406
100256.487566
100257.220167
100257.907173
100258.596289
100259.306675
100260.112385
100261.0111
100262.016316
100263.176693
100239.72133
100239.678501
100239.671799
100239.868614
100240.032176
100239.769842
100240.334088
100241.640897
100243.09145
100244.331342
100245.43643
100246.410581
100247.422137
100248.523363
100249.710461
100250.92941
100252.204405
100253.613696
100255.173019
100256.901509
100238.17794
100238.16161
100238.144257
100238.1073
100237.937595
100237.111836
100236.003986
100235.317558
100235.333502
100235.913408
100236.773984
100237.775361
100238.863463
100240.084157
100241.412625
100242.891987
100244.61559
100246.571687
100248.704836
100251.011915
100237.242171
100237.23631
100237.224673
100237.198777
100237.157208
100237.106658
100236.928515
100236.37309
100235.624582
100234.877118
100234.354481
100234.230902
100234.538886
100235.199086
100236.15243
100237.425925
100239.078875
100241.091199
100243.396732
100245.965834
100236.683568
100236.680769
100236.674774
100236.662121
100236.642025
100236.61651
100236.585779
100236.552108
100236.51917
100236.377132
100236.097584
100235.81221
100235.64328
100235.6642
100235.926973
100236.476224
100237.343143
100238.513919
100240.014094
100241.951902
100236.272885
100236.272309
100236.271943
100236.269541
100236.263383
100236.253967
100236.241902
100236.227368
100236.209901
100236.189329
100236.157072
100236.154633
100236.177678
100236.216765
100236.27955
100236.392369
100236.588505
100236.846646
100237.200713
100237.812018
100235.919635
100235.920006
100235.922311
100235.924497
100235.924944
100235.92363
100235.920619
100235.915798
100235.905846
100235.89665
100235.905919
100235.932307
100235.954217
100235.942438
100235.885377
100235.788826
100235.625617
100235.168425
100234.176707
100233.113414
100235.558052
100235.560683
100235.567758
100235.579369
100235.587414
100235.59092
100235.589229
100235.582477
100235.562363
100235.570585
100235.635985
100235.738079
100235.84602
100235.922509
100235.920022
100235.72525
100234.995885
100233.265681
100230.951469
100228.681079
100235.106054
100235.108804
100235.113949
100235.146499
100235.129778
100235.077652
100235.030462
100235.041387
100235.130522
100235.300917
100235.549665
100235.843041
100236.114637
100236.240671
100235.996201
100234.898287
100232.720228
100230.070449
100227.463897
100225.022416
100234.535398
100234.537275
100234.638284
100234.790887
100234.847511
100234.843965
100234.825661
100234.8641
100235.021937
100235.291823
100235.601669
100235.81967
100235.724226
100234.940542
100233.278625
100230.913084
100228.631898
100226.367696
100224.176836
100220.936212
100233.892904
100233.895767
100234.377457
100234.535906
100234.437862
100234.275817
100234.166299
100234.18548
100234.281242
100234.281372
100233.941997
100233.090465
100231.635638
100229.794763
100227.886802
100226.383579
100224.599933
100222.811717
100220.116521
100213.533198
100233.170447
100232.028244
100233.121306
100233.363756
100233.121638
100232.783202
100232.515308
100232.156969
100231.408423
100230.240653
100228.857933
100227.347412
100226.14051
100224.82688
100223.693274
100222.046333