/*--------------------------------*- C++ -*----------------------------------*\
| =========                 |                                                 |
| \\      /  F ield         | OpenFOAM: The Open Source CFD Toolbox           |
|  \\    /   O peration     | Version:  2312                                  |
|   \\  /    A nd           | Website:  www.openfoam.com                      |
|    \\/     M anipulation  |                                                 |
\*---------------------------------------------------------------------------*/
FoamFile
{
    version     2.0;
    format      ascii;
    arch        "LSB;label=32;scalar=64";
    class       volScalarField;
    location    "0.43/water";
    object      p_rgh;
}
// * * * * * * * * * * * * * * * * * * * * * * * * * * * * * * * * * * * * * //

dimensions      [1 -1 -2 0 0 0 0];

internalField   nonuniform List<scalar> 
1504
(
101039.267088
100997.605876
100996.708106
101016.168586
101060.479463
101093.7512
101115.043592
101132.323488
101148.560991
101159.458032
101162.642843
101161.849092
101154.206896
101133.90716
101103.309124
101088.769654
101088.026112
101105.672984
101177.791424
101258.641006
100910.098094
100865.844201
100894.615687
100924.108599
100977.929156
101032.192581
101068.731128
101094.013114
101115.310612
101131.70056
101139.489619
101142.404809
101140.670911
101123.411222
101090.404017
101072.723389
101072.272098
101080.506497
101138.989046
101228.245107
100806.537588
100800.112444
100822.99275
100843.006752
100877.01346
100939.692078
101008.40603
101053.668196
101084.278972
101106.74898
101118.149747
101123.396459
101127.842875
101120.789835
101087.293472
101061.055876
101058.893905
101062.164286
101108.079867
101194.174272
100770.560968
100786.948487
100801.25074
100810.535105
100824.251948
100862.35828
100942.167731
101014.207906
101061.302386
101093.884923
101108.075957
101113.397505
101118.40002
101121.758575
101094.616758
101057.192685
101048.887925
101050.514016
101084.667465
101161.591126
100765.582044
100784.056477
100792.775855
100798.204008
100807.734129
100831.963763
100895.326527
100978.240793
101042.111874
101087.934963
101106.620818
101111.140409
101115.375917
101119.485284
101106.893991
101062.44585
101043.556641
101044.51203
101067.03753
101132.566634
100766.559005
100783.847848
100789.973307
100794.551554
100803.951382
100826.28345
100877.414667
100956.439285
101030.350097
101087.023659
101110.186805
101113.433427
101117.048326
101120.282674
101118.080595
101074.69656
101044.32102
101041.53096
101053.717015
101107.568911
100765.800326
100784.815966
100789.578003
100794.263221
100804.080602
100826.615228
100874.281941
100949.140002
101027.441271
101091.250936
101116.208906
101118.941391
101121.253424
101124.173074
101126.074418
101089.083006
101051.458398
101040.938092
101044.293625
101087.464891
100768.369429
100786.417379
100790.559622
100795.599489
100806.031511
100829.342993
100877.390687
100951.429794
101032.020037
101099.386762
101123.659794
101125.353428
101127.805298
101129.363564
101131.533401
101102.378304
101063.761203
101042.152081
101038.466185
101074.335079
100767.561724
100788.865823
100792.73581
100798.396718
100810.087281
100835.501791
100885.168244
100959.689748
101042.322401
101111.700551
101131.592304
101133.248392
101134.461423
101136.62834
101137.335885
101113.483532
101077.369316
101047.119899
101036.619516
101068.443122
100770.606429
100792.991198
100797.236714
100804.685455
100819.13702
100848.493842
100901.94218
100977.694631
101061.628035
101127.441051
101140.157375
101141.050399
101142.826334
101143.390989
101145.089238
101121.439763
101090.160504
101055.195022
101038.244308
101067.112955
100770.12972
100799.622014
100806.22784
100816.852534
100835.122657
100870.003778
100928.44526
101006.377743
101089.363676
101144.006006
101148.665057
101149.791932
101150.247951
101151.884731
101150.971285
101127.894023
101100.971
101063.517484
101041.308542
101067.20287
100773.367724
100808.876672
100820.964941
100835.930676
100859.435811
100901.586051
100965.764761
101045.718731
101123.640064
101157.072422
101157.1472
101157.543513
101158.738137
101158.401783
101156.446164
101133.621569
101108.882246
101070.040618
101044.034715
101065.991344
100773.087191
100821.926189
100842.602101
100863.478926
100895.149649
100946.557128
101016.91547
101096.443619
101157.163514
101165.524897
101165.45609
101166.187514
101165.729878
101166.650123
101160.414742
101138.169724
101113.928428
101074.369083
101045.439137
101061.498234
100776.449166
100842.817368
100874.430425
100904.834337
100947.80149
101009.292653
101083.546322
101151.808437
101174.578615
101173.735084
101173.88245
101173.188014
101173.736805
101172.188192
101164.029947
101140.87437
101117.469426
101077.129052
101046.243375
101054.149875
100775.796118
100879.526119
100922.900151
100967.394614
101022.349744
101090.033735
101155.098093
101182.992414
101181.864248
101181.500372
101180.57375
101180.752588
101179.05315
101179.132341
101163.315539
101143.092143
101119.623217
101078.453053
101047.572784
101045.660929
100779.311161
100936.11034
100992.792443
101053.735778
101115.082756
101170.156943
101190.608759
101189.107369
101188.498844
101187.337631
101187.188573
101185.267731
101185.13593
101181.855558
101161.816083
101146.880439
101121.871521
101079.006297
101047.846294
101038.556271
100779.617324
101005.628744
101081.515202
101152.024761
101189.697262
101196.741207
101195.283621
101194.950181
101193.504765
101193.30667
101190.970689
101190.494306
101187.565331
101180.448282
101164.698213
101153.773885
101124.72853
101078.967292
101047.271894
101036.349194
100782.532175
101092.137484
101173.940388
101204.47271
101202.314141
101201.481315
101201.786558
101199.875533
101200.059509
101196.964948
101196.482277
101193.055562
101191.86867
101179.043284
101172.070499
101163.732508
101131.234375
101081.215037
101046.729811
101032.868174
100830.972312
101189.529124
101209.682889
101210.340772
101209.709917
101210.912055
101207.852892
101208.600608
101203.939147
101203.341075
101198.746808
101196.645522
101190.295526
101180.672101
101179.675627
101173.556449
101144.175783
101091.350892
101048.027535
101027.621331
100949.772445
101229.786077
101229.58616
101227.383851
101228.291133
101221.12713
101220.974149
101212.619001
101210.773999
101203.235038
101199.760722
101193.569221
101186.745303
101182.122253
101181.568856
101178.795507
101161.063917
101112.296964
101055.158951
101022.109007
101034.204892
101199.680586
101210.185661
101218.086618
101216.089501
101214.187565
101206.419326
101202.03088
101195.083339
101190.582233
101185.433752
101181.092261
101176.602512
101175.155919
101174.276852
101173.962394
101169.858491
101139.593895
101074.723357
101021.359832
100891.69719
100915.962292
100959.454347
100994.862196
101029.914461
101061.313438
101098.209237
101126.932276
101143.685923
101151.266058
101155.454936
101157.208918
101158.271326
101158.182355
101158.587026
101160.505889
101161.837986
101156.383001
101108.059124
101031.834417
100710.405427
100662.482593
100693.402903
100722.106449
100755.85627
100801.88708
100884.329466
100988.439648
101067.500805
101106.7146
101123.657157
101132.318986
101136.830013
101139.573227
101142.01316
101145.423557
101149.123499
101151.389374
101138.770661
101056.577459
100591.119141
100581.25957
100597.410002
100614.564342
100630.910438
100653.618498
100705.749054
100809.985942
100946.244792
101050.238875
101099.702951
101117.306647
101123.456716
101127.918389
101131.328745
101134.985272
101139.695101
101143.008176
101145.458919
101089.98372
100569.425155
100572.986801
100582.47716
100598.747798
100611.631235
100626.982085
100657.716101
100723.032952
100836.850865
100968.964573
101067.840856
101113.093175
101119.579354
101123.90708
101127.515603
101130.721261
101134.934021
101138.624521
101141.428185
101120.76744
100571.409485
100572.110525
100582.496138
100600.246147
100614.196212
100629.807442
100658.940535
100714.563554
100807.966247
100922.969039
101033.900371
101111.929255
101121.899627
101125.181938
101128.426504
101131.161003
101134.12686
101137.357731
101140.174772
101140.186328
100571.058459
100573.233654
100587.317898
100609.059826
100626.209302
100643.614277
100672.279627
100725.292672
100813.43013
100921.534859
101029.102696
101112.682191
101127.313945
101129.679715
101131.845698
101134.211824
101136.291419
101138.694853
101140.632188
101142.529018
100573.17877
100579.168433
100602.098993
100629.816335
100650.384739
100671.086058
100703.182978
100757.417989
100838.722911
100938.843765
101043.305303
101121.982488
101134.373116
101135.62998
101137.364416
101138.584668
101140.199704
101141.609827
101143.344831
101144.137012
100573.116112
100595.596031
100626.968583
100658.15244
100679.656081
100704.162197
100743.816053
100805.598379
100887.24767
100982.677038
101080.445787
101138.198747
101141.643453
101142.673748
101143.114637
101144.275565
101144.71725
101145.772357
101146.424602
101147.36602
100574.460013
100623.673084
100656.401723
100685.685861
100706.184642
100735.451189
100785.765232
100858.058052
100946.260503
101043.382589
101127.822581
101148.841603
101149.030879
101149.027271
101149.784137
101149.457025
101150.122969
101149.9551
101150.523177
101150.021937
100587.805421
100660.04552
100684.016836
100705.940516
100725.832887
100761.785078
100824.079359
100908.349087
101005.612693
101103.273823
101155.185492
101156.021979
101155.746279
101156.165379
101155.382232
101155.775731
101154.821629
101154.938475
101154.129247
101153.859427
100642.8651
100696.13475
100705.353348
100717.417284
100737.267403
100781.231593
100855.808843
100952.291468
101057.812007
101145.806588
101164.030044
101163.287017
101163.402531
101162.346085
101162.535592
101161.000305
101160.888499
101159.335265
101158.821653
101156.898609
100709.299035
100724.10113
100720.955396
100724.300969
100743.842929
100795.719461
100881.54087
100988.429855
101098.226746
101167.880478
101171.795003
101171.469154
101170.316035
101170.345543
101168.472432
101168.235017
101166.088454
101165.358223
101163.197615
101161.803262
100722.364862
100742.654111
100735.887007
100733.888522
100753.269973
100811.721977
100906.327902
101020.205219
101129.439763
101180.630958
101180.252727
101179.233955
101179.109379
101177.115615
101176.763275
101174.307173
101173.535862
101170.88347
101169.483357
101166.297435
100726.34864
100769.100439
100759.436489
100755.702455
100775.250713
100837.588541
100937.301023
101054.265652
101158.117498
101190.464941
101188.997195
101188.591541
101186.725694
101186.259933
101183.685368
101182.884663
101179.902721
101178.48201
101175.254553
101172.974962
100727.716154
100822.82934
100805.478387
100803.280983
100822.248545
100884.23926
100983.897531
101098.908759
101188.097982
101199.651369
101198.647896
101196.82264
101196.28396
101193.564597
101192.687773
101189.500656
101188.187838
101184.457384
101180.959418
101178.712658
100733.309269
100921.311155
100886.751012
100886.723698
100904.34358
100961.776285
101055.136982
101158.930324
101209.610727
101207.804118
101206.247874
101205.597903
101202.813079
101201.779991
101198.453224
101196.955805
101186.288511
101179.415086
101181.637911
101184.677939
100734.2753
101037.448489
101000.14749
101004.096494
101021.650399
101071.175721
101148.530763
101290.916734
101291.088734
101291.267888
101291.452612
101291.636126
101291.809725
101291.965338
101292.097876
101292.205955
101292.290494
101292.353438
101292.397153
101292.424253
101292.437984
101292.442626
101292.442217
101292.426054
101281.665905
101283.755579
101284.679912
101285.455575
101286.115869
101286.694037
101287.20662
101287.659615
101288.054459
101288.391702
101288.673528
101288.904137
101289.088642
101289.232276
101289.34003
101289.416674
101289.467233
101289.497689
101289.513825
101289.50576
101271.139588
101277.130434
101278.905619
101280.314931
101281.483896
101282.47409
101283.322163
101284.048803
101284.667156
101285.18743
101285.619531
101285.973425
101286.258546
101286.483477
101286.655892
101286.782729
101286.870788
101286.927602
101286.960698
101286.96172
101257.358423
101271.393172
101274.170432
101276.122737
101277.730958
101279.077816
101280.216164
101281.179392
101281.991063
101282.669945
101283.232612
101283.693927
101284.066988
101284.36323
101284.592611
101284.763919
101284.885411
101284.965872
101285.014259
101285.024432
101239.437068
101266.582126
101271.073814
101273.402581
101275.312871
101276.907855
101278.2493
101279.378735
101280.326848
101281.118352
101281.774359
101282.313004
101282.74983
101283.098172
101283.369532
101283.573952
101283.720652
101283.819105
101283.879207
101283.897496
101218.28318
101261.964722
101269.92157
101272.480101
101274.523858
101276.232102
101277.667545
101278.874596
101279.887077
101280.732475
101281.433913
101282.010891
101282.479928
101282.855127
101283.148623
101283.370975
101283.531722
101283.640468
101283.707377
101283.731826
101196.250998
101256.762082
101270.669968
101273.466136
101275.475689
101277.16079
101278.578573
101279.771605
101280.773146
101281.610454
101282.306299
101282.879728
101283.346847
101283.721403
101284.01526
101284.238745
101284.401115
101284.511486
101284.579672
101284.607703
101176.495959
101251.123387
101273.007965
101276.283163
101278.11438
101279.655015
101280.954828
101282.050683
101282.972244
101283.744063
101284.386614
101284.91702
101285.349795
101285.697398
101285.970633
101286.17894
101286.330722
101286.434162
101286.498167
101286.526905
101162.01538
101246.160652
101276.538386
101280.694496
101282.246132
101283.547546
101284.650087
101285.582211
101286.367844
101287.027093
101287.576799
101288.031125
101288.402177
101288.700427
101288.935032
101289.114036
101289.24458
101289.333514
101289.388502
101289.415118
101153.627566
101242.901912
101280.911678
101286.346064
101287.571993
101288.573433
101289.426323
101290.149626
101290.760567
101291.273974
101291.702407
101292.056558
101292.345676
101292.577856
101292.760249
101292.899176
101293.000219
101293.06871
101293.110845
101293.132812
101149.445816
101241.35158
101285.83683
101292.836573
101293.739357
101294.413576
101294.991234
101295.482299
101295.89741
101296.246104
101296.536632
101296.776147
101296.970949
101297.126623
101297.248172
101297.340047
101297.406155
101297.450161
101297.476759
101297.492031
101146.352831
101240.289725
101290.912063
101299.779273
101300.393729
101300.738577
101301.036374
101301.289342
101301.50221
101301.679681
101301.826021
101301.94506
101302.040263
101302.114773
101302.171458
101302.212897
101302.241281
101302.258628
101302.268103
101302.275129
101140.837095
101237.540655
101295.450796
101306.814141
101307.207074
101307.236374
101307.263522
101307.284614
101307.299333
101307.30817
101307.311863
101307.311233
101307.307139
101307.30043
101307.291953
101307.282494
101307.272616
101307.262675
101307.254352
101307.252017
101130.231306
101230.926338
101298.541507
101313.595457
101313.889666
101313.625007
101313.397913
101313.200191
101313.027262
101312.875943
101312.743824
101312.628999
101312.529926
101312.445336
101312.374192
101312.315612
101312.268627
101312.232023
101312.205934
101312.193413
101114.386026
101219.177487
101299.091549
101319.74598
101320.183849
101319.648459
101319.186091
101318.786299
101318.440429
101318.141743
101317.884797
101317.665068
101317.478736
101317.322533
101317.19367
101317.08974
101317.008415
101316.946932
101316.903802
101316.880515
101096.545841
101202.436814
101295.605561
101324.700673
101325.821795
101325.050337
101324.378535
101323.800439
101323.303205
101322.876389
101322.511457
101322.201301
101321.939914
101321.722158
101321.543662
101321.400694
101321.289778
101321.206765
101321.148285
101321.113959
101080.613983
101180.615041
101285.91664
101327.48906
101330.487005
101329.559562
101328.722625
101328.005531
101327.391784
101326.867369
101326.420837
101326.042725
101325.725112
101325.461288
101325.245604
101325.073362
101324.940414
101324.841497
101324.770948
101324.725849
101063.469741
101152.295882
101267.139
101326.342989
101333.764326
101332.910207
101331.984521
101331.191785
101330.515425
101329.939271
101329.449907
101329.036308
101328.689329
101328.401316
101328.165927
101327.978104
101327.833852
101327.727959
101327.65189
101327.597847
101041.454057
101117.696236
101235.939694
101317.878334
101334.995361
101334.912334
101334.009724
101333.225633
101332.557271
101331.988825
101331.506515
101331.098988
101330.756914
101330.472569
101330.239653
101330.053326
101329.91039
101329.807069
101329.733093
101329.673183
101026.197105
101083.623808
101192.03572
101296.845919
101332.682023
101335.439477
101334.759422
101334.080508
101333.500308
101333.006781
101332.587639
101332.232664
101331.933588
101331.683727
101331.477788
101331.3119
101331.183972
101331.092443
101331.02803
101330.966827
101018.917488
101050.629838
101141.849243
101260.010772
101323.458328
101334.13008
101334.296772
101333.841277
101333.436915
101333.089714
101332.792127
101332.537277
101332.319657
101332.135005
101331.980238
101331.853432
101331.754088
101331.682943
101331.63576
101331.580794
101010.130812
101015.655832
101093.144927
101211.359675
101302.669514
101329.82709
101332.786996
101332.751184
101332.601141
101332.462656
101332.337028
101332.223124
101332.119852
101332.026622
101331.943569
101331.871589
101331.812169
101331.767514
101331.741679
101331.701604
101000.43656
101000.723179
101054.243395
101159.346493
101268.30466
101319.890215
101330.169671
101331.190098
101331.353381
101331.461025
101331.537539
101331.589358
101331.620972
101331.636248
101331.639161
101331.634111
101331.625312
101331.615492
101331.608672
101331.58213
100993.46432
100991.523677
101023.803551
101112.016123
101224.900791
101301.269876
101325.570154
101329.522275
101330.120269
101330.476657
101330.757206
101330.97663
101331.145153
101331.270967
101331.361539
101331.424379
101331.46631
101331.490365
101331.498149
101331.478815
100998.375297
100983.781467
100995.549885
101070.553351
101179.173606
101273.455848
101317.223365
101327.72955
101329.320836
101329.899861
101330.354246
101330.717319
101331.003722
101331.224801
101331.390276
101331.508477
101331.586943
101331.632778
101331.651818
101331.640645
101017.715513
100977.285913
100978.40508
101033.913728
101134.017516
101238.928991
101303.484511
101325.115876
101329.19992
101330.040812
101330.61291
101331.07462
101331.442749
101331.730237
101331.946324
101332.099156
101332.199154
101332.25755
101332.284327
101332.282711
101042.725498
100972.77207
100973.436676
101004.883135
101091.564871
101201.303137
101284.215916
101320.540908
101329.575475
101331.061563
101331.693936
101332.200846
101332.608005
101332.925819
101333.162511
101333.32937
101333.43869
101333.501937
101333.532991
101333.541628
101066.336502
100971.027449
100970.558011
100982.308706
101055.282339
101165.083208
101261.342168
101313.147896
101329.708421
101332.886465
101333.610297
101334.111167
101334.513952
101334.824411
101335.054632
101335.218132
101335.325367
101335.387975
101335.421386
101335.43938
101084.016248
100974.913763
100968.080386
100969.283186
101028.489366
101134.921864
101237.782834
101302.553079
101328.534662
101335.046953
101336.199879
101336.66857
101337.02996
101337.30343
101337.504222
101337.647475
101337.744488
101337.805005
101337.841952
101337.861159
101095.02008
100983.197398
100966.999989
100967.355964
101013.697984
101111.334208
101214.373183
101288.460953
101324.973495
101336.67611
101339.069134
101339.585151
101339.90093
101340.133513
101340.299697
101340.424952
101340.52256
101340.59567
101340.649017
101340.66153
101102.69627
100995.210556
100965.53096
100966.182809
101004.016444
101089.697274
101188.636105
101269.962841
101318.00358
101336.898533
101341.643828
101342.515827
101342.894414
101343.181622
101343.392453
101343.557856
101343.705463
101343.836924
101343.939618
101343.958081
101107.798138
101009.666532
100967.436305
100965.707926
100991.35471
101059.262593
101152.275644
101242.529344
101304.99289
101334.203269
101343.143962
101345.156887
101345.978987
101346.593749
101347.241236
101347.663628
101347.94336
101348.20495
101348.36101
101348.407635
101113.675186
101028.297608
100977.859741
100963.033897
100966.814213
101007.793046
101094.196148
101195.573917
101276.631958
101322.530342
101340.876646
101346.548185
101348.691375
101348.717462
101349.434696
101351.040532
101350.753591
101352.748462
101353.710785
101353.794749
101122.294857
101053.353647
100996.30459
100954.402436
100931.348227
100950.910141
101019.105705
101118.582221
101214.310468
101282.386435
101319.439488
101334.963065
101345.099481
101341.417233
101308.405243
101300.741085
101304.905203
101325.245993
101347.842725
101353.946083
101137.554881
101083.545145
101016.467335
100946.065586
100929.110049
100928.346045
100956.633846
101029.500643
101121.545017
101201.68238
101254.16604
101289.76404
101316.901116
101296.699485
101164.27404
100888.954003
100815.212887
100999.734335
101246.920527
101333.439792
101156.463781
101116.621418
101041.604332
100953.253847
100930.654853
100929.156545
100933.359329
100969.710448
101036.883812
101108.831391
101172.695445
101236.121789
101213.012834
100935.612137
100695.369276
100697.908521
100694.557373
100697.75608
100959.006796
101310.137658
101172.540958
101147.123141
101072.421207
100971.056444
100932.769755
100931.674915
100930.415644
100943.62696
100979.995178
101041.742028
101128.729297
101116.694862
100845.394318
100696.285255
100700.133433
100696.410066
100699.854389
100696.45067
100836.555883
101303.533169
101181.998556
101169.203605
101108.646305
101000.300094
100939.20174
100934.06692
100933.083586
100936.783744
100956.332855
101008.699398
101056.768104
100866.277373
100698.238306
100702.279496
100698.286191
100701.8434
100698.207302
100701.659684
100811.87429
101305.870387
)
;

boundaryField
{
    emptyPatch
    {
        type            empty;
    }
    minY
    {
        type            zeroGradient;
    }
    maxY
    {
        type            prghTotalPressure;
        U               U.gas;
        p0              nonuniform List<scalar> 0();
        value           nonuniform List<scalar> 0();
    }
    water_to_cooler
    {
        type            fixedFluxPressure;
        gradient        uniform 0;
        value           nonuniform List<scalar> 
38
(
101292.426054
101289.50576
101286.96172
101285.024432
101283.897496
101283.731826
101284.607703
101286.526905
101289.415118
101293.132812
101297.492031
101302.275129
101307.252017
101312.193413
101316.880515
101321.113959
101324.725849
101327.597847
101329.673183
101330.966827
101331.580794
101331.701604
101331.58213
101331.478815
101331.640645
101332.282711
101333.541628
101335.43938
101337.861159
101340.66153
101343.958081
101348.407635
101353.794749
101353.946083
101333.439792
101310.137658
101303.533169
101305.870387
)
;
    }
    water_to_heater
    {
        type            fixedFluxPressure;
        gradient        uniform 0;
        value           nonuniform List<scalar> 
60
(
101039.267088
101039.267088
100910.098094
100806.537588
100770.560968
100770.560968
100765.582044
100765.582044
100766.559005
100766.559005
100765.800326
100768.369429
100767.561724
100767.561724
100770.606429
100770.606429
100770.12972
100770.12972
100773.367724
100773.087191
100776.449166
100776.449166
100775.796118
100775.796118
100779.311161
100779.311161
100779.617324
100782.532175
100830.972312
100830.972312
100949.772445
100949.772445
101034.204892
101034.204892
100891.69719
100710.405427
100591.119141
100591.119141
100569.425155
100569.425155
100571.409485
100571.409485
100571.058459
100573.17877
100573.116112
100573.116112
100574.460013
100574.460013
100587.805421
100587.805421
100642.8651
100709.299035
100722.364862
100722.364862
100726.34864
100726.34864
100727.716154
100727.716154
100733.309269
100734.2753
)
;
    }
    procBoundary3to1
    {
        type            processor;
        value           nonuniform List<scalar> 
41
(
101212.071314
101214.982018
101213.312213
101212.734694
101210.002232
101208.942735
101205.382144
101198.231843
101185.97478
101178.162915
101178.595028
101185.183986
101189.041901
100738.681125
101112.854226
101106.263216
101116.792319
101136.3306
101175.220867
101212.071314
101216.22776
101186.962913
101183.116454
101147.000953
101046.29219
100957.250612
100936.606991
100935.567533
100936.6115
100962.154313
101010.976793
100890.144708
100701.253387
100704.178358
100700.228538
100703.862414
100700.355319
100703.573758
100700.694321
100819.322325
101324.315846
)
;
    }
    procBoundary3to2
    {
        type            processor;
        value           nonuniform List<scalar> 
41
(
101099.038403
101102.899236
101082.087406
101077.885429
101101.188776
101122.305053
101135.320527
101148.469392
101163.8218
101175.446497
101178.398762
101175.261416
101166.209049
101146.777198
101119.738468
101105.374528
101104.143136
101137.560136
101219.764551
101280.747788
101296.131287
101295.909017
101295.75943
101295.669016
101295.622843
101295.605737
101295.603681
101295.606052
101295.606937
101295.603838
101295.596003
101295.583589
101295.567388
101295.549049
101295.5313
101295.516624
101295.494263
101290.253531
101290.578257
101290.745437
101290.745437
)
;
    }
}


// ************************************************************************* //
