/*--------------------------------*- C++ -*----------------------------------*\
| =========                 |                                                 |
| \\      /  F ield         | OpenFOAM: The Open Source CFD Toolbox           |
|  \\    /   O peration     | Version:  2312                                  |
|   \\  /    A nd           | Website:  www.openfoam.com                      |
|    \\/     M anipulation  |                                                 |
\*---------------------------------------------------------------------------*/
FoamFile
{
    version     2.0;
    format      ascii;
    arch        "LSB;label=32;scalar=64";
    class       volScalarField;
    location    "0.745/water";
    object      Tf.gasAndLiquid;
}
// * * * * * * * * * * * * * * * * * * * * * * * * * * * * * * * * * * * * * //

dimensions      [0 0 0 1 0 0 0];

internalField   nonuniform List<scalar> 
6000
(
314.324175171
306.077259365
302.624772466
301.071639514
300.45517558
300.091896343
300.003900154
300.000022959
300.000000019
300
300
300
300
300
300
300
300
300
300
300
320.175291905
308.261703979
302.985624565
301.093087847
300.396172344
300.143741606
300.046056534
300.005196906
300.000076472
300.000000081
300
300
300
300
300
300
300
300
300
300
320.346806613
307.837225799
302.670909657
300.892867835
300.294593647
300.09680289
300.031523319
300.007842622
300.000548419
300.000005715
300.000000002
300
300
300
300
300
300
300
300
300
319.479930928
307.859273697
302.800284396
300.936433699
300.303214204
300.095328694
300.028760088
300.008334496
300.001343176
300.000050009
300.000000384
300
300
300
300
300
300
300
300
300
318.595311453
307.693886108
302.91539855
301.024746254
300.345422437
300.113163226
300.03478108
300.009809013
300.002621463
300.000232242
300.00000549
300.000000001
300
300
300
300
300
300
300
300
317.626931788
307.366152101
302.904612542
301.073871526
300.380212805
300.132421206
300.044020379
300.012955924
300.003456015
300.000640169
300.000029106
300.000000512
300
300
300
300
300
300
300
300
317.132755995
307.092739783
302.822355234
301.077071223
300.397506237
300.146097636
300.05269495
300.016877372
300.004553614
300.001187067
300.000120846
300.000003366
300
300
300
300
300
300
300
300
316.985033232
306.907038488
302.725486264
301.052542019
300.402379766
300.155336276
300.060186765
300.021137595
300.005944846
300.001480796
300.000326462
300.000014792
300.000000009
300
300
300
300
300
300
300
316.956089608
306.862279451
302.704891482
301.05349013
300.413381439
300.166541826
300.068283636
300.025935378
300.00775606
300.001854121
300.000475098
300.000057617
300.000000313
300
300
300
300
300
300
300
317.001226612
306.86285449
302.707670477
301.066015782
300.428306741
300.179267069
300.077075248
300.031079619
300.009876296
300.002316929
300.000537541
300.000145338
300.000004738
300.000000004
300
300
300
300
300
300
317.067186211
306.84467267
302.69380585
301.06973047
300.439006565
300.190024482
300.085113422
300.036178477
300.012240373
300.002835262
300.000593728
300.000161447
300.000020678
300.00000013
300
300
300
300
300
300
317.147343166
306.777554848
302.638837701
301.05159046
300.439487547
300.195792487
300.090905493
300.040458942
300.014705227
300.003546235
300.000657473
300.000156998
300.000045064
300.000001312
300.000000001
300
300
300
300
300
317.161449862
306.643433529
302.530481559
301.001205757
300.424232924
300.194633331
300.09368464
300.043579041
300.016946594
300.004402044
300.000763234
300.000153099
300.000046901
300.000004215
300.00000001
300
300
300
300
300
317.110596726
306.6227152
302.48794111
300.967605371
300.409649289
300.191643988
300.095232705
300.046185881
300.01909804
300.00540463
300.000922948
300.000152713
300.000039206
300.000007467
300.000000066
300
300
300
300
300
316.847413954
306.604655288
302.481133686
300.954541639
300.401134494
300.190041293
300.097393709
300.049207295
300.021551833
300.006658565
300.001166456
300.000159079
300.00003192
300.00000966
300.000000265
300
300
300
300
300
316.317964946
306.496173305
302.464089588
300.946053352
300.397104905
300.191669543
300.101786712
300.053654151
300.024831849
300.008352651
300.001548596
300.000180804
300.000027223
300.000006975
300.000000602
300.000000002
300
300
300
300
316.316841116
306.53741144
302.491043645
300.958936375
300.406620607
300.201195455
300.110569525
300.06052203
300.029382211
300.010652335
300.002133242
300.000233285
300.000028213
300.000005793
300.000001312
300.000000021
300
300
300
300
317.348162046
306.940061306
302.634897282
301.019223496
300.438639206
300.221134255
300.124073508
300.069648855
300.035037603
300.01343789
300.002908697
300.000325693
300.000036639
300.000006685
300.000001437
300.000000105
300
300
300
300
317.964554471
307.31225895
302.85326032
301.125877481
300.488765042
300.247419722
300.139836118
300.079601496
300.040940616
300.016301016
300.003744497
300.000445922
300.000052004
300.000009075
300.000001788
300.000000364
300.000000004
300
300
300
318.131347066
307.481549399
302.99030422
301.211187062
300.533321998
300.271323409
300.154312342
300.088858333
300.046509889
300.018894041
300.004537053
300.000566642
300.000069297
300.000012131
300.000002251
300.00000041
300.000000007
300
300
300
318.200412288
307.521896653
303.030803299
301.248260232
300.559200251
300.28781868
300.165569633
300.096789449
300.051669714
300.021133
300.005213577
300.000680942
300.000084739
300.000014975
300.000002647
300.000000433
300
300
300
300
318.267804675
307.464002498
302.99828555
301.243295792
300.566098011
300.296682942
300.173511052
300.103182119
300.056052985
300.023142693
300.005819433
300.000788856
300.000098679
300.000017439
300.00000296
300.000000439
300
300
300
300
318.255003993
307.293269698
302.87475044
301.193162841
300.554154164
300.298390341
300.178499066
300.107997302
300.059156423
300.024868084
300.006417655
300.000891396
300.000109449
300.00001929
300.000003222
300.000000445
300
300
300
300
318.201531472
307.18285412
302.786598795
301.146817069
300.538598276
300.297108444
300.181485676
300.110973451
300.061073241
300.026302517
300.007063246
300.001011204
300.00011646
300.000020114
300.000003358
300.000000451
300
300
300
300
318.103069158
307.139593561
302.749734364
301.124154919
300.529743585
300.296260299
300.1830167
300.112067115
300.061977622
300.02739153
300.007801997
300.001157423
300.000125784
300.000021412
300.000003544
300.000000464
300
300
300
300
318.037877244
307.125987799
302.74380844
301.123592946
300.530693739
300.297350673
300.183211187
300.111724397
300.062022568
300.028106204
300.008501068
300.001345815
300.000148929
300.000023529
300.000003696
300.000000461
300
300
300
300
317.969267534
307.096338402
302.734717871
301.126998492
300.534758633
300.298496268
300.182011884
300.110237458
300.061352813
300.028466394
300.009129888
300.001621093
300.000175144
300.000024141
300.000003625
300.000000395
300
300
300
300
317.899111486
307.002236815
302.685698479
301.111276377
300.531148241
300.29611986
300.179072084
300.107919151
300.060441685
300.028739044
300.009997979
300.001995976
300.000205207
300.000023337
300.000002988
300.000000246
300
300
300
300
317.830441855
307.046148672
302.707946965
301.113894268
300.528616968
300.292088826
300.175693048
300.106116623
300.060222385
300.029879493
300.011400135
300.002473847
300.000246509
300.000023089
300.000002426
300.00000009
300
300
300
300
317.363910534
307.004453887
302.725520711
301.120101422
300.522884906
300.285863093
300.172573631
300.10592988
300.062093496
300.032546633
300.013345785
300.003139267
300.000310493
300.000022639
300.000001999
300
300
300
300
300
316.311495906
306.645802926
302.624025582
301.07213078
300.493534037
300.272431238
300.169998755
300.108667713
300.066792574
300.036951694
300.016123875
300.004084604
300.000407932
300.000021881
300.000001734
300
300
300
300
300
315.368493642
306.229733681
302.419806861
300.961830735
300.439843237
300.258094999
300.172617418
300.116228377
300.074651677
300.043258835
300.01993462
300.005446848
300.000563225
300.000023738
300.000001685
300
300
300
300
300
315.101190801
305.96965689
302.189203776
300.821846464
300.398139108
300.260043402
300.184794832
300.12934816
300.08598263
300.051733175
300.025074823
300.007425516
300.000830182
300.000032632
300.00000226
300
300
300
300
300
316.001870127
306.048037364
302.039289597
300.743766817
300.402414668
300.279143663
300.204960206
300.147239044
300.100468976
300.062491395
300.031817208
300.010225125
300.001276388
300.000056384
300.000004326
300.000000228
300
300
300
300
318.268346403
306.682765538
302.240996008
300.826574801
300.445469848
300.309751385
300.229900685
300.167979724
300.117008387
300.074795076
300.039817937
300.013861867
300.001964613
300.000107032
300.000009555
300.000001028
300
300
300
300
320.299943401
308.497534657
303.092997657
301.093994446
300.533713686
300.350048732
300.25656678
300.188978114
300.133651904
300.087390574
300.048350391
300.018054928
300.002916271
300.000197791
300.000020581
300.000002615
300.000000026
300
300
300
321.858696345
308.917765516
303.561447612
301.356240684
300.645274275
300.396986783
300.282833134
300.208115276
300.148660014
300.098842182
300.056398944
300.022384019
300.004110637
300.000336521
300.000039487
300.000005637
300.000000418
300
300
300
322.649516648
308.987001417
303.584648212
301.432753552
300.699446844
300.430774484
300.303562604
300.222883599
300.160127084
300.107555167
300.062592007
300.026204234
300.005508292
300.000527805
300.000064967
300.000010133
300.000001081
300
300
300
322.952051873
308.731982055
303.37726941
301.361683123
300.691362835
300.447970645
300.317782429
300.233386988
300.168035687
300.113224827
300.066210864
300.02850575
300.00675485
300.000781667
300.000092535
300.000015395
300.000001941
300
300
300
322.858126788
308.441391073
303.145934713
301.28070103
300.696871885
300.45950274
300.327876793
300.240815751
300.173233162
300.116357851
300.067613647
300.029406114
300.007506061
300.001026219
300.000118337
300.00002055
300.000002859
300.000000031
300
300
322.624607204
308.061171531
302.889814784
301.217027378
300.717874998
300.475521247
300.33769625
300.246764489
300.176552727
300.11736749
300.067268018
300.029277645
300.007852055
300.001204658
300.000142775
300.000025229
300.000003778
300.000000107
300
300
322.192536499
307.786536087
302.807028553
301.310826193
300.777086636
300.502356482
300.349603253
300.252116125
300.178223752
300.116347439
300.06556287
300.028445386
300.007915216
300.00131733
300.000160887
300.000029301
300.000004621
300.000000165
300
300
321.748695946
307.584725612
302.961726751
301.50467828
300.857799005
300.53406023
300.36185044
300.256124695
300.177508395
300.11318535
300.062666816
300.027082225
300.007765499
300.001367477
300.000172546
300.000032579
300.000005309
300.000000175
300
300
321.231456576
307.697319188
303.424066007
301.717946862
300.939615352
300.56382464
300.372102722
300.257423914
300.173583952
300.108007467
300.05885089
300.025385011
300.007488947
300.001375263
300.000181895
300.000034977
300.000005718
300.00000012
300
300
321.137765156
308.484589663
303.843680321
301.890608036
301.00103336
300.584824474
300.377328652
300.253693478
300.166118577
300.101141329
300.054505163
300.023621516
300.007200795
300.001377378
300.000195975
300.000036535
300.00000574
300.000000019
300
300
321.424321865
308.990208799
304.049667352
301.959380209
301.021607332
300.589529006
300.372382786
300.243075472
300.155287079
300.093219221
300.050168636
300.022104675
300.00703277
300.00143463
300.000223859
300.0000372
300.000005365
300
300
300
321.900286253
309.011571822
303.966026154
301.897986423
300.989606562
300.568771648
300.352282257
300.225739297
300.142194156
300.085263463
300.046520369
300.021174262
300.00713972
300.001622272
300.000269982
300.00003673
300.000004654
300
300
300
322.225476487
308.707537511
303.671529369
301.735000011
300.903336007
300.516143345
300.319881676
300.204044948
300.128985988
300.078746933
300.044370045
300.021234192
300.007746026
300.001988019
300.000339176
300.000037826
300.000003735
300
300
300
322.503436251
308.735030377
303.482366774
301.565351834
300.790013483
300.453485802
300.283519444
300.183384926
300.119087034
300.075557095
300.044667935
300.022714805
300.009037612
300.002519684
300.000439546
300.000043942
300.000002751
300
300
300
321.237807127
308.641828688
303.295880163
301.383380567
300.678158135
300.391860611
300.251885972
300.169779283
300.11559199
300.077078017
300.047856026
300.025774874
300.01101754
300.003271335
300.000589536
300.000057225
300.00000184
300
300
300
317.534115068
307.482510427
302.875462162
301.169883584
300.564954728
300.339921599
300.232874423
300.166498094
300.119773318
300.083724629
300.054403089
300.030857829
300.013965168
300.004401327
300.00083406
300.000085093
300.000001197
300
300
300
314.321831409
306.242243892
302.35778092
300.89588469
300.46069056
300.314247569
300.233569886
300.177091561
300.133433931
300.097040806
300.065529484
300.038871771
300.018568181
300.006263951
300.001283787
300.000146968
300.000004193
300.000000491
300
300
314.061974052
306.421038955
302.24141877
300.7984417
300.458895597
300.3358863
300.260527775
300.204606228
300.159004997
300.118886477
300.082740577
300.051001909
300.025664534
300.009276129
300.002070111
300.000266615
300.000013967
300.000001029
300.000000513
300
320.155636184
309.264598093
303.459901673
301.194763621
300.595694581
300.40808037
300.313788032
300.248909619
300.19630154
300.149315163
300.106335456
300.067705649
300.035672803
300.013726659
300.003316565
300.000473238
300.000033246
300.000001231
300.000000898
300.000000139
336.132015509
312.705121398
304.927994902
301.917822329
300.874006414
300.529411579
300.390018181
300.304712749
300.240335287
300.184480677
300.133772692
300.087550372
300.047997978
300.019533446
300.005084464
300.000797023
300.000067794
300.000001325
300.000000879
300.000000173
344.291457316
315.01742784
305.784332065
302.319502593
301.074199537
300.638520545
300.463153391
300.359939843
300.28236188
300.217877747
300.160326463
300.107467351
300.060975591
300.026078689
300.007274645
300.001245023
300.0001228
300.000002147
300.000000622
300.000000109
347.251453476
316.058070705
306.119114155
302.47493554
301.162649513
300.693185545
300.501864066
300.394192354
300.312960001
300.244078476
300.182122952
300.124588771
300.072733934
300.032509186
300.009690454
300.001813395
300.000204379
300.000006558
300.000000648
300.000000021
348.375829442
316.437583456
306.130072436
302.458162376
301.168393055
300.706459707
300.515028216
300.408509585
300.328708228
300.260264168
300.197129603
300.13711101
300.081835836
300.038019401
300.012131052
300.00249194
300.000318825
300.000017808
300.000001333
300
348.873309649
316.349216696
305.87393193
302.305360708
301.111750028
300.691425418
300.513715401
300.412672802
300.33565159
300.268361474
300.205233562
300.143943485
300.08689459
300.041547276
300.014097717
300.003152634
300.000444998
300.000032766
300.00000258
300
348.770597917
315.712388871
305.453107217
302.094877989
301.020272565
300.658872337
300.503712407
300.411398106
300.337417082
300.271108924
300.207897686
300.145553878
300.087703266
300.042329011
300.014880801
300.003556056
300.000550831
300.000048389
300.000003819
300
347.785030891
314.794959907
304.969881787
301.872727046
300.931041583
300.624464208
300.493151319
300.407431461
300.335572039
300.269716162
300.205983828
300.142564838
300.084880604
300.040788852
300.014529169
300.003590381
300.000587322
300.0000575
300.000004774
300
345.605411938
313.569989367
304.370529622
301.631746895
300.84921242
300.597383458
300.484614084
300.401676556
300.330738669
300.264681702
300.199819352
300.135578422
300.079224005
300.0376069
300.013397193
300.003351176
300.000560238
300.000058053
300.000005193
300
342.188410603
311.902116659
303.656360224
301.429490859
300.793146261
300.587075915
300.476543844
300.394353622
300.323234843
300.256215921
300.189557741
300.12541358
300.071728994
300.033576375
300.011910531
300.002981953
300.000501684
300.000052591
300.00000533
300
339.016868904
310.449453661
303.30874066
301.342341241
300.790977077
300.585152204
300.470479462
300.386351904
300.313697245
300.244475103
300.175858255
300.113337571
300.063616827
300.029519377
300.01047373
300.002628933
300.00044356
300.00004647
300.000005171
300
337.394753981
310.040165652
303.408331121
301.502491518
300.854700985
300.601910434
300.470108279
300.379381397
300.302683646
300.229590249
300.160335352
300.10112974
300.056224474
300.026194958
300.009426775
300.002405423
300.000414657
300.00004366
300.000005126
300
333.159928202
309.905049487
304.11040673
301.878019371
301.002083581
300.647430585
300.479176725
300.374188394
300.289473957
300.212820549
300.145158279
300.090589955
300.050676661
300.024149239
300.008995215
300.002392008
300.000430888
300.000047835
300.000005203
300
327.127952914
310.915716251
304.859623372
302.307719909
301.194789337
300.716375747
300.495220564
300.367548258
300.274052634
300.196466694
300.132403999
300.083104563
300.047673536
300.023684584
300.009316014
300.002640014
300.00050915
300.000060984
300.000005534
300.000000043
322.82675303
310.708823143
305.15327412
302.558643692
301.334590141
300.768799276
300.499879332
300.355084692
300.25778216
300.182567296
300.123552432
300.079468067
300.047533034
300.024953762
300.010514131
300.003223443
300.000669344
300.00008687
300.000005904
300.000000091
320.068111717
310.051598937
305.104671855
302.625083391
301.375027208
300.767013225
300.484014075
300.33716748
300.24291382
300.172776963
300.11958469
300.080103714
300.050465754
300.02815531
300.012790504
300.00425448
300.000951674
300.000131945
300.000006443
300.00000009
317.959535313
309.111907261
304.73771103
302.478476095
301.28356533
300.710227522
300.451442634
300.317640182
300.231682961
300.168524713
300.121244083
300.085419652
300.056754089
300.033686619
300.01643973
300.005940436
300.001440829
300.000213484
300.00001141
300.000000086
315.919102478
307.987320788
304.11241291
302.133192057
301.105490219
300.629146913
300.416533324
300.303329586
300.227932349
300.171640586
300.129428861
300.095735154
300.066957614
300.042065277
300.022080641
300.008750692
300.00230051
300.000368191
300.000026602
300.000000121
314.206219727
306.93098726
303.510123456
301.806648343
300.961039248
300.580977421
300.405675274
300.305713723
300.235708976
300.184025519
300.144841837
300.112187283
300.082114617
300.054530496
300.030870803
300.013387246
300.0039019
300.000703744
300.000069543
300.00000038
313.794428643
306.80691429
303.601104111
301.982983691
301.118787037
300.681129402
300.462116582
300.340857982
300.26288535
300.209437417
300.170297513
300.136604522
300.103931811
300.072461886
300.04392147
300.02095494
300.006914813
300.001458464
300.000192359
300.000011
316.454604049
309.282985423
305.551654689
303.269619442
301.860210312
301.060318548
300.644178545
300.434979089
300.32281597
300.255147221
300.208194729
300.169396826
300.132053281
300.095504097
300.061415982
300.032089198
300.012049423
300.003006165
300.000507849
300.000057028
326.905533181
314.633758374
308.138501304
304.537613083
302.535355634
301.444046879
300.871761269
300.580576566
300.4255509
300.329756871
300.260720189
300.208146698
300.163100623
300.120760185
300.081420571
300.046196179
300.019658107
300.005808726
300.00122389
300.000198944
343.899735681
317.914948753
308.861304848
304.749109282
302.670859739
301.576111735
300.998988941
300.693291335
300.520470185
300.405902473
300.317018076
300.24781196
300.192412637
300.144036136
300.100339864
300.060916322
300.028954646
300.010008236
300.002556052
300.000523948
351.611831257
318.89160909
308.577974902
304.433226583
302.508377582
301.528217559
301.011672885
300.729517879
300.561758273
300.445052166
300.350565438
300.274930289
300.213707718
300.161430262
300.115096524
300.073385231
300.03794159
300.014794043
300.004372374
300.001058548
353.73323118
318.387563524
307.775405421
303.894162641
302.227958429
301.40195151
300.963746838
300.717800674
300.56504658
300.454017769
300.361714092
300.286285974
300.22472251
300.17149946
300.124252159
300.081689817
300.044507846
300.018766475
300.006154437
300.001701808
353.78586756
316.849124092
306.459009624
303.125339087
301.839066991
301.218706052
300.87903738
300.678782333
300.546824571
300.445644293
300.359713174
300.288168634
300.228177757
300.175489694
300.128490454
300.08592695
300.048198945
300.021360303
300.007586222
300.002368825
351.218879506
314.007304726
304.804699622
302.259338844
301.410379186
301.012054066
300.778490407
300.627471894
300.517994476
300.428582891
300.351157178
300.285033916
300.227077391
300.17552859
300.129306892
300.087104376
300.049513317
300.022705548
300.008657953
300.003056924
341.100645894
310.828894116
303.470407204
301.599471483
301.072935171
300.838756309
300.689551066
300.57938082
300.48962298
300.410735989
300.340981858
300.279091173
300.223413092
300.173415518
300.128204019
300.086314211
300.049276016
300.023271264
300.009546587
300.003817556
330.091675751
310.063799226
303.066583104
301.264411789
300.886798313
300.733787898
300.626485036
300.541560067
300.465684152
300.39491982
300.330769877
300.272150669
300.218918596
300.170687247
300.126300072
300.084413916
300.04835705
300.023584204
300.010440513
300.004683824
323.729496202
309.997443563
303.465619401
301.246623686
300.816456893
300.674931431
300.584687699
300.512934423
300.446010372
300.381586948
300.321654465
300.266107632
300.215233184
300.168423675
300.124065587
300.082313294
300.047546516
300.02401986
300.011398082
300.005612621
321.103986244
309.531978227
303.710780547
301.296329155
300.796513945
300.6487819
300.56240326
300.49541992
300.432999058
300.372388144
300.315444453
300.262394834
300.213210577
300.166726336
300.122025678
300.080875534
300.047281928
300.024563456
300.012271395
300.006675821
320.870688313
309.26713626
303.144096672
301.29162191
300.825321782
300.658812979
300.560440549
300.49021521
300.427733676
300.368468909
300.313101894
300.261463557
300.212673826
300.165828369
300.12105945
300.080337995
300.047147508
300.024827011
300.013357168
300.007979547
324.085077819
309.808159454
303.673521789
301.501372115
300.942584903
300.729911949
300.587989095
300.498253883
300.429938701
300.369591147
300.31423471
300.262725333
300.213621807
300.166326862
300.121067572
300.079597111
300.046319675
300.025369817
300.014902561
300.009249016
335.799391189
312.429572542
304.78334025
302.027348039
301.203649051
300.87324234
300.657569806
300.524746163
300.439058138
300.373766972
300.317241306
300.265226176
300.215526061
300.167344991
300.12039093
300.077465316
300.045237934
300.026470448
300.016195498
300.010017614
344.97530307
315.267203979
306.062106816
302.696269558
301.522304214
301.020677013
300.740654271
300.560629077
300.451310535
300.378034127
300.319570374
300.266947779
300.216538013
300.166893026
300.117379009
300.073855363
300.04448283
300.026977925
300.016496443
300.009959079
349.668163469
316.973921094
306.779626735
303.065955007
301.6872238
301.087375148
300.766443721
300.575362058
300.455260545
300.377853928
300.318289051
300.265222978
300.214007251
300.162563232
300.111091574
300.069894549
300.042872688
300.025984113
300.01561526
300.009119522
351.897413201
317.293745904
306.643719085
302.945034789
301.601367503
301.029897516
300.732855644
300.556437083
300.446431615
300.371230628
300.311866696
300.258334512
300.20616885
300.153354052
300.103071742
300.065070396
300.039567879
300.023656787
300.013893009
300.007797915
352.479479258
316.593773251
305.879724122
302.511075069
301.377776755
300.915592605
300.67413241
300.526752669
300.431138237
300.3598339
300.300959947
300.24685457
300.193914566
300.141049483
300.094138598
300.059469417
300.035447791
300.0207622
300.011801303
300.00630653
351.695431011
315.109833052
305.014914239
302.081946777
301.172574484
300.815083958
300.625285362
300.501062744
300.414196973
300.345839919
300.287139162
300.232377479
300.178965954
300.127878452
300.084987077
300.053697549
300.031594869
300.017846594
300.009680902
300.004850745
349.391913282
313.570557555
304.207610825
301.713175818
301.005543463
300.738162539
300.584580097
300.477649813
300.397246928
300.330627052
300.271719676
300.216422977
300.163632383
300.11552347
300.076618911
300.048511326
300.028204773
300.015153229
300.007751694
300.003610085
346.304176997
312.13955742
303.543626694
301.436151841
300.894019752
300.683731815
300.552040511
300.45775902
300.381228471
300.315292921
300.256092326
300.200883511
300.149793667
300.104987111
300.069754185
300.044108286
300.025211081
300.012863776
300.006199571
300.002823855
342.897881967
310.829020429
303.019575298
301.271199883
300.827464469
300.642970208
300.529057812
300.441732203
300.366662127
300.30078808
300.241479233
300.187133961
300.138179356
300.096653447
300.064435859
300.040452258
300.02261292
300.011164235
300.005302204
300.002573808
339.741856466
309.720738536
302.760721383
301.217339661
300.786758778
300.618634455
300.514508988
300.429292972
300.354268131
300.28799288
300.228616084
300.175579227
300.129084246
300.09051312
300.06051385
300.037637355
300.020700976
300.010317229
300.005182722
300.002763952
337.669156108
309.212557399
302.873837164
301.288729245
300.800788293
300.614881562
300.506960683
300.42040872
300.344477017
300.277156381
300.21791494
300.166532291
300.122513354
300.086432196
300.057982538
300.035925655
300.019963079
300.010509355
300.005735682
300.003325044
334.934492227
309.297581954
303.58534869
301.599541523
300.889465603
300.632310425
300.505725996
300.414207273
300.335886661
300.267964629
300.209882214
300.160234714
300.11846417
300.084365239
300.057052165
300.035778907
300.020714174
300.011733058
300.006911397
300.004266326
329.708995062
310.83218064
304.736658583
302.103052468
301.051160248
300.672092316
300.510443613
300.40880676
300.32759228
300.260053274
300.203814565
300.156465533
300.1168714
300.084371539
300.058088346
300.037534977
300.022952712
300.013940757
300.008723634
300.005617598
324.026498722
311.407981376
305.417010735
302.482050277
301.199379961
300.71264455
300.514519384
300.401704397
300.31896206
300.252982652
300.199203101
300.154551939
300.117326671
300.086536348
300.06120251
300.04116008
300.026586234
300.017121071
300.011209685
300.007428423
319.669206508
310.12962177
305.08371468
302.428002965
301.19930709
300.708636634
300.503700453
300.390386655
300.309837879
300.246925012
300.196352152
300.154716299
300.120023555
300.090796837
300.066357471
300.046494578
300.031563155
300.021291406
300.014391741
300.009701322
316.737920828
308.471216517
304.267596082
302.075653737
301.064845517
300.656814041
300.479694261
300.377565642
300.302669742
300.243991533
300.196774255
300.157995188
300.125334552
300.097508655
300.073546553
300.053506022
300.037873107
300.026453514
300.018272774
300.012438184
315.070456513
307.135487837
303.452676794
301.665404612
300.897897877
300.599220016
300.461469321
300.372011451
300.302339735
300.246802375
300.202179432
300.165324984
300.134186762
300.107051595
300.083093386
300.062292917
300.045520567
300.032567029
300.02285236
300.015662882
314.649464374
306.775300501
303.179069905
301.530797316
300.858067632
300.59465221
300.467577174
300.380812057
300.312608491
300.258257173
300.214501815
300.178394604
300.147557727
300.120201469
300.095296946
300.073040958
300.054412747
300.039663789
300.028158446
300.019374347
316.88082751
308.339164527
304.12900539
302.102094498
301.153292857
300.716984981
300.518985371
300.411143605
300.337385883
300.28089874
300.235698186
300.198306125
300.166099415
300.13707385
300.110106831
300.085442642
300.064471338
300.047648194
300.034135903
300.023560185
326.377311565
312.332501568
306.349116168
303.411557086
301.862128305
301.043703853
300.648853824
300.470312583
300.378260077
300.315023616
300.265343624
300.224198836
300.188689911
300.156665661
300.126766211
300.099077746
300.075373766
300.056252796
300.040670828
300.028177683
342.260735158
316.30165824
307.827326764
304.120280288
302.271773648
301.302706994
300.80282259
300.557979157
300.433327813
300.357249904
300.299664532
300.252660474
300.212675802
300.177071074
300.14401451
300.113224136
300.086742033
300.065194302
300.047621645
300.033173091
350.976835856
318.203943056
308.134449948
304.107486714
302.261096897
301.343142673
300.871248691
300.625056199
300.487747431
300.398719844
300.332344944
300.279288439
300.235020358
300.196164373
300.160333056
300.126934939
300.098071567
300.074187933
300.054811078
300.038448646
354.121592975
318.082538661
307.395066888
303.583795681
302.009915183
301.263825088
300.874813558
300.656713652
300.523650868
300.429603608
300.3577963
300.300535479
300.253198333
300.212038488
300.174330607
300.139286739
300.108859754
300.083090289
300.06207972
300.043942722
352.541518002
315.733671707
305.945410377
302.819840079
301.653276564
301.125860656
300.838749621
300.661552432
300.54042026
300.447408378
300.374058342
300.315126247
300.266393842
300.224034982
300.185170831
300.149348673
300.118445237
300.091828767
300.06940919
300.049615471
343.788566631
311.824309819
304.418583011
302.155748318
301.356563467
300.996010366
300.794192018
300.653098501
300.543409307
300.454478836
300.382390176
300.323861214
300.275135801
300.232384864
300.192895188
300.157229207
300.126651747
300.09997774
300.076823122
300.055342557
333.576189945
310.239496306
303.610582815
301.712787946
301.140761556
300.896478469
300.751283561
300.636019655
300.537974541
300.454662996
300.385554963
300.328717432
300.280688179
300.237699356
300.198299364
300.163698857
300.133993687
300.107882024
300.084563545
300.061547255
331.677618486
309.741614594
303.080447174
301.417756451
300.995650608
300.826410091
300.71569586
300.6185491
300.530205614
300.45256185
300.386947876
300.331949753
300.284222612
300.24121126
300.202918869
300.169990388
300.141519921
300.116567298
300.093069761
300.068618032
329.033566598
311.659591676
303.448141296
301.338482561
300.918596042
300.783498825
300.69088468
300.605082029
300.524255485