/*--------------------------------*- C++ -*----------------------------------*\
| =========                 |                                                 |
| \\      /  F ield         | OpenFOAM: The Open Source CFD Toolbox           |
|  \\    /   O peration     | Version:  2312                                  |
|   \\  /    A nd           | Website:  www.openfoam.com                      |
|    \\/     M anipulation  |                                                 |
\*---------------------------------------------------------------------------*/
FoamFile
{
    version     2.0;
    format      ascii;
    arch        "LSB;label=32;scalar=64";
    class       volScalarField;
    location    "0.815/water";
    object      alphat.gas;
}
// * * * * * * * * * * * * * * * * * * * * * * * * * * * * * * * * * * * * * //

dimensions      [1 -1 -1 0 0 0 0];

internalField   nonuniform List<scalar> 
6000
(
1.94360666138e-07
7.97629782413e-08
3.3889078025e-08
2.3620247234e-08
9.82620761755e-08
7.35158207099e-07
3.0605349861e-06
6.8186555769e-06
1.02289864525e-05
1.23840153571e-05
1.35094044184e-05
1.40317298446e-05
1.42497042086e-05
1.43276863293e-05
1.43466926242e-05
1.43437575276e-05
1.43346219502e-05
1.43253547638e-05
1.43179122599e-05
1.43126585314e-05
9.0572400725e-07
6.45212168426e-07
3.30291026586e-07
1.7335259963e-07
7.12670169051e-08
5.50062159088e-08
1.25129345758e-07
7.41347031597e-07
3.16611101721e-06
7.13344751799e-06
1.05302355808e-05
1.25874496548e-05
1.36296795342e-05
1.40977590278e-05
1.42826202942e-05
1.43405760239e-05
1.43473407232e-05
1.43368893628e-05
1.43232982344e-05
1.43117789111e-05
1.24531512122e-06
1.07814529724e-06
7.15799475439e-07
3.98669652606e-07
2.16405415232e-07
1.02172601683e-07
7.50011130727e-08
1.85831282059e-07
1.00506427228e-06
3.55766772187e-06
7.25475099058e-06
1.0432593707e-05
1.24701640165e-05
1.35702663436e-05
1.4092830596e-05
1.43093566765e-05
1.43806402307e-05
1.43905197301e-05
1.43788828877e-05
1.43631405387e-05
1.47559729462e-06
1.33531359707e-06
9.81485547915e-07
6.16893234538e-07
4.07402172348e-07
1.89991833951e-07
1.0145372869e-07
9.96763926597e-08
3.85325633586e-07
1.77644418661e-06
4.76975815657e-06
8.23794982449e-06
1.09915954488e-05
1.27433689897e-05
1.37041111124e-05
1.41685800433e-05
1.43624183813e-05
1.44245448604e-05
1.4430242182e-05
1.44165522119e-05
1.64602246026e-06
1.52590774124e-06
1.17425065524e-06
8.03440467893e-07
4.86040459628e-07
3.25373068824e-07
1.40158452124e-07
9.15301951649e-08
1.83910002691e-07
9.11668655435e-07
3.09968204655e-06
6.36032271793e-06
9.4681126347e-06
1.17430562104e-05
1.3149686935e-05
1.39135373014e-05
1.42792468452e-05
1.44276073485e-05
1.4470250266e-05
1.44683754172e-05
1.75417697841e-06
1.66132007322e-06
1.31997341936e-06
9.48981957727e-07
6.2497830105e-07
3.58121379624e-07
2.18866852926e-07
9.5047364597e-08
1.0955623841e-07
4.67645138646e-07
1.9789971243e-06
4.83939574295e-06
8.04136146029e-06
1.06800772139e-05
1.24822748733e-05
1.35569883603e-05
1.41255544932e-05
1.43887637722e-05
1.44879934951e-05
1.45091168576e-05
1.79601101732e-06
1.72304543057e-06
1.40363905624e-06
1.04822958435e-06
7.31335348023e-07
4.62165904232e-07
2.45766592608e-07
1.28061398595e-07
7.43525858995e-08
2.30849158216e-07
1.20641385717e-06
3.61113460126e-06
6.75592139856e-06
9.6271598939e-06
1.1755500217e-05
1.31253135932e-05
1.39091371477e-05
1.43069814998e-05
1.44795674265e-05
1.45345517222e-05
1.81105537445e-06
1.75042804652e-06
1.44846976458e-06
1.11096590736e-06
8.07379424461e-07
5.45312037056e-07
3.21254197595e-07
1.64515520145e-07
7.10589206539e-08
1.0345058819e-07
6.60102669582e-07
2.59900851427e-06
5.60765181954e-06
8.62197269327e-06
1.10109230048e-05
1.26462249041e-05
1.36430113249e-05
1.41858526317e-05
1.44441251656e-05
1.45423225987e-05
1.81881581835e-06
1.76425475576e-06
1.47218847367e-06
1.14840800516e-06
8.58954575255e-07
6.09067267898e-07
3.90823457912e-07
2.04031184764e-07
9.9613734074e-08
5.27726891252e-08
2.78996717533e-07
1.71651954912e-06
4.55661008701e-06
7.67105785195e-06
1.02734026627e-05
1.21423528894e-05
1.33407892021e-05
1.40309928967e-05
1.43825090924e-05
1.45309917334e-05
1.82193709883e-06
1.77135917151e-06
1.48467523527e-06
1.16907521734e-06
8.92330940003e-07
6.56836592444e-07
4.49016681643e-07
2.61278503042e-07
1.10561841156e-07
5.17497145822e-08
8.89835451083e-08
9.21388726848e-07
3.54127985083e-06
6.75105198669e-06
9.5451107093e-06
1.16243056183e-05
1.30116024386e-05
1.38471303317e-05
1.42955703492e-05
1.44991120562e-05
1.81407046499e-06
1.77077666176e-06
1.48685336538e-06
1.17740005353e-06
9.13073164433e-07
6.92693841692e-07
4.96713114208e-07
3.12204024166e-07
1.48022298922e-07
4.96419644065e-08
4.2331806834e-08
3.32521138239e-07
2.4909705771e-06
5.80151160639e-06
8.79272090974e-06
1.10807483372e-05
1.26541988975e-05
1.363424976e-05
1.41819508614e-05
1.4445679374e-05
1.80163732395e-06
1.76429842444e-06
1.48099186136e-06
1.17692604504e-06
9.26096936674e-07
7.20740985657e-07
5.35334303573e-07
3.55000418228e-07
1.82711818801e-07
6.03919105223e-08
3.44631684987e-08
1.00490885993e-07
1.42956875054e-06
4.7417953699e-06
7.94224575802e-06
1.04713589771e-05
1.22495840028e-05
1.33851581994e-05
1.40407366776e-05
1.43704392596e-05
1.7857914111e-06
1.75571373347e-06
1.4734753797e-06
1.17668049964e-06
9.39025916842e-07
7.45559356262e-07
5.67276247686e-07
3.89904206261e-07
2.12344337727e-07
7.30801730889e-08
2.57518027922e-08
4.57293398506e-08
5.95229918173e-07
3.50363792405e-06
6.88368591553e-06
9.7254677942e-06
1.17697407705e-05
1.3092599729e-05
1.3870671325e-05
1.42738244588e-05
1.78553447011e-06
1.75178147194e-06
1.47269662864e-06
1.18599361215e-06
9.58863344543e-07
7.71309747322e-07
5.9541735917e-07
4.19273458557e-07
2.38430628075e-07
8.75261067509e-08
2.77324886394e-08
3.01467832999e-08
1.88396790219e-07
2.12640055558e-06
5.55159161031e-06
8.78760504774e-06
1.11855375863e-05
1.27450742976e-05
1.36690538142e-05
1.41564552632e-05
1.79498492072e-06
1.760195681e-06
1.49692489052e-06
1.22000324703e-06
9.9249669174e-07
8.0005284985e-07
6.21791632807e-07
4.4603816454e-07
2.64231433728e-07
1.07153496206e-07
3.30910066256e-08
2.11553977834e-08
6.01391308219e-08
9.95660170165e-07
4.02191409739e-06
7.61475107866e-06
1.04604457645e-05
1.23256911432e-05
1.34306851803e-05
1.40182527058e-05
1.85091064357e-06
1.83849433455e-06
1.58476459341e-06
1.29080568687e-06
1.03741053394e-06
8.2844611097e-07
6.45949147644e-07
4.71846856638e-07
2.95912661932e-07
1.3495931703e-07
4.18389121615e-08
1.89886948252e-08
3.10464501281e-08
3.47648576425e-07
2.49401674074e-06
6.20033699732e-06
9.55906187653e-06
1.18139191096e-05
1.31473829203e-05
1.38574357224e-05
1.99032700922e-06
1.9945916298e-06
1.71093450871e-06
1.36541594336e-06
1.07431184347e-06
8.4966157156e-07
6.65926642619e-07
4.99960869184e-07
3.35581638443e-07
1.71462829153e-07
5.49270195905e-08
2.06985470453e-08
2.32099443076e-08
8.82332742509e-08
1.23356435892e-06
4.62783066136e-06
8.46298645019e-06
1.11890276172e-05
1.28080538948e-05
1.36697677094e-05
2.13491462872e-06
2.11525236992e-06
1.78040606762e-06
1.40144358266e-06
1.09286346312e-06
8.61425507786e-07
6.81398826279e-07
5.28020386847e-07
3.78337991918e-07
2.14923316122e-07
7.32818655178e-08
2.34713813967e-08
1.82628321081e-08
3.79281562659e-08
4.06766352672e-07
3.06543592268e-06
7.19002107169e-06
1.04369858122e-05
1.24004470611e-05
1.34486537264e-05
2.15139548803e-06
2.12571136195e-06
1.79766193609e-06
1.41631419617e-06
1.10136085392e-06
8.67014791828e-07
6.91932955317e-07
5.51188686189e-07
4.16571730672e-07
2.58512581463e-07
9.58539135626e-08
2.71283911199e-08
1.82489774796e-08
2.36100222756e-08
9.85902704664e-08
1.64445292817e-06
5.81149541065e-06
9.55870122046e-06
1.19133900418e-05
1.31858081138e-05
2.18535076682e-06
2.15773512196e-06
1.81974638514e-06
1.43005712375e-06
1.10817854776e-06
8.70766138216e-07
6.99302285704e-07
5.68748786605e-07
4.46888993652e-07
2.94710474968e-07
1.16865360009e-07
3.08340840617e-08
1.81048877148e-08
2.16503705184e-08
5.50887717688e-08
5.66916582162e-07
4.38043476395e-06
8.56240833695e-06
1.13358194326e-05
1.28716063259e-05
2.20002429565e-06
2.17487667699e-06
1.83568390517e-06
1.44204654979e-06
1.11383401358e-06
8.73257266198e-07
7.04145746454e-07
5.81750918618e-07
4.70716824161e-07
3.22929893849e-07
1.32682902765e-07
3.32407498382e-08
1.77718893716e-08
1.99870519318e-08
3.26064856981e-08
1.75233549674e-07
2.94588192936e-06
7.48115737581e-06
1.06611266763e-05
1.24961641697e-05
2.19604017587e-06
2.18379910542e-06
1.84636241793e-06
1.44919120431e-06
1.1167772595e-06
8.74087933317e-07
7.07595016654e-07
5.93488787873e-07
4.91994843505e-07
3.44405535921e-07
1.43267163936e-07
3.45531755589e-08
1.73908781887e-08
1.85683843832e-08
2.67323779483e-08
9.51839484687e-08
1.63957066015e-06
6.303636284e-06
9.87479758434e-06
1.20476358243e-05
2.19260957922e-06
2.19183807183e-06
1.85328560439e-06
1.4521007068e-06
1.11748789648e-06
8.74725840364e-07
7.1266347431e-07
6.07738570498e-07
5.12130205061e-07
3.59853909066e-07
1.5030018549e-07
3.55330967541e-08
1.72039208526e-08
1.76223669711e-08
2.25753289726e-08
6.35906995625e-08
7.8975651326e-07
5.03404356049e-06
8.96124515706e-06
1.15126513479e-05
2.19307391338e-06
2.19826441856e-06
1.85608961018e-06
1.4515107317e-06
1.11726886865e-06
8.77522798746e-07
7.2200772408e-07
6.2513342392e-07
5.29789805457e-07
3.70323860466e-07
1.55986528247e-07
3.70879659153e-08
1.73275901169e-08
1.72247153191e-08
2.02032326437e-08
4.21547056164e-08
3.75514601993e-07
3.76096065866e-06
7.91641306822e-06
1.08778531243e-05
2.20846614538e-06
2.20932597556e-06
1.86015954448e-06
1.45110120984e-06
1.11851853994e-06
8.8396916644e-07
7.36051556299e-07
6.43455298164e-07
5.43833226719e-07
3.76837810843e-07
1.61317336924e-07
3.94778951712e-08
1.77185350138e-08
1.72566415003e-08
1.92967188144e-08
2.89367967012e-08
1.80636912614e-07
2.56654416494e-06
6.73858376643e-06
1.01283829628e-05
2.2201097037e-06
2.21803503716e-06
1.86243136095e-06
1.45037184781e-06
1.12142513474e-06
8.937344547e-07
7.52571000489e-07
6.60412019057e-07
5.53998086463e-07
3.79177810601e-07
1.65539503068e-07
4.21561970288e-08
1.81760820982e-08
1.75716462042e-08
1.92813704871e-08
2.26348722565e-08
8.67665060356e-08
1.54453468032e-06
5.45679036337e-06
9.25480985917e-06
2.23043042069e-06
2.2193883395e-06
1.85635283919e-06
1.44604243067e-06
1.12509706694e-06
9.06193724046e-07
7.69814717801e-07
6.75097438348e-07
5.5889378267e-07
3.75944335562e-07
1.66992728091e-07
4.4153248187e-08
1.86168293727e-08
1.78920161789e-08
1.96600225776e-08
2.18079674939e-08
4.92837273344e-08
8.06394551104e-07
4.16775651079e-06
8.26389365604e-06
2.22303426492e-06
2.20361402651e-06
1.83856774432e-06
1.43930876027e-06
1.13224620716e-06
9.22519148877e-07
7.87900941807e-07
6.86392823008e-07
5.55519766781e-07
3.65751653913e-07
1.64530691557e-07
4.59292422805e-08
1.91731830886e-08
1.80534184611e-08
2.0046939016e-08
2.18718050341e-08
3.76219541233e-08
3.53922520744e-07
2.96504476493e-06
7.16751835779e-06
2.18945727552e-06
2.156618524e-06
1.81948934947e-06
1.44702402396e-06
1.15249488561e-06
9.4538436954e-07
8.06184383586e-07
6.90198200082e-07
5.41371167821e-07
3.49669939157e-07
1.61621071177e-07
4.95506579581e-08
1.99270905071e-08
1.80973955808e-08
2.00782969197e-08
2.18664383727e-08
2.53125585561e-08
1.33684204769e-07
1.9131712256e-06
5.9805705913e-06
2.19575093223e-06
2.18682790542e-06
1.88281404364e-06
1.5101822597e-06
1.19681777708e-06
9.74133433053e-07
8.18446598853e-07
6.80530971028e-07
5.19984633737e-07
3.37087962705e-07
1.65773701431e-07
5.5441021207e-08
2.10717240079e-08
1.8073306082e-08
1.98314462688e-08
2.15735093456e-08
2.36960596846e-08
6.09928267523e-08
1.08468158412e-06
4.75039698583e-06
2.35278522713e-06
2.39104813283e-06
2.06514099611e-06
1.62038547477e-06
1.24862796538e-06
9.94875518855e-07
8.1749306229e-07
6.64657896501e-07
5.06251293729e-07
3.40026361314e-07
1.80727811371e-07
6.53286279315e-08
2.30756442201e-08
1.81103471153e-08
1.95186114236e-08
2.10770069607e-08
2.26723382673e-08
4.24864429323e-08
4.99158691083e-07
3.53871814083e-06
2.61717661435e-06
2.6774604155e-06
2.26568331574e-06
1.72035997019e-06
1.29725656919e-06
1.01571288928e-06
8.18844549715e-07
6.60172888739e-07
5.1371775622e-07
3.65641597839e-07
2.12015768732e-07
8.28953788932e-08
2.68179657995e-08
1.83982147227e-08
1.92950759456e-08
2.0597114624e-08
2.17997375751e-08
2.68530320968e-08
1.73283827343e-07
2.3910920927e-06
2.84399512474e-06
2.85888690385e-06
2.37038157276e-06
1.80378018171e-06
1.36606401849e-06
1.05791873503e-06
8.39233012686e-07
6.76235102263e-07
5.42235615264e-07
4.11651312943e-07
2.62456004631e-07
1.12885848061e-07
3.37758185062e-08
1.91948910039e-08
1.92727355813e-08
2.02960428137e-08
2.10972828736e-08
2.39991111077e-08
7.12629041301e-08
1.37245398671e-06
2.84467298461e-06
2.84081371079e-06
2.38759401808e-06
1.87379681931e-06
1.44876537971e-06
1.11886788652e-06
8.77056476624e-07
7.04967015264e-07
5.78218337113e-07
4.64313330403e-07
3.24872608744e-07
1.5694982068e-07
4.57350021875e-08
2.08134690301e-08
1.94843357806e-08
2.01836576544e-08
2.05902061196e-08
2.25914276378e-08
4.85537385071e-08
5.90429732853e-07
2.80302689518e-06
2.81250396735e-06
2.40006962049e-06
1.92432009713e-06
1.51683089817e-06
1.1810756935e-06
9.19244267025e-07
7.33910160934e-07
6.08432240332e-07
5.08146779549e-07
3.83939922114e-07
2.08616045914e-07
6.34530700189e-08
2.35107835754e-08
1.98832242313e-08
2.02174821087e-08
2.01880605593e-08
2.15332186605e-08
3.03418845644e-08
1.94379501179e-07
2.7895353063e-06
2.80803871577e-06
2.41641241985e-06
1.96336216984e-06
1.56807173704e-06
1.22917265046e-06
9.53101588121e-07
7.56039047782e-07
6.28692628932e-07
5.37254978159e-07
4.27668188069e-07
2.55859647732e-07
8.52698798478e-08
2.74510415766e-08
2.04268484408e-08
2.02983605183e-08
1.98806413386e-08
2.06848004927e-08
2.6752290801e-08
9.07445967335e-08
2.77437056401e-06
2.80093163874e-06
2.42616147444e-06
1.98897952008e-06
1.6027704576e-06
1.26123382392e-06
9.76520911689e-07
7.72239267157e-07
6.4276272935e-07
5.55769148769e-07
4.55209755401e-07
2.8868875726e-07
1.05791182769e-07
3.23690512335e-08
2.11206453272e-08
2.04008132159e-08
1.97277643065e-08
1.99998436417e-08
2.4193039859e-08
6.480975332e-08
2.73815927538e-06
2.7838156002e-06
2.42517724613e-06
1.99969876397e-06
1.61921515332e-06
1.2762681054e-06
9.88971905748e-07
7.83340406832e-07
6.53796237524e-07
5.69074148054e-07
4.72411371204e-07
3.08089159252e-07
1.19851397204e-07
3.66363317066e-08
2.18531882075e-08
2.05289292581e-08
1.97092242893e-08
1.9527995902e-08
2.22936769732e-08
3.96265061947e-08
2.72163741193e-06
2.77069710243e-06
2.41738335487e-06
1.99707867793e-06
1.61801042153e-06
1.27496308565e-06
9.91014593094e-07
7.8953808685e-07
6.62712372493e-07
5.79729532757e-07
4.82920674449e-07
3.17014573834e-07
1.27087710535e-07
3.9508883865e-08
2.24496326057e-08
2.06603426152e-08
1.97854861767e-08
1.92944301501e-08
2.10199392137e-08
3.16111399928e-08
2.70351753467e-06
2.76529048318e-06
2.41297636631e-06
1.98839472334e-06
1.60337540051e-06
1.26016095521e-06
9.84923143647e-07
7.92081776618e-07
6.70490727856e-07
5.8889605256e-07
4.88283313426e-07
3.17649252956e-07
1.28521310468e-07
4.09076448934e-08
2.28467611837e-08
2.07868826402e-08
1.99086551004e-08
1.92734665115e-08
2.03175623136e-08
2.72406801411e-08
2.70428417957e-06
2.77128905376e-06
2.41355894011e-06
1.97689448655e-06
1.57923024004e-06
1.23771062395e-06
9.7501774886e-07
7.92973571534e-07
6.77974194827e-07
5.96545450612e-07
4.88678860268e-07
3.11439694135e-07
1.25513593428e-07
4.10551133916e-08
2.30488658787e-08
2.08884844312e-08
2.00454465585e-08
1.93950764785e-08
2.00498427424e-08
2.46095862114e-08
2.69874260507e-06
2.78120703119e-06
2.41727508814e-06
1.96118519849e-06
1.54937880546e-06
1.21372487549e-06
9.64406664796e-07
7.93362804596e-07
6.85374084671e-07
6.01858222842e-07
4.8387523547e-07
2.99595526595e-07
1.19424723137e-07
4.02621282689e-08
2.30722010993e-08
2.09441739902e-08
2.01683615457e-08
1.95693254281e-08
2.00638891117e-08
2.31876332379e-08
2.70217614235e-06
2.7927902306e-06
2.41592644664e-06
1.93805842479e-06
1.51853305123e-06
1.19173036082e-06
9.54032243283e-07
7.94069653743e-07
6.92324315967e-07
6.03779770745e-07
4.73713984707e-07
2.83241869114e-07
1.11440949304e-07
3.88130470962e-08
2.29299093282e-08
2.09358457307e-08
2.02475302257e-08
1.96974869311e-08
2.01887472195e-08
2.25250384833e-08
2.70644853802e-06
2.79220516014e-06
2.40043012485e-06
1.90772267183e-06
1.48849370513e-06
1.17073306431e-06
9.44105684249e-07
7.96136997955e-07
6.98221726055e-07
6.01779460842e-07
4.58370285951e-07
2.63950179658e-07
1.02792340756e-07
3.70285755804e-08
2.26550391511e-08
2.08535846067e-08
2.02405042609e-08
1.97072413177e-08
2.02608090602e-08
2.22464922031e-08
2.7205100088e-06
2.78292911226e-06
2.37543529671e-06
1.87440064384e-06
1.45847071595e-06
1.14982390339e-06
9.3641925631e-07
8.00375128475e-07
7.03017301892e-07
5.96131911313e-07
4.3870295868e-07
2.44005476861e-07
9.48412071505e-08
3.53212169761e-08
2.23263173041e-08
2.06983107937e-08
2.0124244804e-08
1.96257771998e-08
2.02518799452e-08
2.2087946292e-08
2.71686742518e-06
2.75599059164e-06
2.33789991226e-06
1.83559308213e-06
1.42691183063e-06
1.13096585027e-06
9.34348318984e-07
8.08139259741e-07
7.07888699338e-07
5.87098371873e-07
4.16683153646e-07
2.26185633105e-07
8.89167072658e-08
3.41332903257e-08
2.20511483469e-08
2.04896846191e-08
1.99297045768e-08
1.9509071391e-08
2.01550259293e-08
2.19017951836e-08
2.69754442805e-06
2.70665122814e-06
2.280758739e-06
1.78829350934e-06
1.39631797592e-06
1.12006520094e-06
9.419613985e-07
8.2218937473e-07
7.13907916801e-07
5.74703598109e-07
3.9529473094e-07
2.13029953218e-07
8.60407414584e-08
3.3856570809e-08
2.19295358206e-08
2.02534213611e-08
1.96840855408e-08
1.93681521811e-08
1.99656966896e-08
2.1625612952e-08
2.64292495072e-06
2.62432005783e-06
2.20450569294e-06
1.73998700011e-06
1.37747246247e-06
1.12671509859e-06
9.65171784761e-07
8.45339905576e-07
7.19094235888e-07
5.59449431932e-07
3.77981853827e-07
2.06389051009e-07
8.6959123102e-08
3.48702381303e-08
2.20693384364e-08
2.00316099665e-08
1.94095702586e-08
1.91932275034e-08
1.96884927708e-08
2.11891968009e-08
2.54789990267e-06
2.49647972832e-06
2.12534961754e-06
1.71588326628e-06
1.38982144843e-06
1.16171150119e-06
1.00850919288e-06
8.75282712958e-07
7.19746090481e-07
5.44384856082e-07
3.68517388286e-07
2.0791095493e-07
9.26456203546e-08
3.77651163676e-08
2.2659561217e-08
1.98970929782e-08
1.91403067482e-08
1.89676368167e-08
1.93512710312e-08
2.05827794402e-08
2.47105835546e-06
2.43588917756e-06
2.12981678187e-06
1.76474820454e-06
1.45417885367e-06
1.23051209284e-06
1.06811319685e-06
9.03161435134e-07
7.16349731565e-07
5.36307742352e-07
3.71155028066e-07
2.20088310275e-07
1.04553756057e-07
4.30416983467e-08
2.38425950219e-08
1.99204434276e-08
1.89290520213e-08
1.86923155778e-08
1.89515363648e-08
1.97765193092e-08
2.50905800812e-06
2.53481988276e-06
2.26452205261e-06
1.89523635562e-06
1.56248775757e-06
1.32034006637e-06
1.12927257974e-06
9.27490343153e-07
7.19901794027e-07
5.40329415541e-07
3.87362856767e-07
2.44811465092e-07
1.24383104334e-07
5.1466713901e-08
2.5880630402e-08
2.02079827541e-08
1.88455626947e-08
1.84058482842e-08
1.85063423134e-08
1.89035961211e-08
2.66596019633e-06
2.74405563469e-06
2.46026201822e-06
2.04474518423e-06
1.67424062636e-06
1.40896119595e-06
1.18885648603e-06
9.57759357812e-07
7.3509407017e-07
5.57762302199e-07
4.18664006137e-07
2.84492024805e-07
1.55210545597e-07
6.48088954477e-08
2.92391460476e-08
2.09274439708e-08
1.89531120919e-08
1.82152565118e-08
1.80849241744e-08
1.81158166533e-08
2.87077307266e-06
2.96377269259e-06
2.60555643702e-06
2.13779833029e-06
1.7551581715e-06
1.48377943717e-06
1.24808523693e-06
1.00021396288e-06
7.68391965855e-07
5.91165032882e-07
4.61515131745e-07
3.36119136855e-07
1.98408184878e-07
8.51008749936e-08
3.45422226115e-08
2.21577667027e-08
1.93410694634e-08
1.8232548729e-08
1.77598354382e-08
1.74833569905e-08
3.01661606938e-06
3.04566718829e-06
2.61228802558e-06
2.14052647682e-06
1.7863416745e-06
1.5347505181e-06
1.30509651534e-06
1.056652e-06
8.19461225149e-07
6.35011101356e-07
5.05911852573e-07
3.89684744953e-07
2.49757527216e-07
1.13051702778e-07
4.24390249057e-08
2.39315429092e-08
1.99681534543e-08
1.84665566128e-08
1.76137264955e-08
1.70447061872e-08
2.94761591739e-06
2.93962094789e-06
2.52614470675e-06
2.09336145231e-06
1.78056927601e-06
1.56030984789e-06
1.35401223233e-06
1.11734854348e-06
8.76988662059e-07
6.8006267607e-07
5.44078160935e-07
4.34847342703e-07
3.00031390847e-07
1.46261961119e-07
5.32597666741e-08
2.63521997934e-08
2.07050466843e-08
1.88806380219e-08
1.76790794094e-08
1.67794240641e-08
2.89150669146e-06
2.86398824575e-06
2.45678405873e-06
2.04713514973e-06
1.76567663131e-06
1.5723961705e-06
1.38725507536e-06
1.16648499311e-06
9.27946916496e-07
7.19869440773e-07
5.73889827361e-07
4.67585815677e-07
3.41152286079e-07
1.79902725998e-07
6.66703070031e-08
2.95682097035e-08
2.14845839892e-08
1.93627313616e-08
1.79122329923e-08
1.6649039329e-08
2.84013060582e-06
2.8070703267e-06
2.40704130663e-06
2.01253447835e-06
1.7518189508e-06
1.57877635039e-06
1.40910168713e-06
1.19900179437e-06
9.63412487624e-07
7.49687557597e-07
5.96266660618e-07
4.89767831024e-07
3.70384537725e-07
2.08728853233e-07
8.11602534098e-08
3.35957331745e-08
2.23399903848e-08
1.97717628724e-08
1.81832355129e-08
1.66183734619e-08
2.78590305132e-06
2.75596570821e-06
2.36626793443e-06
1.98523372908e-06
1.73928453685e-06
1.58036526613e-06
1.4205551264e-06
1.21683783692e-06
9.84275068324e-07
7.69654458582e-07
6.13226745909e-07
5.06082765541e-07
3.9052171316e-07
2.2973029111e-07
9.33188713099e-08
3.74761216242e-08
2.31847094494e-08
2.00301410346e-08
1.84229640392e-08
1.66672993159e-08
2.72827631521e-06
2.70781383816e-06
2.33079784517e-06
1.96048478401e-06
1.72499392019e-06
1.57564195179e-06
1.42139220202e-06
1.22105729895e-06
9.91787175963e-07
7.80308418116e-07
6.25430622601e-07
5.18716903987e-07
4.04157448589e-07
2.42855090436e-07
1.01348484031e-07
4.02886048651e-08
2.37830957323e-08
2.01010178085e-08
1.85515675345e-08
1.67771578307e-08
2.69372923797e-06
2.67976949323e-06
2.31041758756e-06
1.94245880211e-06
1.71001774561e-06
1.56458587043e-06
1.41181623289e-06
1.21242568079e-06
9.87219530209e-07
7.82661607758e-07
6.33450096403e-07
5.28480712181e-07
4.12338008167e-07
2.48212523335e-07
1.0452856369e-07
4.15568707763e-08
2.39880771511e-08
2.0000141578e-08
1.85464366389e-08
1.69343070034e-08
2.66263292662e-06
2.66833214241e-06
2.30628489529e-06
1.93312857808e-06
1.69616143971e-06
1.54895482374e-06
1.39342738792e-06
1.19291839241e-06
9.72988292494e-07
7.78784312832e-07
6.38514982626e-07
5.35823073594e-07
4.15033848501e-07
2.45790194321e-07
1.02893643824e-07
4.12042149076e-08
2.37468379764e-08
1.97423244482e-08
1.84544675209e-08
1.71340789393e-08
2.65467428553e-06
2.67603897423e-06
2.31510343194e-06
1.93169727014e-06
1.68573197339e-06
1.53232342359e-06
1.37028199411e-06
1.16716904704e-06
9.53819564491e-07
7.72644156384e-07
6.4277934129e-07
5.40917566272e-07
4.11527564746e-07
2.35848044793e-07
9.71269351975e-08
3.94536226818e-08
2.30930311618e-08
1.93518403146e-08
1.8307836504e-08
1.73812348403e-08
2.6526399301e-06
2.69494332449e-06
2.32935555895e-06
1.93546203129e-06
1.6821737508e-06
1.52075936426e-06
1.34967748762e-06
1.1432204521e-06
9.37354563771e-07
7.69601775276e-07
6.4839681079e-07
5.43385209799e-07
4.01084114982e-07
2.19422033662e-07
8.84239211614e-08
3.6723053367e-08
2.21379548564e-08
1.88662659083e-08
1.81300259988e-08
1.76766131852e-08
2.67507157624e-06
2.71219871654e-06
2.33708623083e-06
1.94029351515e-06
1.68801744165e-06
1.52094106078e-06
1.34109354039e-06
1.13171394395e-06
9.3244769715e-07
7.74607609954e-07
6.56656936748e-07
5.42536470333e-07
3.8385203049e-07
1.98590813814e-07
7.8302724748e-08
3.35540093364e-08
2.10445952623e-08
1.83302224735e-08
1.7935230712e-08
1.80168663472e-08
2.69991704672e-06
2.7189391145e-06
2.33840451281e-06
1.95184566231e-06
1.71081209161e-06
1.5406414806e-06
1.35313236102e-06
1.14147087034e-06
9.45458939021e-07
7.90379053744e-07
6.67628342642e-07
5.37982891402e-07
3.61633705623e-07
1.76369169619e-07
6.83970684585e-08
3.04895090349e-08
1.99757202879e-08
1.77843260786e-08
1.77278472013e-08
1.83834839808e-08
2.71093234129e-06
2.70204027969e-06
2.33114427809e-06
1.97845800176e-06
1.75996517276e-06
1.58744385696e-06
1.39165664821e-06
1.17648742308e-06
9.78058091769e-07
8.16691522306e-07
6.80610965464e-07
5.30833214149e-07
3.38348238244e-07
1.56305230169e-07
6.01374073497e-08
2.79466867836e-08
1.9059334929e-08
1.72646916329e-08
1.75034677165e-08
1.87213427117e-08
2.68401198946e-06
2.65530496719e-06
2.32343546104e-06
2.03204875328e-06
1.84420130625e-06
1.66738096925e-06
1.45938064098e-06
1.23584434886e-06
1.02753533086e-06
8.51143694272e-07
6.95181855348e-07
5.24362257282e-07
3.19643551773e-07
1.41843070422e-07
5.45321290171e-08
2.62110611689e-08
1.8388229428e-08
1.68088538132e-08
1.72564402898e-08
1.89441724625e-08
2.6288255475e-06
2.60774354277e-06
2.33997243002e-06
2.12254688785e-06
1.96579381105e-06
1.78130905328e-06
1.55603941332e-06
1.31649635383e-06
1.08945552389e-06
8.90560388427e-07
7.1156828391e-07
5.23104753016e-07
3.11129479167e-07
1.35709736585e-07
5.23059403458e-08
2.55126294367e-08
1.80469101555e-08
1.64623941385e-08
1.69919889568e-08
1.89990692368e-08
2.60377505457e-06
2.61060109359e-06
2.40323590346e-06
2.25093887e-06
2.11619294067e-06
1.92159270486e-06
1.67723795591e-06
1.41455554004e-06
1.16006120986e-06
9.328702653e-07
7.30931830552e-07
5.30791605469e-07
3.16174037182e-07
1.39480437381e-07
5.40895531915e-08
2.61273792239e-08
1.81472145339e-08
1.62848260013e-08
1.67348748719e-08
1.88922737127e-08
2.63606618039e-06
2.6792192946e-06
2.52069445057e-06
2.4089851511e-06
2.27984750898e-06
2.07563112651e-06
1.81379708853e-06
1.52417803495e-06
1.23689774058e-06
9.78907965031e-07
7.55975646931e-07
5.49129835304e-07
3.35242365691e-07
1.53796382706e-07
6.05974269672e-08
2.84363555254e-08
1.88532714306e-08
1.63543532718e-08
1.65342206528e-08
1.86563522848e-08
2.71413313287e-06
2.79312927927e-06
2.66359516334e-06
2.55595959573e-06
2.42734198466e-06
2.222814256e-06
1.949255351e-06
1.6358103218e-06
1.31854325621e-06
1.03220117337e-06
7.90325248863e-07
5.7868941282e-07
3.67331943179e-07
1.79044235423e-07
7.277494993e-08
3.29640541537e-08
2.0395818827e-08
1.67748522572e-08
1.64627116253e-08
1.83380804212e-08
2.81332503156e-06
2.89223738494e-06
2.73875254705e-06
2.62454729654e-06
2.51807602849e-06
2.33089816189e-06
2.05907961073e-06
1.7351716684e-06
1.40004456466e-06
1.09336377184e-06
8.35479733555e-07
6.18603639762e-07
4.09961399984e-07
2.14585919041e-07
9.1399286099e-08
4.02947402668e-08
2.30477217592e-08
1.76671962082e-08
1.6600798381e-08
1.80093192164e-08
2.696819662e-06
2.76068703367e-06
2.64393726145e-06
2.58445579813e-06
2.52786947287e-06
2.37388784482e-06
2.12010116808e-06
1.80348029463e-06
1.46744154022e-06
1.1535854906e-06
8.86517560377e-07
6.65055188696e-07
4.58398581263e-07
2.57179109159e-07
1.1596304029e-07
5.07042927478e-08
2.70191557107e-08
1.91376928574e-08
1.70170637696e-08
1.77705511035e-08
2.60008269905e-06
2.66504374897e-06
2.53567094988e-06
2.48824810277e-06
2.4646102027e-06
2.34600814896e-06
2.12035339635e-06
1.8246926132e-06
1.50340247535e-06
1.19787288057e-06
9.33102094146e-07
7.11690775053e-07
5.06954107041e-07
3.01485459108e-07
1.440488027e-07
6.3724325578e-08
3.23177260854e-08
2.12445361917e-08
1.77718026331e-08
1.77312876301e-08
2.51713057899e-06
2.58233724048e-06
2.43377726832e-06
2.37102255944e-06
2.3538210025e-06
2.25938229684e-06
2.06206398e-06
1.79435063817e-06
1.49951541414e-06
1.21660576921e-06
9.67051143055e-07
7.53071146547e-07
5.51167281233e-07
3.42400683458e-07
1.72264395659e-07
7.82148818777e-08
3.87232076471e-08
2.39933142068e-08
1.89086623658e-08
1.79694820347e-08
2.4165250051e-06
2.50382634878e-06
2.32442052253e-06
2.23468723226e-06
2.2108810197e-06
2.1312741927e-06
1.95965111905e-06
1.7231108627e-06
1.46321564047e-06
1.21401299124e-06
9.89315032982e-07
7.88228974134e-07
5.88984911393e-07
3.76880560159e-07
1.98099425244e-07
9.31567130778e-08
4.60401666987e-08
2.74231783373e-08
2.04954801079e-08
1.85531511004e-08
2.36660249791e-06
2.43766998998e-06
2.20124693719e-06
2.08066666838e-06
2.05333177749e-06
1.9881294279e-06
1.842130218e-06
1.63947505842e-06
1.41965638107e-06
1.20816932955e-06
1.00959777572e-06
8.20640431177e-07
6.2073563639e-07
4.04906190052e-07
2.21587734858e-07
1.08724154414e-07
5.45450037155e-08
3.17573295576e-08
2.26663837214e-08
1.95488423754e-08
2.37671111681e-06
2.37165652288e-06
2.08479508464e-06
1.93712486748e-06
1.91802455705e-06
1.87304797534e-06
1.75320926253e-06
1.5839494177e-06
1.40205054725e-06
1.22064737129e-06
1.04008286914e-06
8.55456528617e-07
6.49328646673e-07
4.30494256987e-07
2.46190303455e-07
1.26946146674e-07
6.53014536282e-08
3.74705349357e-08
2.55966995081e-08
2.10002295985e-08
2.4276949867e-06
2.28026347737e-06
2.00114310289e-06
1.85128645218e-06
1.85107095115e-06
1.82943203999e-06
1.73256881745e-06
1.58976028637e-06
1.43162577551e-06
1.26433578728e-06
1.08866335452e-06
8.9663551912e-07
6.80759609887e-07
4.61473159293e-07
2.78101366061e-07
1.51456889666e-07
8.00944732759e-08
4.5211805646e-08
2.94473937562e-08
2.29165940483e-08
2.52689750479e-06
2.29034354435e-06
2.0414072456e-06
1.90812251044e-06
1.90550734221e-06
1.88229714892e-06
1.79052698728e-06
1.6575238881e-06
1.50539474534e-06
1.33741465904e-06
1.15204758781e-06
9.44900184958e-07
7.21866868304e-07
5.0626280618e-07
3.24101975935e-07
1.86811218725e-07
1.01264921536e-07
5.57666220354e-08
3.43337606258e-08
2.5221011595e-08
2.67861709911e-06
2.4839960293e-06
2.26099031942e-06
2.12492305662e-06
2.07360756667e-06
2.00706564357e-06
1.89469675894e-06
1.75642613505e-06
1.59798625202e-06
1.41749617639e-06
1.2150513574e-06
9.95869106495e-07
7.74482694681e-07
5.68558560686e-07
3.89173446241e-07
2.37798546518e-07
1.30785264078e-07
6.94167669681e-08
3.99398156463e-08
2.75743565403e-08
2.8794439497e-06
2.76358944545e-06
2.55458178968e-06
2.37286707025e-06
2.24234381729e-06
2.12269904327e-06