/*--------------------------------*- C++ -*----------------------------------*\
| =========                 |                                                 |
| \\      /  F ield         | OpenFOAM: The Open Source CFD Toolbox           |
|  \\    /   O peration     | Version:  2312                                  |
|   \\  /    A nd           | Website:  www.openfoam.com                      |
|    \\/     M anipulation  |                                                 |
\*---------------------------------------------------------------------------*/
FoamFile
{
    version     2.0;
    format      ascii;
    arch        "LSB;label=32;scalar=64";
    class       volScalarField;
    location    "0.815/water";
    object      d.gas;
}
// * * * * * * * * * * * * * * * * * * * * * * * * * * * * * * * * * * * * * //

dimensions      [0 1 0 0 0 0 0];

internalField   nonuniform List<scalar> 
6000
(
0.00496811334891
0.00496817493085
0.0049681908526
0.00496820318763
0.00496821373462
0.00496822320416
0.00496823192559
0.00496823989832
0.00496824705917
0.00496825343174
0.00496825904245
0.00496826394029
0.00496826819944
0.00496827188982
0.00496827506973
0.00496827778609
0.00496828007699
0.00496828197075
0.0049682834871
0.00496828463804
0.00496842030368
0.00496845032508
0.00496844779406
0.00496844774522
0.00496845245382
0.00496845680339
0.00496846100267
0.0049684651407
0.00496846932945
0.00496847345683
0.0049684773027
0.0049684807843
0.00496848393636
0.00496848679703
0.00496848937948
0.00496849167988
0.00496849368836
0.00496849539308
0.00496849678184
0.00496849784235
0.00496869372941
0.00496872487589
0.00496871286847
0.00496870377745
0.00496870169287
0.00496870022897
0.0049686993424
0.00496869919785
0.00496869972324
0.00496870079672
0.00496870220598
0.00496870370271
0.00496870516007
0.00496870655973
0.00496870790492
0.00496870918457
0.00496871037363
0.00496871143855
0.0049687123431
0.00496871305365
0.00496892923953
0.00496895054699
0.00496893742341
0.00496893143649
0.00496893169283
0.00496893120237
0.00496893002829
0.00496892887602
0.00496892804356
0.00496892759783
0.00496892751596
0.00496892766898
0.00496892791684
0.00496892819654
0.00496892850165
0.0049689288343
0.00496892918697
0.00496892953967
0.00496892986425
0.00496893013138
0.00496916459712
0.00496917867389
0.00496916073906
0.00496915424435
0.00496915504804
0.0049691554604
0.00496915473626
0.00496915354246
0.00496915240357
0.00496915146777
0.00496915076079
0.00496915024751
0.00496914984511
0.00496914949107
0.00496914917151
0.00496914889515
0.00496914867132
0.00496914850018
0.00496914837288
0.00496914827686
0.00496939280768
0.00496940628973
0.00496938681591
0.00496937853986
0.00496937764524
0.00496937773873
0.00496937718655
0.00496937594084
0.00496937452389
0.00496937325003
0.00496937216416
0.00496937125191
0.00496937046468
0.00496936974887
0.00496936908177
0.004969368467
0.00496936791779
0.00496936744435
0.0049693670507
0.00496936673716
0.0049696112613
0.00496962632276
0.00496960894461
0.00496960152593
0.00496959959043
0.00496959869456
0.00496959782205
0.00496959651529
0.00496959487652
0.00496959329827
0.00496959191169
0.00496959070768
0.00496958966003
0.00496958872807
0.00496958788202
0.00496958711471
0.00496958643366
0.00496958584871
0.00496958536696
0.00496958499314
0.00496983489104
0.00496985181206
0.00496983685047
0.00496982807198
0.00496982372625
0.00496982042926
0.0049698178407
0.00496981566758
0.00496981351966
0.00496981149524
0.0049698097692
0.00496980832452
0.00496980712227
0.00496980611429
0.00496980525472
0.00496980451784
0.00496980389709
0.00496980339343
0.00496980300873
0.00496980274573
0.00497003438435
0.00497005322581
0.00497004100109
0.00497003667439
0.00497003557114
0.0049700336982
0.00497003162907
0.00497002972972
0.00497002791127
0.00497002606764
0.00497002443909
0.00497002312945
0.00497002212243
0.0049700213643
0.00497002079504
0.00497002037344
0.00497002007987
0.00497001990505
0.00497001984342
0.00497001989232
0.00497025957184
0.00497027840217
0.00497025890908
0.00497025067717
0.0049702474302
0.00497024439962
0.00497024165559
0.00497023958264
0.00497023801102
0.0049702365911
0.00497023539342
0.00497023460868
0.00497023424316
0.00497023419061
0.00497023433915
0.00497023462125
0.00497023500213
0.00497023546113
0.00497023598612
0.00497023656594
0.00497043253453
0.00497045623657
0.00497044331408
0.00497043949388
0.00497044025867
0.00497044097633
0.00497044134584
0.00497044157425
0.00497044166394
0.00497044162653
0.00497044174063
0.00497044233987
0.00497044342157
0.00497044478501
0.00497044624497
0.00497044771434
0.00497044916155
0.00497045056892
0.00497045192413
0.0049704532163
0.00497062694663
0.00497065811299
0.00497064415998
0.00497063824485
0.00497063896212
0.00497064082899
0.00497064241462
0.0049706435049
0.0049706442504
0.00497064497341
0.00497064623112
0.00497064847104
0.00497065151266
0.00497065484508
0.00497065807475
0.00497066107443
0.00497066383208
0.00497066634641
0.00497066862035
0.00497067066042
0.00497080048291
0.00497084004197
0.00497083637955
0.00497083520238
0.00497083969101
0.00497084440587
0.00497084794655
0.00497084984185
0.00497085069623
0.00497085161385
0.00497085365113
0.00497085730007
0.00497086224413
0.00497086764067
0.00497087266447
0.00497087712257
0.00497088104278
0.00497088446729
0.00497088743379
0.00497088997881
0.00497101868749
0.00497106317307
0.00497105586279
0.00497105569698
0.00497106173725
0.00497106684172
0.0049710696693
0.00497107035556
0.00497107008525
0.00497107026459
0.00497107185014
0.00497107557561
0.00497108129934
0.00497108784778
0.00497109381714
0.00497109889535
0.00497110318114
0.00497110677454
0.00497110975492
0.0049711121928
0.00497126667398
0.00497131078852
0.00497130182121
0.00497130121257
0.00497130641595
0.00497131030813
0.00497131149265
0.00497131050813
0.00497130903602
0.0049713080772
0.00497130794383
0.00497130971001
0.00497131407493
0.00497131976884
0.00497132486099
0.00497132885408
0.00497133198839
0.00497133444313
0.00497133632613
0.00497133772311
0.00497152758713
0.00497157618502
0.00497156822118
0.00497156841713
0.00497157380444
0.00497157670293
0.00497157609522
0.00497157379798
0.00497157143557
0.0049715688223
0.0049715656851
0.00497156335551
0.0049715632926
0.00497156501452
0.00497156656557
0.00497156718358
0.0049715672104
0.00497156693174
0.00497156644785
0.00497156580642
0.00497183623259
0.00497188570978
0.0049718749094
0.00497187100938
0.0049718708245
0.00497186806783
0.00497186314399
0.00497185781756
0.00497185246828
0.00497184620532
0.00497183876984
0.00497183137875
0.00497182489882
0.00497181944797
0.00497181469649
0.00497180992514
0.00497180530191
0.00497180112609
0.00497179744205
0.00497179418571
0.00497215525346
0.00497219265039
0.00497217610674
0.00497216537347
0.00497215772996
0.00497214868732
0.00497213874245
0.00497212887452
0.00497211899271
0.00497210889563
0.00497209889554
0.00497208938124
0.00497208006858
0.00497206930976
0.00497205834116
0.00497204828165
0.00497203929492
0.00497203154787
0.0049720250175
0.00497201952302
0.00497240791381
0.00497242027145
0.00497239684069
0.00497238563539
0.00497237829803
0.0049723698162
0.00497235995264
0.00497234954849
0.00497233955242
0.0049723304827
0.00497232202226
0.00497231425217
0.00497230669933
0.00497229726498
0.00497228495509
0.00497227271245
0.00497226188824
0.00497225269984
0.00497224505641
0.00497223875123
0.00497255305652
0.00497256397669
0.00497254621255
0.00497254167303
0.0049725409048
0.00497253848051
0.00497253385615
0.00497252820476
0.00497252245755
0.00497251714689
0.00497251266528
0.00497250724407
0.00497250166206
0.00497249626052
0.00497248835673
0.00497247867246
0.00497246966303
0.0049724620431
0.00497245572614
0.00497245057492
0.00497272723656
0.00497273549852
0.00497271166613
0.0049727047912
0.00497270320803
0.00497270114742
0.00497269799133
0.00497269424827
0.00497269044946
0.0049726882506
0.0049726868997
0.00497268459953
0.00497268151074
0.00497267774706
0.00497267417796
0.00497266944243
0.00497266491845
0.00497266127663
0.00497265836275
0.00497265608865
0.00497286135902
0.00497287640198
0.00497286127645
0.00497285751349
0.00497285813333
0.00497285828951
0.00497285698257
0.00497285476578
0.00497285413967
0.00497285750135
0.00497285948153
0.00497285981188
0.00497285759299
0.00497285427922
0.00497285286742
0.00497285265115
0.00497285338363
0.00497285491638
0.0049728565587
0.00497285818177
0.00497302147044
0.00497304359848
0.00497303060509
0.00497302497415
0.0049730238992
0.00497302274845
0.00497302075391
0.00497302012706
0.00497302558436
0.00497303105869
0.00497303437482
0.00497303614589
0.00497303584685
0.00497303370256
0.00497303333007
0.00497303626744
0.00497304176877
0.00497304848812
0.00497305482636
0.00497306054155
0.00497317254606
0.00497319805272
0.00497318506482
0.00497318208007
0.0049731836212
0.00497318493283
0.0049731863811
0.00497319249664
0.00497320281079
0.00497321099747
0.00497321400589
0.00497321843509
0.004973222031
0.00497322177845
0.00497322200339
0.00497322684473
0.00497323621217
0.00497324727353
0.00497325758429
0.00497326681932
0.00497336542631
0.0049733928556
0.00497337099142
0.00497336477289
0.00497336517481
0.00497336667828
0.00497337106107
0.00497338301792
0.00497339688733
0.00497340109913
0.00497340821476
0.00497341495395
0.00497342051665
0.00497342477159
0.00497342454257
0.00497342992337
0.00497344168058
0.00497345554469
0.00497346843921
0.00497348000247
0.00497354141264
0.004973574206
0.00497355551993
0.00497355211514
0.00497355610858
0.00497356231031
0.00497357390495
0.00497359194501
0.00497360071557
0.00497361120587
0.00497361816818
0.00497362770079
0.00497364718126
0.00497364824491
0.00497364555573
0.00497364973838
0.00497366132443
0.00497367569668
0.0049736894082
0.00497370181301
0.00497374620542
0.00497378811712
0.00497376896748
0.00497376494167
0.00497377058648
0.00497378032931
0.00497379683062
0.00497381245731
0.0049738267313
0.00497383523404
0.00497384679941
0.00497387673347
0.00497388574249
0.00497388027521
0.00497387774748
0.00497388213129
0.00497389262371
0.00497390642797
0.00497392005735
0.00497393233047
0.00497395664778
0.00497400705831
0.00497399574867
0.00497399464186
0.00497400346471
0.00497401666105
0.00497403455507
0.00497405388672
0.00497406443452
0.00497407896675
0.00497410504768
0.00497412135286
0.0049741190756
0.00497411969911
0.00497412334404
0.00497412664462
0.00497413456856
0.0049741469083
0.00497415993969
0.00497417142275
0.00497419731549
0.00497425433473
0.00497424283223
0.00497424524038
0.00497425663068
0.00497427093838
0.00497428994419
0.00497430553537
0.00497432328012
0.00497434482142
0.00497436391835
0.00497437196728
0.00497437513618
0.00497438137668
0.00497438306316
0.0049743836362
0.00497438843023
0.00497439837258
0.00497440992432
0.00497441965599
0.00497446642945
0.00497453355995
0.00497452410476
0.00497452568695
0.00497453633483
0.00497455173323
0.00497457279845
0.00497459681346
0.00497462219006
0.00497464179343
0.00497465215081
0.004974652095
0.00497465629976
0.00497465799707
0.00497465875719
0.00497465691181
0.00497465874932
0.00497466417397
0.0049746718183
0.00497467785712
0.00497483082982
0.00497491426782
0.00497489785601
0.00497489283684
0.00497489882965
0.00497491365638
0.00497493432616
0.00497495241727
0.00497496122756
0.00497496238493
0.00497495784771
0.00497495661837
0.00497495576478
0.00497495676302
0.00497495271299
0.00497494901618
0.00497494629584
0.00497494515917
0.00497494545434
0.00497494515782
0.00497537505615
0.00497544959398
0.00497541767775
0.00497539672963
0.0049753802783
0.00497536904879
0.00497535949434
0.00497534480398
0.00497532536021
0.00497530605525
0.00497529107609
0.00497527993181
0.00497527177081
0.00497526377822
0.00497525613708
0.00497524781275
0.00497524121501
0.00497523444015
0.00497522575284
0.00497521719711
0.00497589439174
0.00497592663531
0.00497589747637
0.00497587768536
0.00497585429283
0.00497582088773
0.00497578207997
0.00497574186481
0.00497570271214
0.00497566717728
0.00497563675238
0.00497561057187
0.00497558747697
0.004975568477
0.00497555316196
0.00497554150017
0.0049755318694
0.00497552099449
0.00497550450297
0.00497548712455
0.00497618473691
0.00497617812225
0.00497615657367
0.0049761493798
0.00497614417246
0.00497612883904
0.00497609894807
0.00497606163178
0.00497602233435
0.00497598378076
0.00497594738417
0.00497591336525
0.00497588129363
0.00497585368502
0.00497583287927
0.00497581877937
0.00497580682504
0.00497579210104
0.00497577126293
0.0049757466321
0.00497634780795
0.0049763296545
0.00497630729947
0.00497630156335
0.00497630304755
0.00497630310185
0.00497629362449
0.00497627356996
0.00497624742814
0.00497621812475
0.00497618795599
0.00497615807474
0.00497612809518
0.00497610108351
0.00497607974543
0.00497606464551
0.00497604917389
0.00497603277111
0.0049760131902
0.00497598665512
0.00497647415856
0.00497645827329
0.00497643719352
0.00497643166612
0.00497643219106
0.00497643482916
0.00497643377599
0.00497642458357
0.00497640935864
0.00497639033705
0.00497636986539
0.00497634822076
0.00497632619179
0.00497630520308
0.00497628734546
0.00497627275657
0.0049762563907
0.00497624160604
0.0049762254266
0.00497620244956
0.00497660825938
0.0049765919757
0.00497657131877
0.00497656398329
0.00497656259925
0.00497656349553
0.00497656228359
0.00497655567604
0.00497654488594
0.00497653231055
0.00497651980974
0.00497650696784
0.00497649251568
0.00497647745012
0.00497646473453
0.00497645334793
0.00497644063872
0.00497642712961
0.00497641303891
0.00497639567582
0.00497671018747
0.00497670221525
0.00497668874274
0.00497668364831
0.00497668314315
0.00497668350153
0.00497668236623
0.00497667746248
0.00497667010202
0.00497666265046
0.0049766567257
0.00497665016043
0.00497664119746
0.00497663131375
0.00497662361997
0.00497661782488
0.00497660940127
0.00497659672332
0.00497658399363
0.00497657174105
0.00497683668276
0.00497682751014
0.0049768090562
0.00497680260488
0.00497680113154
0.00497680125318
0.00497680008515
0.00497679632
0.00497679109563
0.0049767869318
0.00497678642576
0.00497678549685
0.00497678016178
0.00497677449335
0.00497677280533
0.00497677309917
0.00497676846323
0.00497675700441
0.00497674584925
0.00497673759246
0.00497693847012
0.00497693348841
0.00497691601181
0.00497691084692
0.00497691068449
0.00497691067813
0.00497690986176
0.00497690730742
0.00497690449291
0.00497690540739
0.0049769120593
0.00497691463247
0.00497691392841
0.00497691332098
0.00497691684731
0.00497692297676
0.00497692251982
0.00497691329893
0.0049769045164
0.00497689957764
0.00497704837739
0.00497704670509
0.00497702849018
0.00497702274245
0.00497702139076
0.00497702056417
0.00497701917106
0.00497701748686
0.00497701799528
0.00497702635839
0.0049770386107
0.004977044791
0.00497704754836
0.00497705274253
0.00497706026157
0.00497707123197
0.00497707642003
0.00497707051993
0.00497706491186
0.00497706280245
0.00497714063708
0.00497714555999
0.00497713215672
0.00497712820046
0.00497712778367
0.00497712750311
0.0049771277185
0.00497712946033
0.00497713642855
0.00497715402562
0.0049771698997
0.00497717718689
0.00497718654481
0.00497719508261
0.0049772066688
0.0049772256595
0.00497723472432
0.00497723327911
0.00497723127687
0.00497723115518
0.00497724799448
0.00497725921076
0.00497724662125
0.00497724271811
0.00497724173192
0.0049772425091
0.00497724531049
0.00497725162431
0.00497726797126
0.00497729243432
0.00497730723304
0.00497732097555
0.00497733278213
0.00497734685051
0.00497736488424
0.00497738730486
0.00497740268085
0.00497740598735
0.00497740647743
0.00497740648208
0.0049773702666
0.00497738291018
0.00497736492086
0.0049773612372
0.00497736269183
0.00497736740564
0.00497737526177
0.00497738960275
0.00497741785063
0.00497744241734
0.00497746089939
0.00497747568326
0.00497749330141
0.00497751206568
0.00497753381192
0.00497756547273
0.0049775813828
0.00497758738065
0.00497758819902
0.00497758789991
0.00497752744404
0.00497754332746
0.00497751571131
0.0049775106399
0.00497751414176
0.00497752194366
0.00497753409949
0.00497755856544
0.0049775898062
0.00497761360761
0.00497763090018
0.00497765159619
0.0049776723903
0.00497769350521
0.0049777246694
0.00497775251054
0.00497776859403
0.00497777644523
0.00497777850063
0.00497777886623
0.00497769421636
0.00497771591109
0.00497768632347
0.00497768307462
0.00497769064545
0.00497770275061
0.00497772205924
0.00497775523289
0.00497778625013
0.00497780482141
0.00497782707378
0.00497784831967
0.00497787077727
0.00497789659127
0.00497792353451
0.00497795295539
0.00497797034234
0.00497798064733
0.0049779846232
0.00497798590416
0.00497788107486
0.004977914867
0.00497788560016
0.00497788330869
0.00497789405954
0.00497791104195
0.004977940166
0.00497797649759
0.00497799678136
0.00497801974193
0.00497804007295
0.00497806303477
0.00497808881221
0.0049781132775
0.00497814669119
0.00497817269891
0.00497819188362
0.0049782052241
0.00497821189141
0.00497821408869
0.00497807917914
0.00497812656386
0.00497810712423
0.00497810831879
0.00497812303701
0.00497814564353
0.00497818042298
0.00497820623899
0.00497823111736
0.0049782511911
0.00497827500956
0.00497830130759
0.00497832629012
0.00497835759013
0.00497838581298
0.0049784141832
0.00497843629995
0.0049784535665
0.00497846369763
0.00497846690717
0.00497830348508
0.00497836462649
0.00497834706519
0.00497835441543
0.00497837392055
0.00497840091127
0.00497843343808
0.00497846339361
0.00497848408277
0.00497850789527
0.00497853207382
0.00497855790982
0.00497859265012
0.00497861968521
0.00497865317578
0.00497867999232
0.00497870545562
0.00497872681388
0.00497874040954
0.00497874546211
0.00497856167213
0.00497864247851
0.00497863058874
0.00497863866431
0.00497865774338
0.00497868539813
0.0049787231148
0.00497874688852
0.00497876910171
0.00497880023694
0.00497883134876
0.00497887337224
0.00497889632572
0.0049789235371
0.004978947244
0.00497897203377
0.0049789973204
0.00497901932614
0.00497903269493
0.00497903278075
0.00497891800013
0.0049790246605
0.00497901231863
0.00497901945155
0.00497903656899
0.00497906192637
0.00497909215162
0.00497912109736
0.00497916732287
0.00497920629438
0.00497923148059
0.00497923823192
0.00497924936456
0.00497926255246
0.00497927610623
0.00497929216664
0.00497930937855
0.00497932499548
0.00497933216168
0.00497933018282
0.00497954415652
0.00497966367771
0.00497965538593
0.00497965488141
0.00497966020695
0.00497966706972
0.00497968366066
0.00497971055046
0.00497972157258
0.00497970583803
0.00497967862061
0.00497965982869
0.00497965100997
0.00497964472324
0.00497964009625
0.00497963817619
0.00497963930975
0.00497964199479
0.00497964305754
0.00497963700207
0.00498024925607
0.00498034995912
0.00498033231343
0.00498032475471
0.00498032327763
0.00498031702774
0.00498030464785
0.00498027935319
0.00498023637061
0.00498018393921
0.00498013467103
0.00498009558022
0.00498006404491
0.00498003580248
0.00498001027554
0.004979988087
0.00497996987258
0.00497995580875
0.0049799462382
0.00497993743787
0.00498069544432
0.00498073030252
0.00498069480339
0.00498068564551
0.00498068437285
0.00498067978091
0.00498066398426
0.00498063495361
0.00498059626773
0.00498055294109
0.00498050858867
0.00498046484024
0.00498042249881
0.00498038217101
0.00498034440081
0.00498030959012
0.00498027814797
0.00498025151421
0.0049802325025
0.00498022070076
0.00498090084322
0.0049808986139
0.00498086786657
0.00498086215823
0.0049808645322
0.00498086702496
0.00498086302653
0.00498085013096
0.00498082990773
0.00498080445308
0.00498077448394
0.00498073974601
0.00498070112789
0.00498066179754
0.00498062324448
0.00498058632816
0.004980551828
0.0049805210187
0.00498049579491
0.0049804833907
0.00498105288743
0.00498104357846
0.00498101483525
0.00498101029215
0.00498101429736
0.00498101951209
0.00498102134903
0.00498101700992
0.00498100613378
0.0049809897827
0.00498096900529
0.00498094426947
0.00498091559752
0.00498088458285
0.00498085242605
0.00498082050761
0.00498078969389
0.00498076118802
0.0049807380519
0.00498072433359
0.00498118017015
0.00498117632157
0.00498115684461
0.00498115555988
0.00498116078959
0.00498116715769
0.0049811710789
0.00498116953311
0.00498116163712
0.00498114846609
0.00498113194732
0.00498111362888
0.00498109357915
0.00498107154333
0.00498104756739
0.00498102268972
0.00498099755249
0.00498097394361
0.00498095671462
0.00498094524726
0.00498132044884
0.00498132169892
0.00498130594469
0.00498130407784
0.00498130809086
0.00498131359541
0.00498131712376
0.00498131563838
0.00498130825163
0.00498129604688
0.00498128133409
0.00498126633356
0.00498125212735
0.00498123775136
0.00498122144797
0.00498120344441
0.0049811840417
0.00498116543904
0.00498115407085
0.00498114357849
0.00498144109329
0.00498144622544
0.00498143018439
0.00498143162419
0.00498143854006
0.00498144619704
0.00498145101822
0.00498145050332
0.00498144409397
0.00498143308502
0.00498142014878
0.00498140829115
0.004981399467
0.00498139213465
0.00498138272154
0.00498137047754
0.00498135546756
0.00498134108793
0.0049813348214
0.0049813317176
0.00498157781386
0.00498158866078
0.00498156562299
0.00498156531837
0.00498157206892
0.00498157934144
0.00498158332707
0.00498158208936
0.00498157547487
0.00498156507465
0.00498155384808
0.00498154498037
0.00498154100502
0.00498154029363
0.00498153683389
0.00498152848242
0.00498151627677
0.00498150609992
0.00498150553548
0.00498150806249
0.00498168635541
0.0049817068635
0.00498168874395
0.00498169169935
0.00498170107573
0.00498170944574
0.00498171338231
0.00498171160283
0.00498170492129
0.00498169504894
0.00498168483565
0.00498167819278
0.00498167948956
0.00498168540516
0.00498168614678
0.00498168023082
0.00498167120644
0.00498166595343
0.00498167095846
0.00498168278268
0.00498181294095
0.00498184642521
0.00498182802685
0.00498182912928
0.00498183740919
0.00498184422926
0.00498184602718
0.00498184232145
0.00498183437471
0.0049818237907
0.00498181416924
0.00498181098124
0.00498181930275
0.00498183075899
0.00498183387851
0.00498183092113
0.00498182631976
0.00498182647866
0.00498183690534
0.00498185631685
0.00498193209087
0.00498197612113
0.00498196668731
0.0049819691833
0.00498197745005
0.00498198274021
0.00498198205785
0.00498197603772
0.00498196646242
0.00498195571082
0.00498194834257
0.00498195076994
0.0049819665028
0.00498198167669
0.00498198764349
0.00498198852431
0.00498198824982
0.00498199390363
0.00498200954155
0.00498203553283
0.00498209059115
0.00498214016125
0.00498212164883
0.00498212248027
0.00498212985923
0.00498213319955
0.00498213006976
0.00498212191202
0.00498211119663
0.0049821013892
0.00498209783305
0.00498210767388
0.00498212988659
0.00498214724927
0.00498215617695
0.00498215964566
0.00498216305944
0.00498217409233
0.00498219294119
0.00498222293942
0.00498227096052
0.00498232021228
0.00498229525288
0.00498229523773
0.00498230227536
0.00498230422981
0.00498229926249
0.00498228962767
0.00498227877635
0.00498227102602
0.00498227267831
0.00498229095951
0.00498231612272
0.0049823332953
0.00498234283607
0.00498234743308
0.0049823547987
0.00498236980039
0.00498239086154
0.00498242390021
0.00498246833306
0.00498252214327
0.00498249455243
0.00498249414019
0.00498250117634
0.00498250204913
0.00498249556637
0.00498248529682
0.00498247549488
0.00498247081271
0.00498247900799
0.00498250264354
0.00498252575006
0.00498254052336
0.00498254865513
0.0049825547889
0.00498256600124
0.00498258344351
0.00498260464395
0.00498263743292
0.00498268698672
0.00498274681371
0.00498272245726
0.00498272234912
0.00498273001648
0.00498273010652
0.00498272218408
0.00498271196345
0.00498270412548
0.00498270376333
0.00498271765753
0.00498274026965
0.0049827577912
0.00498276845059
0.00498277512041
0.00498278353191
0.00498279701533
0.00498281326925
0.00498283305056
0.00498286382507
0.00498292500868
0.00498299646135
0.00498298241107
0.00498298345646
0.00498299112333
0.00498299020194
0.0049829805622
0.0049829704926
0.00498296514407
0.00498296970421
0.00498298515289
0.00498300203444
0.00498301251544
0.00498301874222
0.00498302475167
0.00498303348582
0.00498304494007
0.00498305727261
0.00498307335612
0.00498309844632
0.00498320048176
0.00498327839864
0.00498325833504
0.00498326237175
0.00498327206403
0.00498327126866
0.00498326225841
0.00498325432732
0.00498325254787
0.00498326015136
0.00498327303261
0.00498328201369
0.00498328608287
0.00498328871807
0.00498329223627
0.00498329653498
0.00498330152402
0.00498330739701
0.0049833172079
0.00498333521325
0.00498353330539
0.00498361837568
0.00498359213535
0.00498359806104
0.00498360334607
0.00498359527682
0.00498358108609
0.00498356955608
0.00498356415215
0.00498356592035
0.00498356995433
0.0049835699212
0.00498356640115
0.00498356256504
0.00498355880828
0.00498355518647
0.00498355219752
0.00498355059477
0.00498355301415
0.00498356258488
0.00498393647117
0.00498401674339
0.00498398993481
0.00498398865194
0.00498398083927
0.00498396177904
0.00498393578137
0.0049839109657
0.00498389059297
0.00498387637304
0.0049838648115
0.00498385114822
0.00498383653983
0.00498382232287
0.00498380883387
0.00498379622658
0.00498378456099
0.00498377487078
0.00498376859854
0.00498376834796
0.00498427072716
0.00498432813543
0.00498429868757
0.00498428685277
0.00498427809995
0.00498426433825
0.00498424051096
0.0049842096297
0.00498417769884
0.00498414967414
0.00498412458356
0.00498409942952
0.00498407362191
0.00498404997356
0.00498402795173
0.00498400698324
0.00498398753439
0.00498397012563
0.0049839552803
0.00498394570435
0.00498442764109
0.00498444639507
0.00498442558436
0.00498441672877
0.0049844140916
0.00498441204626
0.0049844033856
0.00498438419993
0.00498435795874
0.00498433129298
0.00498430600058
0.00498427920409
0.00498425206072
0.0049842255391
0.00498420037941
0.00498417647427
0.00498415311411
0.00498413109529
0.00498411089292
0.00498409337928
0.00498446613759
0.00498448158444
0.00498446609619
0.00498446274164
0.00498446330219
0.00498446457896
0.00498446297617
0.00498445402948
0.00498443809501
0.00498442156831
0.00498440725068
0.00498439062884
0.00498436849244
0.00498434717513
0.00498432582962
0.00498430401291
0.00498428255872
0.00498426079099
0.00498423912788
0.00498421799775
0.00498450397849
0.0049845241116
0.00498450473488
0.00498450077712
0.0049845005225
0.00498450117963
0.00498449984355
0.00498449344127
0.0049844825118
0.00498447432609
0.00498447082169
0.00498446206062
0.00498444873608
0.00498443328629
0.00498441831148
0.00498440317563
0.0049843864779
0.00498436965788
0.00498435181751
0.00498433288801
0.00498454109894
0.00498456985847
0.00498454334499
0.00498453731345
0.0049845360275
0.00498453591176
0.00498453356017
0.00498452676724
0.00498451716131
0.00498451365506
0.00498451820203
0.00498451877016
0.0049845099385
0.00498450293053
0.00498449550049
0.00498448750176
0.00498447985565
0.00498447049002
0.0049844612237
0.00498445110373
0.00498458376557
0.0049846140848
0.00498458249419
0.00498457204589
0.00498456875614
0.0049845665253
0.00498456140221
0.00498455182617
0.00498454256112
0.00498454885552
0.00498456522203
0.00498456838934
0.00498456961912
0.00498456964351
0.0049845705884
0.00498457238836
0.00498457271596
0.00498457436139
0.0049845753958
0.00498457921192
0.00498463644329
0.00498464617362
0.00498461938219
0.00498460590659
0.00498460169795
0.0049845980366
0.0049845907514
0.00498458157939
0.00498458425297
0.00498460892914
0.00498462829306
0.00498463759929
0.00498464327818
0.00498465103387
0.00498466006333
0.00498466804595
0.00498467981232
0.0049846901814
0.00498470563887
0.00498471930828
0.00498469894881
0.00498467968106
0.00498465945526
0.00498465405723
0.00498465660262
0.00498465769806
0.00498465652025
0.00498466306998
0.00498468897852
0.0049847164026
0.00498472895261
0.00498473848501
0.00498474954206
0.00498476421035
0.00498477695703
0.00498479708049
0.00498481382092
0.00498483161497
0.0049848473307
0.00498486494724
0.00498480360716
0.00498478993732
0.00498477670641
0.00498478799023
0.00498480472594
0.00498481589951
0.00498482612578
0.00498484224942
0.00498486255873
0.00498487389105
0.00498488565496
0.00498490087714
0.0049849167442
0.00498493113053
0.00498494790944
0.00498496080534
0.00498497173619
0.00498498256938
0.00498499616034
0.00498501466029
0.00498519579089
0.0049851975069
0.00498515851363
0.00498516079242
0.00498516808554
0.0049851661907
0.00498515989221
0.00498515833914
0.00498516233483
0.00498516623797
0.00498516899824
0.00498516629695
0.00498516014088
0.00498515451348
0.00498514980882
0.00498514746663
0.0049851476605
0.00498515039786
0.00498515773378
0.00498517134267
0.0049857260657
0.0049857495487
0.00498571760857
0.00498571131737
0.00498570822225
0.00498569802004
0.00498568074407
0.00498565574371
0.00498561792898
0.00498557143118
0.00498552289092
0.00498547487502
0.00498543116128
0.00498539459362
0.00498536749285
0.00498534874292
0.00498533532723
0.00498532616059
0.00498532338842
0.0049853285219
0.0049858354883
0.00498583816201
0.00498583931292
0.00498584378256
0.00498585190671
0.00498585924299
0.00498585865448
0.0049858457465
0.00498581811161
0.00498577700033
0.00498573055416
0.00498568298634
0.00498563681219
0.004985594006
0.00498555759003
0.00498552804651
0.00498550433773
0.00498548640093
0.00498547524297
0.00498547146092
0.0049858491854
0.00498584966102
0.00498584992797
0.00498585022093
0.00498585050399
0.00498585072424
0.00498585083321
0.00498585080181
0.00498584791379
0.00498583368357
0.00498580901236
0.00498577916088
0.0049857473296
0.00498571483856
0.00498568415611
0.00498565624412
0.00498563137154
0.00498561106116
0.00498559589211
0.00498558867037
0.00498585944109
0.00498585950462
0.00498585948191
0.00498585944193
0.00498585940671
0.00498585937356
0.0049858593414
0.00498585931318
0.00498585928424
0.00498585398043
0.00498584151122
0.00498582412175
0.00498580375967
0.00498578162497
0.00498575907359
0.00498573683177
0.00498571576283
0.00498569699519
0.00498568417728
0.00498567637433
0.00498586911304
0.00498586914713
0.00498586911304
0.00498586902629
0.00498586890738
0.00498586876564
0.00498586860787
0.00498586842601
0.00498586819011
0.00498586555624
0.00498585925356
0.00498584905032
0.00498583528489
0.00498581874481
0.00498580193682
0.00498578603167
0.00498576909043
0.00498575583161
0.0049857456643
0.00498574184038
0.00498587983969