/*--------------------------------*- C++ -*----------------------------------*\
| =========                 |                                                 |
| \\      /  F ield         | OpenFOAM: The Open Source CFD Toolbox           |
|  \\    /   O peration     | Version:  2312                                  |
|   \\  /    A nd           | Website:  www.openfoam.com                      |
|    \\/     M anipulation  |                                                 |
\*---------------------------------------------------------------------------*/
FoamFile
{
    version     2.0;
    format      ascii;
    arch        "LSB;label=32;scalar=64";
    class       volScalarField;
    location    "0.505/water";
    object      k.gas;
}
// * * * * * * * * * * * * * * * * * * * * * * * * * * * * * * * * * * * * * //

dimensions      [0 2 -2 0 0 0 0];

internalField   nonuniform List<scalar> 
1497
(
0.0911989334106
0.0695562159106
0.0510940515045
0.0360237985364
0.0247169587093
0.0169122734046
0.0116811071627
0.00796048784392
0.00510210769986
0.00305228629698
0.001834954084
0.0012424207996
0.001015505358
2.21460810185
0.987779389598
0.504529166477
0.288646447453
0.188046818877
0.137993581607
0.10815723069
0.0856099902216
0.0661818774387
0.0494333985409
0.0354630946304
0.0248038499228
0.0173495772766
0.0122820344163
0.00857276650754
0.00559968348654
0.00337901651836
0.00201608950287
0.0013328775809
0.00105696051899
2.07590065896
0.910309528631
0.463897838255
0.264884683027
0.171397987245
0.124577649346
0.0970779171115
0.0768029727103
0.0597035959937
0.0450587089318
0.0328069688629
0.0234387813754
0.0168434307669
0.0122521912226
0.0087224304805
0.00575271948033
0.00348902343756
0.00209039027067
0.00138511938884
0.00109562452347
2.06594355261
0.865991016616
0.43527378393
0.2462810191
0.156588284071
0.111243612289
0.0851265440597
0.0667061788277
0.0518399747145
0.039344487752
0.0290946516624
0.0213446508341
0.0158477834092
0.0118383821411
0.00851451241135
0.00560493504063
0.00340455296921
0.00206719236702
0.00140008622192
0.00112703575415
2.19833822252
0.879824584295
0.436610540659
0.241985313003
0.14849751913
0.101041801267
0.0745928955069
0.0572248160702
0.0441671183153
0.0337042766393
0.0254413578456
0.0192893921376
0.0148101224678
0.0112555450933
0.00805636974799
0.00525172389775
0.00320128843227
0.00199070158659
0.00139630160473
0.00115489111213
2.46841336525
0.948223469217
0.460454945962
0.248479455386
0.146000326635
0.0941175925308
0.0662669448973
0.0494217765273
0.0378231742178
0.0291600607996
0.0226189802032
0.0177452530431
0.0139310975193
0.0105709408208
0.00744707857611
0.00481650135605
0.00297184871253
0.00191054619588
0.00139317878065
0.00118359227139
2.94983573692
1.07994966031
0.508655530369
0.266399040448
0.148792341824
0.0905561230971
0.0606363833609
0.0439207054709
0.0334402073583
0.0261928961947
0.0208774039419
0.0167258211752
0.0131378321995
0.00980714905456
0.00681952393238
0.00442229748499
0.00279247738824
0.00186068569725
0.00140079589276
0.00120847509829
3.56222380962
1.26564371996
0.583897811783
0.295248279737
0.157173663195
0.0904603160149
0.0578544004364
0.040911049874
0.031112461007
0.0246969576845
0.0199429603687
0.0159549157568
0.0123449919945
0.00908859390746
0.00630898817108
0.00415807029862
0.00270422924353
0.00185164507527
0.00141442053267
0.00122949253518
4.08289718401
1.45061093038
0.66510145553
0.325587694011
0.166484132382
0.0920051332683
0.0571517890087
0.0398677693294
0.0302984501359
0.0241119509877
0.0193744262823
0.015297446879
0.0116842657958
0.0085665935442
0.00600943869851
0.00405891180949
0.00271043702093
0.00188447556081
0.00144664295553
0.00125859173923
4.1391061317
1.53021448342
0.69920169784
0.333619946536
0.167457666775
0.0919915067501
0.0570759221863
0.0398919482068
0.030404260094
0.0241284770994
0.0191921546302
0.0149528152321
0.0113181111644
0.00831626518011
0.00591320102284
0.00408446846643
0.00279171220357
0.00196115015047
0.00150348191731
0.00129815773253
3.50942930695
1.39931970462
0.646772648661
0.312633008439
0.160457967717
0.0906780099682
0.0576995353632
0.0411822965387
0.0316189005142
0.0249602238231
0.0195803625256
0.0150218674288
0.0112710112907
0.00828591780876
0.0059560009719
0.00422076674409
0.00295028161521
0.00208811668175
0.0015948190471
0.00136541273726
2.78777092582
1.22493647147
0.583440285529
0.291432604415
0.155243804856
0.0914889088315
0.0606203886103
0.0442734184328
0.0342179191006
0.0268051658115
0.0206558827908
0.015543666599
0.0114975428578
0.00841920310585
0.00615564426926
0.00447799731204
0.00319615545371
0.0022798498583
0.00173641876967
0.00147675310076
2.43956268552
1.14445649468
0.561904781962
0.287485735564
0.15922561735
0.097665372314
0.0666840689495
0.0495893740723
0.038526594862
0.0298811386652
0.0224904573353
0.0164753876263
0.0119662409266
0.00878486147246
0.00654885656491
0.00487537201553
0.00355475765851
0.00256018435683
0.00194372201284
0.00163226780073
2.45128980123
1.17513427854
0.589357955608
0.309447732359
0.174340359636
0.108947481853
0.0756502039316
0.0568476704443
0.0441650763378
0.0337700589121
0.0247783271464
0.0177587525212
0.0128219275087
0.00949677537813
0.00717762031974
0.00545353614945
0.00406880072419
0.00296850358979
0.00223969016773
0.00184176828901
2.53443098804
1.24039981684
0.635310572637
0.338798424162
0.193028315085
0.12110280744
0.0841012094825
0.0629101558557
0.0485921773895
0.0370076405168
0.0271223146566
0.0194633927551
0.0141208800986
0.0105331779236
0.00806347165348
0.00624748159473
0.00478506931639
0.00355867079367
0.00267319491324
0.00214322353751
2.38246790194
1.13377296694
0.580469176387
0.319603166179
0.189694527369
0.1225785112
0.0864751891432
0.0652964095633
0.0509211887398
0.0393670742674
0.0293559166728
0.0212790477227
0.015561730694
0.0117134654964
0.00911487689108
0.00724406170419
0.00572085025285
0.00437264044536
0.00330021696566
0.00258859626243
2.02966678026
0.944098096627
0.48880762391
0.276493572206
0.170172206079
0.114158403714
0.0829718602591
0.0640374944906
0.050938560231
0.0403530336828
0.03082634241
0.0227075481886
0.0168503236998
0.0128694988525
0.0102220625181
0.00837147303533
0.00684448469874
0.00540989099907
0.00414976275272
0.00321283008304
1.79997980933
0.830517503449
0.429573661315
0.245340593258
0.153706482182
0.105361437499
0.0780376826613
0.0609887730749
0.0489979851814
0.0392963682034
0.0305561734047
0.0231603823191
0.0176523005081
0.0138492744734
0.0113182710435
0.00956883617814
0.00810358354559
0.00663017857415
0.00520686230281
0.00401840924502
1.71897510493
0.785525854376
0.40455410638
0.228961153875
0.142791417385
0.0981324102978
0.0728870353291
0.0567829997926
0.045410616497
0.036570662699
0.0290020779369
0.0227087304957
0.0179442274627
0.0146176996811
0.0123963216261
0.0108493751807
0.00948848018546
0.00799274931283
0.00642300668744
0.00497186639131
1.79967380746
0.795441452052
0.400790747756
0.220013120395
0.134358329857
0.0919148382296
0.0680090063568
0.052277635598
0.041491195562
0.0334881780179
0.0270649132857
0.0219121038297
0.0180579118445
0.0153872579174
0.0136114235848
0.0123296380877
0.0110641425349
0.00951588718063
0.00778392586279
0.00602316653181
2.1314178518
0.857343764633
0.407124757132
0.210599936227
0.126171545368
0.086594129755
0.0638780456128
0.0487576269992
0.0384565132679
0.0311150239655
0.0255966118368
0.021439446799
0.0184724250665
0.0164914749238
0.0151861235054
0.0141299760655
0.012869194556
0.0112285431717
0.00927101095591
0.00708260464746
2.61309072046
0.970115832911
0.432480147337
0.210328893236
0.121830292002
0.0836142684881
0.061577843504
0.0468573510833
0.0368379143106
0.0299151656858
0.0250745845378
0.0217376678766
0.0195477224126
0.0181637815668
0.0171993790677
0.0162139146593
0.0148820237946
0.0131111946617
0.0107086701241
0.0079432553234
2.8426272569
1.05492926536
0.459470761641
0.21981741908
0.124834035251
0.0842332123915
0.0615428777795
0.0466364376673
0.0365903787528
0.0299171737497
0.0256084275603
0.0229361125142
0.021329690116
0.020312664782
0.0194550461
0.0184317022318
0.0170105739669
0.0148010856981
0.0114803158819
0.00832663508258
2.57818796476
1.05152746427
0.474744842792
0.234225109377
0.133245735916
0.0880974749771
0.0632862478428
0.0475427851787
0.0372931968191
0.0308301655815
0.0269563187539
0.024766452936
0.0234570488016
0.0225320660038
0.0216601222839
0.0205246166917
0.0185535800796
0.0150668496303
0.0111314471831
0.00812616160298
2.13649962339
0.967141798655
0.466220114102
0.242731424069
0.14080037907
0.091886442669
0.0648661130857
0.0483828344579
0.0381536796182
0.0320102213631
0.0285264310188
0.0265830903952
0.0253415324949
0.0243728406214
0.0232477856209
0.0212654481523
0.0177223462579
0.0135424728583
0.0100029595454
0.00739302122134
1.87597167818
0.915855032692
0.466994477112
0.251333554735
0.145883611264
0.0936938693611
0.0649819783921
0.0481905517702
0.0383281935579
0.0326878778416
0.0295276939566
0.0276433352647
0.0262568815389
0.024763004686
0.022427078349
0.0189628816851
0.0149959377108
0.0113842177006
0.00851762713897
0.0063209222794
1.92494726633
0.966706879456
0.5015034258
0.264971937726
0.152583655831
0.0961522482196
0.0649812732883
0.0473261807698
0.0374779845485
0.0320940258601
0.0289755116723
0.0267929692873
0.0247441567686
0.0221768189874
0.0189176801112
0.0154333242938
0.01212474081
0.00931602644986
0.00704593613498
0.00512166650897
2.20380788762
1.10561481617
0.559088221878
0.290560707175
0.16632346637
0.103017297394
0.0673362326034
0.0470514445684
0.0359009086147
0.0298306881186
0.0262194761141
0.023563162011
0.0210413576987
0.0182219207147
0.0151674232264
0.0123420450136
0.00983925618108
0.00767604703074
0.00571286875047
0.00400647857286
2.51339790467
1.20501383557
0.608285716886
0.332173512752
0.195935110661
0.120086428154
0.0762162034701
0.0502777026127
0.0356239976433
0.0275540909682
0.0229095895448
0.0198037471869
0.0172222179092
0.0146926429649
0.0122830820506
0.0101944805818
0.00827453198433
0.00638685653659
0.00455724388368
0.00302268234068
2.54665862149
1.19055834963
0.618445989139
0.355633220541
0.223038407243
0.146257214276
0.0954158172097
0.0600924502693
0.039231280285
0.0275789521564
0.0209330344109
0.0169769745906
0.0143484385796
0.0122491773771
0.0104943319878
0.00888318201531
0.00718613125054
0.00529929888035
0.00353055261291
0.00227509592737
2.35246147175
1.1219613603
0.597421830269
0.356451276959
0.233513637639
0.161431342627
0.112556425141
0.0760214621182
0.0481064929175
0.0308739737181
0.0209962364066
0.0156067012548
0.0126945025004
0.010918455701
0.00954247702784
0.00809160951425
0.00628566248188
0.00429958624846
0.00274216878991
0.00178243912922
2.12394887727
1.01786902244
0.550733722394
0.338696174186
0.230437397831
0.166271771217
0.121831182265
0.0872077706836
0.0581450379036
0.0360611351881
0.0225755207086
0.0154442031856
0.0120529410819
0.0103656625568
0.009060867423
0.00747376231347
0.00543944808996
0.00349228751921
0.00222432968284
0.00141368224231
1.8999354858
0.897034281119
0.490576307828
0.311113479348
0.219131633052
0.163628202188
0.124263937432
0.0920725607781
0.0634908820514
0.0396917591433
0.023990003159
0.0155994996547
0.0118595961448
0.0101464122958
0.00874594180395
0.00691343131698
0.00468574939526
0.00292581353027
0.00191416241391
0.00111016958191
1.68945860299
0.784908022235
0.437350909843
0.285278524304
0.205883433557
0.156900422625
0.121759593696
0.092107039846
0.0647056185682
0.040679960686
0.0243129121975
0.0155455457423
0.0117656299112
0.0100555750879
0.00850235440486
0.00637682669199
0.00406417456927
0.00264827302245
0.00172493526549
0.000812820388069
1.52864421117
0.707767562476
0.404916697443
0.267146989043
0.19274237567
0.147121985529
0.11511362556
0.0879620648539
0.0623467193256
0.0393947838327
0.0236364745506
0.015280016898
0.0117333436385
0.0100483293267
0.00829059396253
0.00585467641098
0.00372476570053
0.00255274401863
0.00152555864265
0.000693404109497
1.45169060195
0.679844495832
0.388356165688
0.249903696712
0.176169721497
0.133214138054
0.104475723206
0.0803476585721
0.0571512610423
0.0365559852534
0.0224105133311
0.0149821327755
0.011810180688
0.0101255912532
0.00811512934361
0.00547415636258
0.00364043683878
0.00258072046532
0.00143694067779
0.000730463109122
1.55354940737
0.697275117159
0.383436052162
0.23281934101
0.157305515984
0.117171550967
0.0919358909514
0.0709529175778
0.0506862243274
0.033086859334
0.021087631269
0.0148341758308
0.0120608617843
0.0103047642888
0.00799935175876
0.00531828367639
0.00374275139177
0.00262733716804
0.00156742710175
0.000899336170064
1.86205015419
0.747270102805
0.380923657338
0.218910879843
0.141685311304
0.102794681046
0.0800471246836
0.0617083854033
0.0444305286301
0.029817996282
0.0200715150459
0.0150019960282
0.0125534577094
0.0106006308548
0.00798059913975
0.00537328022967
0.00396403441984
0.00278987629587
0.0019125837606
0.00120936903659
0.000991498571724
0.00110923219536
0.00137489909917
0.0017939451457
0.00235310118398
0.00304790608799
0.00386580203538
0.00465093981827
0.00517502771561
0.0060977310516
0.00818835292364
0.0105382345364
0.0148230662709
0.0248333342399
0.026794247783
0.00321273184839
0.00422859664319
0.0357196175127
0.0511800592684
0.0861945404409
0.00100446777273
0.00109433527608
0.00131747623241
0.00167873391492
0.00216924896336
0.00277098881657
0.00345035102089
0.00418439012701
0.00532703419555
0.00765653724931
0.0100755121638
0.0147148975545
0.023506311689
0.0260117592042
0.0255073877582
0.00396387694233
0.00576378578879
0.035469317549
0.0496791847402
0.0818486411785
0.00103408367395
0.00111549103194
0.0013247494013
0.00166099496497
0.00210653756882
0.00262899363694
0.00321958644162
0.00414436137152
0.0061901624936
0.00866353741834
0.0146813202999
0.0239977791074
0.0269457115177
0.0227332443024
0.0118028040345
0.00283972926191
0.00830024984046
0.0352459589147
0.0485190258174
0.0771937299446
0.00107131058431
0.00115600383706
0.00136679650762
0.00169531415752
0.00211319927044
0.00260124619835
0.0032975277645
0.00477431258303
0.00670375152455
0.0115591037608
0.0224446857127
0.0274477678909
0.0281440306616
0.0229038159563
0.00329486306577
0.00257538601878
0.0232155322504
0.0350363817898
0.047985310404
0.0729051901937
0.00111154541938
0.00120467361478
0.0014259814733
0.00175679223502
0.00216341460455
0.00269022134907
0.0037156768768
0.00518354687904
0.00825478216103
0.017015407892
0.023523963242
0.0251080729615
0.022860272377
0.0177979649134
0.00311017401517
0.00277616018877
0.0249424795373
0.0361545580485
0.0484316507374
0.0691090693168
0.00115158958201
0.00125309806791
0.00148799241372
0.00182019504145
0.00222680003692
0.00288860753037
0.00395124340058
0.00509924393661
0.0124388859044
0.0194098835549
0.0223758760866
0.02166855491
0.0168890830954
0.00759620204956
0.0017597527523
0.00444374396667
0.0267442678806
0.0382635093059
0.0497280768328
0.0659995547204
0.00118396941189
0.00129428762291
0.00153104919074
0.00184365435702
0.00224974539117
0.0028834395052
0.00309429921371
0.00689654217649
0.0141568555283
0.0184634368429
0.0197072241146
0.0184409066771
0.0142202755887
0.00259461134059
0.00112122166375
0.0118685731732
0.0303969150302
0.0417850314368
0.0520327980206
0.0640010996727
0.0012094050567
0.00131668515547
0.00152038525161
0.00177539661071
0.00210570822689
0.00227490847751
0.00278670671769
0.00725304056534
0.0130462009373
0.0160578921436
0.0163601948406
0.0140999924094
0.0078003436925
0.00158983424121
0.00130798416733
0.019471761997
0.0357383830774
0.0462741529374
0.0550161994518
0.0632865746437
0.0012280613812
0.00130512146257
0.001441885412
0.0016159218694
0.00175394420628
0.00190905435237
0.00259151828958
0.00572404220239
0.0111415873765
0.0136703489774
0.0136060676425
0.0112420657987
0.00287368777431
0.000892730295688
0.00248639141237
0.0256978734834
0.0412773240193
0.0506949731168
0.0580635024667
0.0637206695412
0.00124281502803
0.00127387732116
0.00135118203181
0.00145531877251
0.00156583438185
0.00177840650133
0.00237760808089
0.00424717342913
0.00855138075031
0.0111425033074
0.0108314253165
0.00689432778368
0.00156376259638
0.000707765158392
0.00673925026745
0.0256218715146
0.0432703230477
0.0533133119174
0.0603308877052
0.0645917474681
0.00128179525943
0.00127359494896
0.00131440241022
0.00138551536695
0.00150770552298
0.00172519399833
0.00219678229936
0.00335074477109
0.00592365374383
0.0086010856337
0.0081373282742
0.00346273750626
0.00106834706525
0.00117471386388
0.00721509507704
0.0231270031793
0.0430373409172
0.0543565840785
0.0616361349626
0.0653236552359
0.00135970982805
0.00131273422604
0.00131753110871
0.00137138516523
0.00148109555814
0.00166453465101
0.00201807817383
0.00277730884047
0.00424082572311
0.00622310916746
0.0053372915079
0.00212781001854
0.00102846001954
0.00420112011306
0.00626756770024
0.019887909382
0.0413370576957
0.0528361269262
0.0610730838713
0.0654211043784
0.00145803401574
0.00136823776962
0.00134192893163
0.00136637499395
0.00143736929905
0.00156324134467
0.00180484631955
0.00231512235126
0.00326607813169
0.00436144601795
0.00344092174002
0.0013817024213
0.00230732205639
0.00463171594233
0.00580362747751
0.0167282038302
0.0385460589849
0.0498720626584
0.0567234213694
0.0642415681294
0.00159285738539
0.00145420626828
0.00138628598388
0.00136730407794
0.00138621842522
0.00144553551148
0.00157746740884
0.00188119326601
0.0024789243153
0.00312503066985
0.00231486153367
0.00148060271831
0.00489843808603
0.00470715766702
0.00592144677334
0.0145094531363
0.0351945170662
0.0479622598391
0.0464498977284
0.0590553980011
0.00179743067266
0.00159322993779
0.00146980975221
0.00139700683406
0.00135922907943
0.00135149696527
0.00139085901857
0.00152656079832
0.00184820512321
0.00222190068722
0.00175281344992
0.00153556142855
0.00544510166515
0.00511358992885
0.00651073442113
0.0134591395901
0.0319702635912
0.0481321785373
0.0302079278973
0.0464608208018
0.00210808296226
0.00181345740295
0.00161778642315
0.00148102024244
0.00138217566739
0.00131422141621
0.00128253189218
0.00130305603177
0.00142978314946
0.00164823975108
0.00152611166013
0.00172984636818
0.00602258451454
0.00589329919142
0.00751067080771
0.013407473373
0.0295887624776
0.0472425640574
0.0149781666437
0.0250812735344
0.00255150970195
0.0021350265927
0.00184699736982
0.00163430764712
0.00146853727263
0.00134569424399
0.00125900495421
0.00120452820359
0.00121567878043
0.00136953712541
0.0014782726212
0.00212359841468
0.00699086970179
0.00714204309104
0.00896483986327
0.0141797996438
0.0285164628895
0.0474096729983
0.0104951233618
0.0147786761078
0.00313186082579
0.00255972705377
0.00215942339179
0.00185657911421
0.00162173911799
0.00144446467331
0.00130764953183
0.00120025137218
0.00115305434084
0.00130897758572
0.00154625370808
0.00286273300068
0.00852436404549
0.00902410394475
0.0109664701324
0.0156244135988
0.0284285042598
0.0476716650931
0.0109607967268
0.0137380995451
0.00382478953184
0.00306886925728
0.00253829037746
0.00213717987567
0.00183163943249
0.00159678588512
0.00140988155192
0.00126195841775
0.00119182638204
0.00140303292221
0.00170747831272
0.00418534264994
0.0108790612891
0.0117364103268
0.0135964944915
0.0176528054775
0.0292263725732
0.0499990673812
0.0113200781299
0.0147033074195
0.00457880320045
0.00362230268627
0.0029487453733
0.00245164021345
0.00207437220966
0.00177819908149
0.00154247849735
0.0013643273141
0.00130091697439
0.00160977384946
0.00197041575942
0.00628550450758
0.0144908131184
0.0155123773635
0.0168843812485
0.0205239722993
0.032509169418
0.0564037323406
0.00903654755802
0.0134891427747
0.005317082099
0.00415976708868
0.00334573534561
0.002756425576
0.00230823361067
0.00195286623806
0.00167680023324
0.00148881469179
0.0014669711422
0.00190782840483
0.00242857391851
0.00836151489326
0.0201996273896
0.0207002699984
0.0212200895928
0.0261515153359
0.0435791355755
0.0193260361616
0.0090152327712
0.0101159127804
0.0059134123748
0.00459017748322
0.00365540497683
0.00298422924314
0.00247161178966
0.00206876838543
0.00177542644262
0.00162663266355
0.00171446158904
0.00234102524718
0.00329214793958
0.0100987438703
0.0293160388367
0.0281368554082
0.0290613774969
0.04034359012
0.0195129823881
0.011519151481
0.00807863289671
0.0114499341988
0.00621482265862
0.00479474749849
0.00377856421644
0.00304780428895
0.00248883970996
0.00206883280885
0.00182798962177
0.0018587745649
0.00229140246178
0.00343247147264
0.00544545516711
0.00998819241835
0.0370062551683
0.0355417050001
0.0296121111686
0.0135556210086
0.0127449320188
0.0109387826511
0.00735032179546
0.0134000461865
0.00609537686957
0.00465409329241
0.00361946013878
0.00286541577393
0.00230245476536
0.00197626269206
0.00203787875264
0.00269239173173
0.00418349740294
0.00670264819881
0.0106460446266
0.0134412547765
0.0145995896103
0.0121141937654
0.0116110541937
0.0120999376098
0.0107745135829
0.00848173688664
0.0060288655727
0.0128994832462
0.00552067204202
0.00413897344208
0.00315241584826
0.00242410310253
0.00200321635862
0.00216112807009
0.00325393045726
0.00543234978988
0.00814729343177
0.0112556229399
0.0154830988647
0.0178092431231
0.0152758128209
0.0128451336359
0.0112400161945
0.00876715978045
0.0064722840513
0.00498740996634
0.00503408248466
0.0127103225931
0.00461112278144
0.00337604088068
0.00248354724153
0.00193572235082
0.00210581485369
0.00351047740491
0.00550687310961
0.0076071731663
0.00980570188046
0.0121379739809
0.0147131040532
0.0148434222752
0.0123734300093
0.00999497486316
0.00792400247191
0.00491089628144
0.00393809722045
0.00401112098729
0.0047825098029
0.0124863184158
0.00362580662174
0.00255618045464
0.00187395610069
0.00185174938291
0.00300421845447
0.00474733099647
0.00667090569094
0.00847863006616
0.00990777229976
0.0110423762118
0.0119665749005
0.0116760859412
0.00987112684844
0.00766166043763
0.00548593195972
0.00374682508932
0.00371284088401
0.00408042247706
0.00483435446869
0.0106743700259
0.00271262015528
0.00189612620845
0.0015329987017
0.0021314732355
0.00373193617217
0.00577364535649
0.0074685491653
0.00856991779529
0.00915805825342
0.00945349489596
0.00947581585655
0.00892653815827
0.00763644111635
0.005969113751
0.00426415910036
0.00369228819272
0.00385708707766
0.00426968918857
0.00494635320901
0.00957353731152
0.00200907702051
0.00147081175558
0.00134195067436
0.00251176640212
0.00452160919143
0.00632518348354
0.00745294211858
0.00791309654501
0.00796575399866
0.00775155438182
0.00736700757242
0.00678495274917
0.00591418008431
0.00500577582035
0.00393255655325
0.00378616687846
0.00402111478463
0.00445634916972
0.00507904477942
0.00900329195089
0.00154460911295
0.00110362305674
0.00137639209921
0.00303146136036
0.00484895433966
0.00622978790486
0.00688032727609
0.00695123921233
0.00664987639869
0.00617345907098
0.00569517182257
0.00525874141688
0.00481749106825
0.0044848422108
0.00391696926441
0.00391999631339
0.00417798276606
0.00463194280309
0.00522675240682
0.00878440596823
0.00116225127404
0.00065605729536
0.00169818361134
0.0033001897145
0.00482010547192
0.00581070685555
0.00614672048322
0.00592171156935
0.00539149409659
0.00483696452685
0.00444300345138
0.00428583549646
0.00429570477263
0.00414690781512
0.00403462513994
0.00407988088473
0.00433097728479
0.0047974191963
0.00538317303832
0.00875904136176
0.000748492072989
0.000629573432584
0.00191251327589
0.00335685055127
0.00458627309206
0.00529821089666
0.00538668935635
0.00495211671967
0.00433179213966
0.00379821815784
0.00353599084057
0.00372312843244
0.0040136547127
0.00413903533991
0.00426544378344
0.00427297846955
0.00447827036694
0.0049421786818
0.00554332803838
0.00917656246143
0.000510458687434
0.000718500853036
0.00193746354249
0.00318391199742
0.00418237609644
0.00471092499047
0.0046490885976
0.00414428526983
0.00349767291097
0.00298616791756
0.00290713790844
0.00346247479571
0.00395634598696
0.00444481143636
0.00457274484618
0.00449475528738
0.00462429531769
0.00506284089358
0.00592764150553
0.0121063507067
0.000443601443432
0.000735940860918
0.00184681718534
0.00288872812886
0.00367951109507
0.00407021440381
0.0039378583898
0.00340194315359
0.00280402156079
0.00247299956376
0.00276502536834
0.00360134445997
0.00427390390002
0.00492131544086
0.00491983263345
0.00471223710721
0.00477657029053
0.00518121182871
0.00798118841437
0.0216109169992
0.000457980954602
0.00071946362209
0.00158887688881
0.00249899032937
0.00313299675454
0.00337371457738
0.00320104486673
0.00270373419691
0.00230989613576
0.00235766617585
0.00310099906938
0.00399634835352
0.00486635804819
0.00554557320454
0.00530915150761
0.0049265364541
0.00493403639844
0.00679573776138
0.00880033963017
0.0327930513968
0.000518607913465
0.000704929939968
0.00130334358427
0.00203291008899
0.00253917089898
0.00269760079119
0.00253535216545
0.00220930798877
0.00209949447405
0.00253265157756
0.00357727486582
0.00445965879856
0.00566884350234
0.0062651443179
0.0056734730565
0.00512760377431
0.00678051396126
0.00770480668554
0.0117321541978
0.03552968754
0.000627928842622
0.000713049927123
0.00110128832433
0.00160183573848
0.00197892932943
0.0021291694829
0.00203980090674
0.00190682630981
0.00207454516719
0.0028270183385
0.00393706250526
0.00484896215395
0.00658023191273
0.00697418662735
0.00599900471218
0.00708256922914
0.00762931146899
0.00884616373647
0.0180503623041
0.0368315697585
0.000809860967165
0.000764859310516
0.000981354584908
0.00130380978718
)
;

boundaryField
{
    emptyPatch
    {
        type            empty;
    }
    minY
    {
        type            fixedValue;
        value           nonuniform List<scalar> 0();
    }
    maxY
    {
        type            inletOutlet;
        inletValue      nonuniform List<scalar> 0();
        value           nonuniform List<scalar> 0();
    }
    maxX
    {
        type            kqRWallFunction;
        value           nonuniform List<scalar> 
37
(
0.0861945404409
0.0818486411785
0.0771937299446
0.0729051901937
0.0691090693168
0.0659995547204
0.0640010996727
0.0632865746437
0.0637206695412
0.0645917474681
0.0653236552359
0.0654211043784
0.0642415681294
0.0590553980011
0.0464608208018
0.0250812735344
0.0147786761078
0.0137380995451
0.0147033074195
0.0134891427747
0.0101159127804
0.0114499341988
0.0134000461865
0.0128994832462
0.0127103225931
0.0124863184158
0.0106743700259
0.00957353731152
0.00900329195089
0.00878440596823
0.00875904136176
0.00917656246143
0.0121063507067
0.0216109169992
0.0327930513968
0.03552968754
0.0368315697585
)
;
    }
    water_to_heater
    {
        type            kqRWallFunction;
        value           nonuniform List<scalar> 
60
(
2.21460810185
2.21460810185
2.07590065896
2.07590065896
2.06594355261
2.06594355261
2.19833822252
2.46841336525
2.94983573692
2.94983573692
3.56222380962
3.56222380962
4.08289718401
4.08289718401
4.1391061317
3.50942930695
2.78777092582
2.78777092582
2.43956268552
2.43956268552
2.45128980123
2.45128980123
2.53443098804
2.38246790194
2.02966678026
2.02966678026
1.79997980933
1.79997980933
1.71897510493
1.71897510493
1.79967380746
2.1314178518
2.61309072046
2.61309072046
2.8426272569
2.8426272569
2.57818796476
2.57818796476
2.13649962339
1.87597167818
1.92494726633
1.92494726633
2.20380788762
2.20380788762
2.51339790467
2.51339790467
2.54665862149
2.35246147175
2.12394887727
2.12394887727
1.8999354858
1.8999354858
1.68945860299
1.68945860299
1.52864421117
1.45169060195
1.55354940737
1.55354940737
1.86205015419
1.86205015419
)
;
    }
    procBoundary1to0
    {
        type            processor;
        value           nonuniform List<scalar> 
41
(
2.15716866937
0.824291221965
0.393549863861
0.215908721714
0.134550967613
0.0940101014477
0.0712246872398
0.0542836576653
0.0394247363121
0.0274638839976
0.0197336088735
0.0156501425053
0.0133525618318
0.0110298669569
0.00809593130223
0.00557453043615
0.00416760351446
0.00308980052504
0.00241851840808
0.00168264640315
0.00157430398502
0.00170893978848
0.00170233500758
0.00173146563074
0.00207435821145
0.00295516193327
0.00397880840667
0.00503349457214
0.00721509623049
0.00750259442605
0.006328800877
0.00805387407135
0.00897759786949
0.0105254656526
0.0246567411224
0.0384163979902
0.00110587105976
0.000877166230387
0.000944969213286
0.00157430398502
0.00113310949281
)
;
    }
    procBoundary1to3
    {
        type            processor;
        value           nonuniform List<scalar> 
41
(
0.0922072255044
0.068576237413
0.0490919325828
0.0338271894604
0.0227574574858
0.0152982218674
0.01035740065
0.00689212075919
0.0043163451738
0.00257109420989
0.0015927490464
0.00114276881541
0.000991033718596
2.44421109906
1.08927989033
0.551954564087
0.313718913231
0.203857775609
0.149330008827
0.116370836022
0.116370836022
0.00101319154982
0.0011880181916
0.00155146448985
0.00209205411384
0.00275999135153
0.00354298047877
0.00439945930222
0.00509989386523
0.00544845120742
0.00565953646834
0.00633450567021
0.0080632025639
0.0102463544817
0.0149558351059
0.0243504075474
0.0020979538373
0.00337471725537
0.036645605917
0.0530045304104
0.0898666239518
)
;
    }
}


// ************************************************************************* //
