/*--------------------------------*- C++ -*----------------------------------*\
| =========                 |                                                 |
| \\      /  F ield         | OpenFOAM: The Open Source CFD Toolbox           |
|  \\    /   O peration     | Version:  2312                                  |
|   \\  /    A nd           | Website:  www.openfoam.com                      |
|    \\/     M anipulation  |                                                 |
\*---------------------------------------------------------------------------*/
FoamFile
{
    version     2.0;
    format      ascii;
    arch        "LSB;label=32;scalar=64";
    class       volScalarField;
    location    "0.505/water";
    object      nut.gas;
}
// * * * * * * * * * * * * * * * * * * * * * * * * * * * * * * * * * * * * * //

dimensions      [0 2 -1 0 0 0 0];

internalField   nonuniform List<scalar> 
1497
(
3.17879603391e-06
2.76555090284e-06
2.31523140458e-06
1.87920078992e-06
1.49894140083e-06
1.18849558611e-06
9.23961915315e-07
6.62731988456e-07
4.01478225489e-07
1.99378656095e-07
9.07872862221e-08
4.69527880776e-08
3.21957144819e-08
5.01020266592e-06
5.32258392306e-06
4.88718491111e-06
4.29021009585e-06
3.89027876628e-06
3.65646894271e-06
3.42492638671e-06
3.1083049257e-06
2.71390573276e-06
2.28542428783e-06
1.86993338736e-06
1.50831412625e-06
1.21381584827e-06
9.61280594196e-07
7.04973834888e-07
4.37712744653e-07
2.21803924172e-07
1.01172369575e-07
5.10550835322e-08
3.37134803232e-08
4.74447504859e-06
5.12980164627e-06
4.77488326935e-06
4.20853510819e-06
3.7944233938e-06
3.52442022659e-06
3.26700002702e-06
2.9477193435e-06
2.57068820085e-06
2.17138970276e-06
1.79133166182e-06
1.46538562903e-06
1.19927819873e-06
9.62316209824e-07
7.08565582937e-07
4.37917503617e-07
2.20716858261e-07
1.0077581697e-07
5.11545492874e-08
3.38987262648e-08
4.5487051584e-06
4.99163279436e-06
4.66793980361e-06
4.11341844095e-06
3.665430019e-06
3.34403154883e-06
3.05144668515e-06
2.72622254017e-06
2.36920769932e-06
2.00731954437e-06
1.67553545329e-06
1.39674816723e-06
1.16385750867e-06
9.38938402722e-07
6.80950077647e-07
4.08592363132e-07
2.0127811388e-07
9.22981274128e-08
4.83176685751e-08
3.31363396237e-08
4.51048770332e-06
4.91608866898e-06
4.56819161311e-06
3.98691016198e-06
3.4935074977e-06
3.12409329472e-06
2.80492847071e-06
2.48173974228e-06
2.15242302285e-06
1.83792448801e-06
1.56213902821e-06
1.33167029022e-06
1.12499358639e-06
8.99152233245e-07
6.28882591286e-07
3.60156784801e-07
1.72773474388e-07
8.06224070226e-08
4.44526782383e-08
3.21060010183e-08
4.63205836796e-06
4.91144211088e-06
4.46355481633e-06
3.81802884916e-06
3.27724779732e-06
2.8754497275e-06
2.55135494962e-06
2.25011822798e-06
1.96323733784e-06
1.70419596815e-06
1.48289130915e-06
1.2888577722e-06
1.08851081388e-06
8.44478551704e-07
5.61102499112e-07
3.06115690612e-07
1.44835719632e-07
7.00492952462e-08
4.1122094072e-08
3.13717294595e-08
4.90048725273e-06
4.97347122446e-06
4.37785981106e-06
3.65190331289e-06
3.05749113225e-06
2.62992847673e-06
2.31997113637e-06
2.063606349e-06
1.83411763907e-06
1.63122060743e-06
1.45008547587e-06
1.2668589709e-06
1.04764077847e-06
7.78069118358e-07
4.9162587612e-07
2.59777432112e-07
1.24127343394e-07
6.29422286744e-08
3.91552649304e-08
3.13199391015e-08
5.20412964924e-06
5.13637229766e-06
4.40032958495e-06
3.55391623612e-06
2.87830786515e-06
2.42110756672e-06
2.13944224537e-06
1.9457205105e-06
1.7797539359e-06
1.61954793181e-06
1.44985666236e-06
1.24837047448e-06
9.99243916489e-07
7.12822981576e-07
4.36253912321e-07
2.30141842036e-07
1.13520912571e-07
6.02650856397e-08
3.91286306458e-08
3.24050480446e-08
5.42918818919e-06
5.32539829502e-06
4.47925191501e-06
3.48153493431e-06
2.72701775408e-06
2.26528814413e-06
2.03164640948e-06
1.90498093208e-06
1.78818813137e-06
1.64107706619e-06
1.45470057051e-06
1.22491187271e-06
9.54368212708e-07
6.65929180157e-07
4.070154276e-07
2.21215958358e-07
1.14274069834e-07
6.28823317333e-08
4.16628804156e-08
3.49657066615e-08
5.41701321116e-06
5.1612366275e-06
4.34190015625e-06
3.31567877587e-06
2.58332622837e-06
2.1780228041e-06
2.00747033437e-06
1.92997134656e-06
1.82947009676e-06
1.67006949658e-06
1.45968685471e-06
1.20936171813e-06
9.31119407047e-07
6.50760121982e-07
4.07785770417e-07
2.32566855427e-07
1.25895314816e-07
7.06827272706e-08
4.67376886711e-08
3.87985469658e-08
5.28619259919e-06
4.77150607848e-06
4.00813147825e-06
3.11931048156e-06
2.49939680662e-06
2.181573343e-06
2.06619126287e-06
2.0058603029e-06
1.89348574331e-06
1.70828920749e-06
1.47486307828e-06
1.21362692022e-06
9.38509861945e-07
6.69433843473e-07
4.38093145162e-07
2.64767183552e-07
1.49719837553e-07
8.48878949462e-08
5.509444773e-08
4.41905591482e-08
5.2119603134e-06
4.55671361459e-06
3.81206557175e-06
3.06090003477e-06
2.54713284175e-06
2.29235115396e-06
2.19652103704e-06
2.12455469491e-06
1.98120962667e-06
1.76286309134e-06
1.5086364225e-06
1.24327518731e-06
9.76378820758e-07
7.22063333657e-07
5.00988453737e-07
3.22090197394e-07
1.90377240308e-07
1.08854264448e-07
6.8620787222e-08
5.21575725535e-08
5.30171356217e-06
4.64182158462e-06
3.88926923749e-06
3.19401514464e-06
2.72237371231e-06
2.47860106878e-06
2.37527520313e-06
2.2804818816e-06
2.10200794807e-06
1.84686161554e-06
1.5679995665e-06
1.29680900118e-06
1.04312336114e-06
8.10767232192e-07
5.99710774456e-07
4.10830736828e-07
2.5546518274e-07
1.48454926198e-07
9.07737079597e-08
6.4746516499e-08
5.58711710371e-06
4.894874884e-06
4.11396726275e-06
3.4214465399e-06
2.93099807116e-06
2.66986665199e-06
2.56012851872e-06
2.45798464332e-06
2.2543357606e-06
1.95906308082e-06
1.65042611412e-06
1.37536662482e-06
1.14055103308e-06
9.32054108704e-07
7.31827555014e-07
5.34442933732e-07
3.52634719799e-07
2.11507733714e-07
1.26872469765e-07
8.52548621201e-08
5.82198776073e-06
5.07392255087e-06
4.22710293561e-06
3.50055860537e-06
3.00786653713e-06
2.75818035708e-06
2.67080680735e-06
2.59152885388e-06
2.38623230837e-06
2.0684687277e-06
1.74616847027e-06
1.47509109933e-06
1.25594554369e-06
1.06723064755e-06
8.81790978631e-07
6.84301441567e-07
4.81501660555e-07
3.03219464308e-07
1.82682132664e-07
1.17679306066e-07
5.34234032185e-06
4.80574628949e-06
4.11030118954e-06
3.48560260617e-06
3.0391462799e-06
2.79432265955e-06
2.69806775083e-06
2.62403351979e-06
2.44145377838e-06
2.14063095769e-06
1.82963412126e-06
1.56791061409e-06
1.35945128158e-06
1.18839507395e-06
1.023570791e-06
8.38014552151e-07
6.27530444856e-07
4.19184958532e-07
2.60103117259e-07
1.64912650715e-07
4.73713227777e-06
4.58525041969e-06
4.04245818749e-06
3.48297588633e-06
3.06675818919e-06
2.8219790341e-06
2.69923568282e-06
2.59807113127e-06
2.41943034985e-06
2.15269921931e-06
1.87194850035e-06
1.626814002e-06
1.43215324133e-06
1.28039927752e-06
1.13986645567e-06
9.74644648863e-07
7.70441373688e-07
5.46219165038e-07
3.54662155016e-07
2.26930247736e-07
4.39351244636e-06
4.42278387579e-06
4.01022187606e-06
3.50841855265e-06
3.10668233503e-06
2.84593629534e-06
2.6828456866e-06
2.53935226758e-06
2.34920657588e-06
2.1069120148e-06
1.86014842681e-06
1.64459001953e-06
1.4747776922e-06
1.34767080555e-06
1.23167270188e-06
1.0878933691e-06
8.97127672307e-07
6.70594269537e-07
4.58154456242e-07
3.01025343957e-07
4.22701787389e-06
4.35599572997e-06
4.02020515975e-06
3.52384734093e-06
3.11480191799e-06
2.83592797896e-06
2.63235268097e-06
2.44589230507e-06
2.24247874434e-06
2.0228217455e-06
1.81415430484e-06
1.63725830338e-06
1.50376426834e-06
1.40677891979e-06
1.31329185971e-06
1.18651927065e-06
1.00747689434e-06
7.83692719171e-07
5.60726985758e-07
3.8138926052e-07
4.30684295139e-06
4.47957323609e-06
4.04864915876e-06
3.46985703901e-06
3.04569995076e-06
2.76635087649e-06
2.54021182604e-06
2.32874904166e-06
2.12460170461e-06
1.93085800166e-06
1.76179929437e-06
1.62987549048e-06
1.53872682935e-06
1.4729962524e-06
1.3980799507e-06
1.28231731005e-06
1.10842113129e-06
8.86012255072e-07
6.57726619625e-07
4.61415483798e-07
4.51413479351e-06
4.57371870203e-06
3.95617109158e-06
3.30120480734e-06
2.89207637904e-06
2.63697914626e-06
2.41541536706e-06
2.20605204925e-06
2.01896400162e-06
1.85851606795e-06
1.73293392256e-06
1.64816665065e-06
1.5980873367e-06
1.55848156171e-06
1.49524321209e-06
1.38054478917e-06
1.20212996771e-06
9.78702635565e-07
7.45869097421e-07
5.3402571119e-07
4.68863834573e-06
4.54399986943e-06
3.76895254421e-06
3.05640889393e-06
2.67704839976e-06
2.46423770612e-06
2.27498382408e-06
2.09531437794e-06
1.94172966694e-06
1.82298109049e-06
1.7449189391e-06
1.70615629773e-06
1.6903523003e-06
1.66670348497e-06
1.60178598548e-06
1.47434529969e-06
1.2858923131e-06
1.06024764033e-06
8.1636448361e-07
5.88511959461e-07
4.75375180533e-06
4.34871250221e-06
3.5640418494e-06
2.84678345423e-06
2.47783094845e-06
2.30394776863e-06
2.15895159696e-06
2.01943704528e-06
1.90613319473e-06
1.83305345824e-06
1.80276268684e-06
1.80367895936e-06
1.80812141271e-06
1.7815508031e-06
1.69823471334e-06
1.55199793274e-06
1.3542690038e-06
1.11507009546e-06
8.47556129788e-07
6.12768958583e-07
4.80373881513e-06
4.14451325488e-06
3.40268502175e-06
2.75746851992e-06
2.40098496005e-06
2.2338089504e-06
2.10973186946e-06
1.99902983712e-06
1.92160389157e-06
1.89046209699e-06
1.89889353374e-06
1.92087159636e-06
1.92120283367e-06
1.87320814691e-06
1.76548192831e-06
1.6005556115e-06
1.37899714901e-06
1.10122212667e-06
8.24938233218e-07
6.00193383861e-07
4.7651640621e-06
4.11626386062e-06
3.42537267981e-06
2.84897091255e-06
2.48631891784e-06
2.28217772203e-06
2.13887568457e-06
2.03430935506e-06
1.98060426436e-06
1.97735025126e-06
2.00153477935e-06
2.01705350831e-06
1.99394221515e-06
1.91700896314e-06
1.77963925014e-06
1.57408905185e-06
1.30074790228e-06
1.01254660625e-06
7.62380471808e-07
5.47046626077e-07
4.86371374046e-06
4.33246539031e-06
3.68173304299e-06
3.10035965095e-06
2.67992520653e-06
2.40387450209e-06
2.21268284215e-06
2.09468663294e-06
2.04758534805e-06
2.04908653898e-06
2.06153391105e-06
2.0496745877e-06
1.99153785462e-06
1.87288101838e-06
1.6803666002e-06
1.4238265953e-06
1.14994614626e-06
8.99193478705e-07
6.71371507863e-07
4.56281610374e-07
5.20233739849e-06
4.75775875729e-06
4.08799348281e-06
3.40849251561e-06
2.89018878114e-06
2.52988910622e-06
2.28140968875e-06
2.13344836911e-06
2.06938914627e-06
2.04823635658e-06
2.02513533885e-06
1.97127858884e-06
1.86779633293e-06
1.70190833399e-06
1.47762344905e-06
1.23704784644e-06
1.00687300646e-06
7.85621662957e-07
5.59933330461e-07
3.41459669336e-07
5.76434431146e-06
5.25122213015e-06
4.47915468322e-06
3.72451887359e-06
3.13373265399e-06
2.68718550659e-06
2.35162398942e-06
2.13154649522e-06
2.01034944793e-06
1.93853529508e-06
1.87015239394e-06
1.78037839459e-06
1.6539226358e-06
1.48764125664e-06
1.2892494345e-06
1.09326765298e-06
8.95283434937e-07
6.75030881895e-07
4.33288413828e-07
2.23812681146e-07
5.91047412895e-06
5.45036761015e-06
4.73656520994e-06
4.03391615561e-06
3.44810253193e-06
2.93231818578e-06
2.4797210642e-06
2.13489597317e-06
1.91184031355e-06
1.77244433011e-06
1.66742041128e-06
1.56605077169e-06
1.45114233328e-06
1.31761838623e-06
1.16599082852e-06
1.00430032652e-06
8.05896001166e-07
5.54848981844e-07
3.00730277459e-07
1.29291225841e-07
5.63524998673e-06
5.47550326436e-06
4.89615240836e-06
4.28393552718e-06
3.7435955283e-06
3.2413097099e-06
2.72627724668e-06
2.23346190718e-06
1.87599243639e-06
1.63961325301e-06
1.49081300482e-06
1.38930974041e-06
1.30441673867e-06
1.21546733481e-06
1.10433845215e-06
9.45817995239e-07
7.08974062919e-07
4.18967370959e-07
1.8738116995e-07
7.02720936789e-08
5.36321671466e-06
5.37122463082e-06
4.92439110401e-06
4.41789936248e-06
3.95098979162e-06
3.49271044617e-06
2.99360988411e-06
2.46311243863e-06
1.9713041157e-06
1.60033718556e-06
1.37115670904e-06
1.25749100711e-06
1.20769250449e-06
1.16265472527e-06
1.06795474364e-06
8.78837835697e-07
5.87134010593e-07
2.89022607751e-07
1.11340173422e-07
3.94893020966e-08
5.02195161411e-06
5.08175691701e-06
4.75934132092e-06
4.39214526058e-06
4.03643384663e-06
3.64985101984e-06
3.19306633034e-06
2.6705606945e-06
2.13243458719e-06
1.64620728572e-06
1.31603633027e-06
1.16515264185e-06
1.1388503091e-06
1.12407369305e-06
1.02184043266e-06
7.86238042082e-07
4.55410827483e-07
1.89343123375e-07
6.84731943342e-08
2.42144867055e-08
4.59955901497e-06
4.64563149269e-06
4.43952157424e-06
4.23064199103e-06
4.00613592444e-06
3.70790973932e-06
3.30361515633e-06
2.79561007397e-06
2.23309662226e-06
1.69573642e-06
1.2961745161e-06
1.10887291637e-06
1.09039566595e-06
1.08502051866e-06
9.59046285695e-07
6.77245482264e-07
3.34519372368e-07
1.24504729639e-07
4.80696174486e-08
1.73537998642e-08
4.15761633406e-06
4.18622066349e-06
4.105868005e-06
4.03190740785e-06
3.90797980939e-06
3.67932457095e-06
3.32035214368e-06
2.82854347833e-06
2.25738666458e-06
1.69917247074e-06
1.2743522413e-06
1.07626144238e-06
1.06136128364e-06
1.046498494e-06
8.85299909909e-07
5.62616079289e-07
2.37742985544e-07
9.29207135012e-08
3.89499520051e-08
1.39798529563e-08
3.80101921244e-06
3.88563019742e-06
3.92104775526e-06
3.90067715838e-06
3.7928537023e-06
3.58059247305e-06
3.24373620751e-06
2.76708288475e-06
2.20369720953e-06
1.65375271857e-06
1.24152696499e-06
1.0596561744e-06
1.0470800649e-06
1.00766833199e-06
8.05428252142e-07
4.51535165183e-07
1.81429058057e-07
7.89480220563e-08
3.50003848759e-08
1.32841844396e-08
3.67244882847e-06
3.87693843638e-06
3.97093385892e-06
3.86228457431e-06
3.66320868981e-06
3.41304638151e-06
3.07619090832e-06
2.61850603243e-06
2.08527680554e-06
1.57564419225e-06
1.20727042713e-06
1.05789519568e-06
1.04088575996e-06
9.66451500095e-07
7.25956339965e-07
3.66466171491e-07
1.53923624117e-07
7.37917309861e-08
3.51510788059e-08
1.51072361074e-08
3.74212942767e-06
4.04057560794e-06
3.99608500237e-06
3.7346829084e-06
3.45620982176e-06
3.17828750386e-06
2.84549147553e-06
2.41915640973e-06
1.93777859024e-06
1.48992549117e-06
1.18549960691e-06
1.07171164317e-06
1.03807093148e-06
9.23089455068e-07
6.53313070733e-07
3.14496628095e-07
1.43675297465e-07
7.43236875175e-08
3.94792950803e-08
1.97310503877e-08
3.88210799404e-06
4.02652344042e-06
3.78218261773e-06
3.46313999383e-06
3.18559668033e-06
2.91777476054e-06
2.60214864644e-06
2.21679707345e-06
1.7969636363e-06
1.42321684524e-06
1.19012721449e-06
1.10206768534e-06
1.03772878649e-06
8.79970438369e-07
5.94017260223e-07
2.89785631619e-07
1.4356568299e-07
7.98031228799e-08
4.8055165422e-08
2.78223813667e-08
2.93288506268e-08
3.30174790631e-08
4.34473744838e-08
6.18319173932e-08
8.7485787069e-08
1.17058741825e-07
1.45446021591e-07
1.66999109642e-07
1.80464107427e-07
1.97830288519e-07
2.28790498963e-07
2.33017685044e-07
1.78589502214e-07
1.2748903973e-07
1.06223543546e-07
2.76598488062e-08
1.56400401139e-07
3.10870258593e-06
3.89498688362e-06
4.0011001946e-06
2.97496512493e-08
3.26438222089e-08
4.18979393853e-08
5.85384861057e-08
8.20755418139e-08
1.09355479435e-07
1.35655079396e-07
1.58211958656e-07
1.83967564633e-07
2.21388381732e-07
2.24566617235e-07
1.68504168051e-07
1.41277240027e-07
1.27150560533e-07
1.04710600568e-07
3.293023508e-08
2.09655314029e-07
3.18218870242e-06
3.98977866034e-06
3.98684042312e-06
2.98874015793e-08
3.26827236868e-08
4.1674763746e-08
5.77106698768e-08
8.00793743706e-08
1.05651560155e-07
1.31482321535e-07
1.60715616075e-07
1.99030191494e-07
1.91014271372e-07
1.36885034457e-07
1.28688424855e-07
1.18946618282e-07
9.62302515954e-08
7.07409880171e-08
3.66477964326e-08
4.51637725329e-07
3.62165934614e-06
4.2196504433e-06
4.04623133541e-06
2.98803332216e-08
3.31356448099e-08
4.25968181836e-08
5.89699055151e-08
8.11601118617e-08
1.06588802598e-07
1.35370427325e-07
1.69949758608e-07
1.65154787345e-07
1.27669115077e-07
1.30015535669e-07
1.28436274274e-07
1.15233635794e-07
9.30841019117e-08
2.70258626533e-08
5.89923682869e-08
1.91672720432e-06
4.14176825756e-06
4.5883793014e-06
4.21693252262e-06
2.99764885968e-08
3.40821592592e-08
4.46357199842e-08
6.21707919395e-08
8.50592180252e-08
1.11685129305e-07
1.43435690521e-07
1.57485835425e-07
1.10089387643e-07
1.24100460356e-07
1.29294890261e-07
1.20941533655e-07
1.03306776304e-07
7.92321486037e-08
2.59702909571e-08
7.6110022204e-08
2.49895338802e-06
4.80207893827e-06
5.21331955441e-06
4.56008244544e-06
3.04247441957e-08
3.56829834662e-08
4.78523201657e-08
6.69764302866e-08
9.05432873116e-08
1.17495187225e-07
1.33110298729e-07
8.13068839267e-08
1.05166974568e-07
1.22839972794e-07
1.21330065926e-07
1.06476510972e-07
7.99169519485e-08
4.63626402357e-08
2.11347070759e-08
2.25799272776e-07
3.51203153146e-06
5.82373543032e-06
6.23471981101e-06
5.22831762201e-06
3.15016877515e-08
3.81302485101e-08
5.19989033389e-08
7.19807993707e-08
9.41560792201e-08
1.08582660521e-07
7.82906943475e-08
6.94516009948e-08
1.01116506463e-07
1.16998168806e-07
1.13833736508e-07
1.00443019693e-07
7.51313736036e-08
2.58758730267e-08
2.32445537675e-08
9.98299800653e-07
4.93743007941e-06
7.47776895812e-06
7.97057456921e-06
6.50213411283e-06
3.35287662088e-08
4.13698940672e-08
5.59284065436e-08
7.40205924135e-08
8.64365617774e-08
7.57722713898e-08
4.75240790556e-08
5.99065314419e-08
8.88394978303e-08
1.04695141533e-07
1.0187945926e-07
8.57034845712e-08
5.45586504141e-08
2.03504710931e-08
4.27444764392e-08
2.53402694538e-06
7.14209180957e-06
1.00922966167e-05
1.08505640774e-05
8.87214799385e-06
3.64227780911e-08
4.44170250903e-08
5.72398598219e-08
6.89901004802e-08
6.96429679971e-08
5.45561195986e-08
3.97796118181e-08
4.80775330166e-08
7.17233485343e-08
8.84794126987e-08
8.89834389201e-08
7.55454142211e-08
3.00558825199e-08
1.79805618724e-08
1.65233511487e-07
4.57397897675e-06
9.71398887629e-06
1.33958785633e-05
1.50087456877e-05
1.29972571945e-05
3.94787352883e-08
4.59514447755e-08
5.49623639229e-08
6.05495261964e-08
5.73663529467e-08
4.615573121e-08
3.64818123201e-08
3.88772861805e-08
5.49673032342e-08
7.03938101319e-08
7.24419834248e-08
5.64599911283e-08
2.24379223826e-08
2.03936744838e-08
5.77122324899e-07
4.59048239857e-06
9.86509007668e-06
1.46993141752e-05
1.86782069281e-05
1.90221021751e-05
4.2637644523e-08
4.62279423041e-08
5.12516962581e-08
5.36130446356e-08
5.09229412771e-08
4.33723178448e-08
3.55330521922e-08
3.40908974406e-08
4.18416435173e-08
5.35852147208e-08
5.76719921858e-08
3.7468666236e-08
2.05518802119e-08
4.69798391837e-08
6.7186964329e-07
3.73259281251e-06
8.39468316951e-06
1.35069301703e-05
2.01659956551e-05
2.63020141179e-05
4.67720199434e-08
4.68286484491e-08
4.85717913402e-08
4.92930749138e-08
4.7619708642e-08
4.27794835725e-08
3.62003706301e-08
3.25471130012e-08
3.45547888172e-08
4.066889022e-08
4.26957304246e-08
2.88931401231e-08
2.77737886272e-08
2.2418271358e-07
5.8193078459e-07
2.79167572728e-06
6.64449211724e-06
1.06850121166e-05
1.7620519873e-05
2.98655489797e-05
5.36001357827e-08
4.96081566867e-08
4.82687572917e-08
4.73422427099e-08
4.57709897757e-08
4.26255764849e-08
3.75233720415e-08
3.28955859705e-08
3.16976283214e-08
3.31847800646e-08
3.32554712175e-08
2.63266149697e-08
8.95232005858e-08
2.87963847295e-07
5.06553039961e-07
2.01174473983e-06
5.07666627572e-06
8.09151345979e-06
1.31999697168e-05
2.39606455771e-05
6.55633895563e-08
5.63196555141e-08
5.12947476663e-08
4.80270988473e-08
4.5403091997e-08
4.26202104427e-08
3.8767053902e-08
3.41148469444e-08
3.0892511122e-08
2.9571395308e-08
3.00869545384e-08
3.84534537455e-08
2.24390159023e-07
2.95326638379e-07
4.77573127784e-07
1.50225393319e-06
3.80309834738e-06
6.12403888963e-06
8.91271570942e-06
1.91007353914e-05
8.53459997626e-08
6.86553080605e-08
5.86376216292e-08
5.20260677716e-08
4.73150295491e-08
4.35754141925e-08
3.99433131644e-08
3.56055317489e-08
3.11364836927e-08
2.79040712694e-08
3.03248946659e-08
4.56534145165e-08
2.49103710043e-07
3.04618035766e-07
4.84916327355e-07
1.22291861768e-06
2.89596769698e-06
4.73949181945e-06
4.48757453623e-06
1.29542311359e-05
1.15092229244e-07
8.80450677002e-08
7.11992749886e-08
5.99742339987e-08
5.21535185311e-08
4.63866477993e-08
4.16982033785e-08
3.70375773246e-08
3.17785229643e-08
2.78639156993e-08
3.0428651192e-08
5.15485287248e-08
2.594805129e-07
3.27998086376e-07
5.16703633751e-07
1.08629026471e-06
2.3045020903e-06
3.54663541585e-06
1.37388153855e-06
3.60358622847e-06
1.55531220313e-07
1.15151522251e-07
8.94387546224e-08
7.21442893852e-08
6.00777117809e-08
5.12748002719e-08
4.44221853567e-08
3.839987462e-08
3.25175901998e-08
2.85555943351e-08
2.98116661923e-08
6.0310153162e-08
2.8120067656e-07
3.71112615667e-07
5.68987629241e-07
1.03051865133e-06
1.94926376517e-06
2.89579846186e-06
6.33771173847e-07
9.50429583769e-07
2.05852940726e-07
1.49654220935e-07
1.13167629748e-07
8.82738744888e-08
7.06865752212e-08
5.77909881307e-08
4.79030479492e-08
3.98325653886e-08
3.29963704098e-08
2.90273085032e-08
2.98272721149e-08
7.71935398784e-08
3.22809917152e-07
4.38297973443e-07
6.38934224105e-07
1.0129286076e-06
1.70071934735e-06
2.45792909928e-06
5.03328122908e-07
4.91337486656e-07
2.63280169652e-07
1.89943585293e-07
1.4108066881e-07
1.07009602822e-07
8.25623232104e-08
6.4619502434e-08
5.11696028774e-08
4.08951000989e-08
3.32316980635e-08
2.95799067393e-08
3.13815366034e-08
1.08341918689e-07
3.89839982974e-07
5.28329287373e-07
7.17662740886e-07
1.00074754266e-06
1.49108294556e-06
2.15994591642e-06
4.3878058196e-07
4.18839996735e-07
3.22774816975e-07
2.32479752687e-07
1.70181880854e-07
1.25615261608e-07
9.33596244142e-08
6.99597974778e-08
5.30331628513e-08
4.10672954249e-08
3.33548234726e-08
3.0842172064e-08
3.47919030339e-08
1.56008528228e-07
4.8318382907e-07
6.31182564872e-07
7.85762883281e-07
9.72455260671e-07
1.3374970457e-06
1.94035766767e-06
3.01683861134e-07
3.58778105178e-07
3.77943856903e-07
2.71916428514e-07
1.95768633538e-07
1.40139463806e-07
1.00105959637e-07
7.1863570891e-08
5.25031999272e-08
4.01686475879e-08
3.37570020266e-08
3.34423342925e-08
4.03183669287e-08
1.89915056777e-07
5.94683564262e-07
7.27855779584e-07
8.21672881799e-07
9.51141370451e-07
1.32378011293e-06
4.89375640895e-07
3.03130801823e-07
3.60741737159e-07
4.19940448445e-07
3.00295417193e-07
2.11116219263e-07
1.45627780903e-07
9.95734792531e-08
6.85189206734e-08
4.89175509807e-08
3.83637699142e-08
3.51191580395e-08
3.82323658565e-08
4.85332623796e-08
1.89908844578e-07
6.98906667774e-07
7.93788342629e-07
8.30515276936e-07
9.93166024719e-07
3.93177709961e-07
2.17482452707e-07
3.07384897222e-07
7.42762421958e-07
4.38171418462e-07
3.07364769243e-07
2.081710081e-07
1.36862005919e-07
8.88586326453e-08
5.88336671238e-08
4.2552288045e-08
3.69016051915e-08
3.92236423532e-08
4.68862338637e-08
6.02388202943e-08
1.28532652209e-07
6.22791982028e-07
6.87988804939e-07
5.10518474439e-07
1.99258754346e-07
1.92844026234e-07
2.29374019848e-07
3.51843681462e-07
8.31702397859e-07
4.21753925968e-07
2.83174733551e-07
1.80526505218e-07
1.10547852793e-07
6.70929067207e-08
4.4042169417e-08
3.64585853022e-08
4.01525377853e-08
5.05725429898e-08
6.27147168657e-08
7.54078573597e-08
9.3465692081e-08
1.3629078749e-07
1.16792778932e-07
1.03912402236e-07
1.53217766615e-07
2.07424454472e-07
2.92473806611e-07
4.18248128824e-07
7.62512292178e-07
3.64708123078e-07
2.25956767903e-07
1.30666687485e-07
7.12992579544e-08
4.07367693215e-08
3.24199544323e-08
3.96323028212e-08
5.48599919226e-08
6.96897587616e-08
7.96021530274e-08
8.59477559699e-08
9.55836618181e-08
9.13608198505e-08
7.86123422265e-08
8.30686002889e-08
1.39902198949e-07
2.59093299344e-07
4.35035780306e-07
4.47746417642e-07
7.16223096346e-07
2.75410912921e-07
1.50501996962e-07
7.50952896013e-08
3.62519498797e-08
2.62921140309e-08
3.57649514439e-08
5.41562568381e-08
6.99956431885e-08
7.8231733128e-08
8.09201923991e-08
8.18380882538e-08
8.28087766024e-08
7.61129859899e-08
6.38562004501e-08
6.45267479986e-08
1.3139795906e-07
3.27286764072e-07
5.02547871936e-07
4.81358916534e-07
7.01021004117e-07
1.77402992896e-07
8.23161755784e-08
3.43842743379e-08
1.99959765242e-08
2.76597747102e-08
4.67825248274e-08
6.39746690828e-08
7.19667212731e-08
7.45094116449e-08
7.36364076845e-08
7.11742960546e-08
6.82511719922e-08
6.19818252189e-08
5.24983925789e-08
6.24649402063e-08
1.37037178374e-07
3.39367394463e-07
5.41741815074e-07
5.42220579975e-07
6.67347470913e-07
9.77886913887e-08
3.82719863697e-08
1.5486996238e-08
1.769922974e-08
3.52595711872e-08
5.29466591445e-08
6.3957950904e-08
6.85116853144e-08
6.82203866174e-08
6.50502621314e-08
6.05733734211e-08
5.58864489886e-08
5.07506019583e-08
4.79995996656e-08
7.18982152677e-08
1.69558130749e-07
3.83915197125e-07
5.93913413958e-07
6.21067630287e-07
7.21369062875e-07
4.86462742272e-08
1.74904231738e-08
1.04077113311e-08
2.17713517267e-08
3.84075906527e-08
5.25925555944e-08
6.0863936097e-08
6.30015707154e-08
6.083063124e-08
5.63336454125e-08
5.1138308529e-08
4.64207371396e-08
4.32697188426e-08
5.1898990253e-08
9.25570287532e-08
2.16793754841e-07
4.31723243075e-07
6.41709700835e-07
6.99286595836e-07
8.33271305922e-07
2.44474449808e-08
8.79405943059e-09
1.08817020439e-08
2.28665228198e-08
3.75524525604e-08
4.94020439346e-08
5.54340988868e-08
5.58635459222e-08
5.25770675481e-08
4.77290109895e-08
4.3116040496e-08
4.01977326036e-08
4.14695584239e-08
6.47809208566e-08
1.29358094688e-07
2.7026674089e-07
4.68649488219e-07
6.78175726212e-07
7.73786203985e-07
9.25406150554e-07
1.28111007808e-08
5.62716208574e-09
1.06135375621e-08
2.17631316432e-08
3.43874107767e-08
4.40624934976e-08
4.83149226277e-08
4.75489499658e-08
4.38403257026e-08
3.96018534305e-08
3.69426121479e-08
3.81044272851e-08
4.80961833267e-08
9.0862060523e-08
1.82258647489e-07
3.18841323385e-07
4.87390564174e-07
6.94940077539e-07
8.58267807212e-07
1.10189138695e-06
7.8666909998e-09
4.84050557768e-09
1.03732908608e-08
1.96805106819e-08
2.99050267961e-08
3.74399478212e-08
4.01900369209e-08
3.87151445795e-08
3.53374865687e-08
3.27733068809e-08
3.38264255628e-08
4.28827424305e-08
6.8094988216e-08
1.35992248268e-07
2.39940893928e-07
3.53576071352e-07
4.90305331227e-07
6.81457510181e-07
9.24460173127e-07
1.51008514116e-06
5.59981948922e-09
4.58783190903e-09
9.450539632e-09
1.67995820372e-08
2.46682610422e-08
3.0248853091e-08
3.1875461809e-08
3.02697673853e-08
2.79509925114e-08
2.80644629055e-08
3.58066438161e-08
6.20152204325e-08
1.10662039301e-07
1.9567466268e-07
2.86469460366e-07
3.74165176416e-07
4.86688686682e-07
6.46237773255e-07
9.36968054678e-07
2.53463071738e-06
4.86236985295e-09
4.49018022529e-09
8.21114236672e-09
1.36466980957e-08
1.93351820393e-08
2.3241490421e-08
2.41858833377e-08
2.30126601805e-08
2.21955438383e-08
2.64739800044e-08
4.75790964721e-08
1.02387168992e-07
1.68892100121e-07
2.46734587758e-07
3.15633021846e-07
3.85474614933e-07
4.83492404485e-07
6.16452046795e-07
1.10105875976e-06
4.03541086802e-06
5.10494949275e-09
4.51097007399e-09
7.01734812978e-09
1.07476487942e-08
1.45655821389e-08
1.71273049684e-08
1.77029431345e-08
1.72417123737e-08
1.8824829384e-08
3.00296852802e-08
7.33087041607e-08
1.49710204522e-07
2.19265804322e-07
2.79178610284e-07
3.32491252784e-07
3.93091946158e-07
4.83535111585e-07
7.70322888376e-07
1.09458542693e-06
4.87091759363e-06
6.18888480005e-09
4.74282771379e-09
6.11363462088e-09
8.45455914156e-09
1.08269826159e-08
1.23837942759e-08
1.28433061402e-08
1.34069437186e-08
1.82394688497e-08
3.98216296081e-08
1.07725756555e-07
1.9246030153e-07
2.49578990778e-07
2.97262356534e-07
3.44140632162e-07
4.0097371173e-07
6.49271641814e-07
8.47526101194e-07
1.37556953846e-06
4.52087939713e-06
8.48578465321e-09
5.39789456733e-09
5.64804641243e-09
6.89704449492e-09
8.2628927821e-09
9.19419307439e-09
9.71686617595e-09
1.1328506303e-08
1.9938330424e-08
5.49111306824e-08
1.42269189838e-07
2.18058823583e-07
2.60659318339e-07
3.07043144306e-07
3.53555554917e-07
5.43594279252e-07
7.14643664218e-07
9.52963204733e-07
2.06936882745e-06
4.39194495015e-06
1.29738130455e-08
6.9240709031e-09
5.81260778462e-09
6.15409607079e-09
)
;

boundaryField
{
    emptyPatch
    {
        type            empty;
    }
    minY
    {
        type            calculated;
        value           nonuniform List<scalar> 0();
    }
    maxY
    {
        type            calculated;
        value           nonuniform List<scalar> 0();
    }
    maxX
    {
        type            nutkWallFunction;
        blending        stepwise;
        value           uniform 0;
    }
    water_to_heater
    {
        type            nutkWallFunction;
        blending        stepwise;
        value           uniform 0;
    }
    procBoundary1to0
    {
        type            processor;
        value           nonuniform List<scalar> 
41
(
4.06049534883e-06
3.87493519264e-06
3.51521002834e-06
3.1847197833e-06
2.9279740203e-06
2.68817176297e-06
2.40029128657e-06
2.05550578871e-06
1.69761304185e-06
1.4019200261e-06
1.23212542175e-06
1.15029072027e-06
1.04244409663e-06
8.4129947894e-07
5.5172858864e-07
2.8487933825e-07
1.50832438864e-07
9.02602002531e-08
6.07498506372e-08
3.9937053423e-08
6.82777520021e-09
7.39971656287e-09
8.01217749458e-09
1.02683366718e-08
2.17641838779e-08
6.81488806276e-08
1.65160446069e-07
2.21997018864e-07
2.5893970435e-07
3.09576526904e-07
3.59073325414e-07
5.96623433923e-07
8.11522636887e-07
1.1065380115e-06
2.8293234248e-06
4.62307954369e-06
2.12610263346e-08
1.01780248778e-08
6.9007921601e-09
6.82777520021e-09
6.30128875173e-09
)
;
    }
    procBoundary1to3
    {
        type            processor;
        value           nonuniform List<scalar> 
41
(
3.14620400235e-06
2.70783085576e-06
2.24080981058e-06
1.79964715665e-06
1.42035321934e-06
1.10979651958e-06
8.40340811754e-07
5.76075136679e-07
3.28523362696e-07
1.5580377859e-07
7.16573215889e-08
3.97672349401e-08
2.96636579874e-08
5.31211446177e-06
5.49022501886e-06
4.93338690249e-06
4.29923658068e-06
3.91834815825e-06
3.71761674914e-06
3.50198881054e-06
3.50198881054e-06
2.87012422143e-08
3.38556667021e-08
4.66198946054e-08
6.82741636412e-08
9.72729177464e-08
1.29357323345e-07
1.58637874995e-07
1.78981749047e-07
1.88199170872e-07
1.93148428294e-07
2.05524572904e-07
2.31452399459e-07
2.35748100932e-07
1.64920957196e-07
1.08264157878e-07
2.98527057881e-08
1.71337647001e-07
3.31877969807e-06
3.90559186653e-06
4.09342680297e-06
)
;
    }
}

