/*--------------------------------*- C++ -*----------------------------------*\
| =========                 |                                                 |
| \\      /  F ield         | OpenFOAM: The Open Source CFD Toolbox           |
|  \\    /   O peration     | Version:  2312                                  |
|   \\  /    A nd           | Website:  www.openfoam.com                      |
|    \\/     M anipulation  |                                                 |
\*---------------------------------------------------------------------------*/
FoamFile
{
    version     2.0;
    format      ascii;
    arch        "LSB;label=32;scalar=64";
    class       volScalarField;
    location    "0.34/water";
    object      alpha.gas_0;
}
// * * * * * * * * * * * * * * * * * * * * * * * * * * * * * * * * * * * * * //

dimensions      [0 0 0 0 0 0 0];

internalField   nonuniform List<scalar> 
6000
(
0.171928484982
0.102788071468
0.0289401229104
0.0072891711577
0.00139187180006
0.000220484714661
2.84700227001e-05
2.11271396874e-06
4.25495890782e-08
3.50540907251e-10
1.65550727634e-12
6.52274391409e-15
1e-15
1e-15
1e-15
1e-15
1e-15
1e-15
1e-15
1e-15
0.612792667536
0.260849642153
0.10800303956
0.0367871508744
0.0117001275988
0.00316216094484
0.000720558985392
0.000126497040971
1.23309937703e-05
2.58038427102e-07
8.1705913169e-10
1.34267468501e-12
2.53711526866e-15
1e-15
1e-15
1e-15
1e-15
1e-15
1e-15
1e-15
0.613304089033
0.346723585148
0.171209153908
0.0729990089095
0.0281644818359
0.00946929949227
0.00266595804489
0.000595726298399
8.73364223335e-05
4.58867127044e-06
2.06250256167e-08
2.44328770332e-11
2.45439851735e-14
1e-15
1e-15
1e-15
1e-15
1e-15
1e-15
1e-15
0.613303650933
0.424158815751
0.248763562223
0.127045144698
0.0571594213703
0.0221000693211
0.00709830776486
0.00182214229322
0.000335291395789
3.11912813957e-05
4.59080196009e-07
4.76959018202e-10
3.15135168042e-13
1.13485404633e-15
1e-15
1e-15
1e-15
1e-15
1e-15
1e-15
0.598861479398
0.469009491728
0.326521439836
0.199874500359
0.106459553292
0.0477579079184
0.0173902867438
0.00493984840411
0.00102901832628
0.000127859978063
4.79798907183e-06
6.90937516887e-09
3.77015783829e-12
2.72400798925e-15
1.0000084604e-15
1e-15
1e-15
1e-15
1e-15
1e-15
0.569178761386
0.48298781637
0.384009786362
0.275654236047
0.173799500248
0.0927131172071
0.0399013063466
0.0130446597535
0.0030305198113
0.000440255721008
2.70589003324e-05
1.59895955053e-07
7.32665703962e-11
2.67576823669e-14
1.00340120842e-15
1e-15
1e-15
1e-15
1e-15
1e-15
0.544276659916
0.485266081939
0.418926381709
0.336649870076
0.243462226347
0.152801454789
0.0793183571461
0.0315944852405
0.00874502213297
0.00148340316255
0.000120143925523
2.14830267631e-06
1.02328175238e-09
2.87241394951e-13
1.07522893515e-15
1e-15
1e-15
1e-15
1e-15
1e-15
0.542728739247
0.491396481515
0.438146964156
0.376094146556
0.299228292295
0.214183429753
0.131900835601
0.0649699022316
0.0227750402636
0.00485825591279
0.000508574170721
1.71685289768e-05
1.87422936768e-08
4.79055227638e-12
2.1336902717e-15
1e-15
1e-15
1e-15
1e-15
1e-15
0.548999717928
0.501330279542
0.455954255771
0.405346317457
0.342395836908
0.268101858599
0.18823557777
0.111676803544
0.050049890383
0.0142552269529
0.00206400835468
0.000111951613561
1.08057567501e-06
1.67942251053e-10
2.68879252777e-14
1.00288421018e-15
1e-15
1e-15
1e-15
1e-15
0.575528116691
0.513393821224
0.473012309519
0.432060255947
0.379570434869
0.314363255319
0.241316656472
0.164609162314
0.0913981634644
0.0351307584609
0.00741228451474
0.000649949115146
1.59838804275e-05
9.14110313388e-09
1.42502868426e-12
1.18510872897e-15
1e-15
1e-15
1e-15
1e-15
0.579034112773
0.518292408699
0.487461532259
0.456925531334
0.413599751202
0.355445864517
0.28823671775
0.216061319606
0.141657026615
0.0713042962317
0.0220606025755
0.00315019060745
0.000149080927681
1.30094311262e-06
1.23204388777e-10
1.35962469102e-14
1e-15
1e-15
1e-15
1e-15
0.582949573632
0.518039313909
0.494079798165
0.471998413896
0.438006734615
0.387556336953
0.326310085713
0.260795882719
0.192748373652
0.120450306701
0.0523742138008
0.0118280662309
0.000998921228311
2.16659728805e-05
2.5798433073e-08
2.88822383695e-12
1.40643569133e-15
1.00008467999e-15
1e-15
1e-15
0.579699276316
0.51527820268
0.492410555858
0.471255877972
0.439994500904
0.397850816577
0.348007042542
0.293536595187
0.236997743355
0.173181476811
0.0979921413655
0.0327228532673
0.00456551515671
0.000184767179091
1.29721262931e-06
1.89561720316e-10
4.09003165985e-14
1.01455946939e-15
1.00633899516e-15
1.00274603986e-15
0.583123670714
0.507742664403
0.489617013988
0.466886296837
0.435495276036
0.394813190226
0.35292694304
0.312225301908
0.269928101052
0.2185957462
0.147704665571
0.0664550872082
0.0141636585628
0.000968519039646
1.41382497615e-05
1.46389996745e-08
3.54117626533e-12
1.89103102661e-15
1.01286886629e-15
1.00982991638e-15
0.579348981042
0.495917089354
0.482152849537
0.456330454546
0.422288896655
0.38376111218
0.349243023651
0.32075567869
0.291094613971
0.250339313252
0.187806952567
0.103610410801
0.030818100546
0.00323087152792
7.75138380541e-05
2.40759046453e-07
1.10692394903e-10
3.59348738572e-14
1.02570947363e-15
1.01409652607e-15
0.582268080422
0.481470547327
0.4671728806
0.438018528912
0.401447045184
0.366528271327
0.342048205946
0.324491258384
0.303471953389
0.269466398108
0.214456702407
0.134679261125
0.0507830821419
0.00743586801147
0.000265608987245
1.53236054828e-06
1.07250275648e-09
4.14953494561e-13
1.1346835493e-15
1.01490221705e-15
0.579021338031
0.46820738684
0.446936977671
0.416637987293
0.382735618022
0.354746618883
0.339077256102
0.327909373829
0.311725245215
0.282250329783
0.234108828462
0.160267585701
0.070997883403
0.0134976496441
0.000679849547432
6.19993101481e-06
5.40605419623e-09
1.92756618406e-12
1.38293650909e-15
1.01391327369e-15
0.579743680724
0.460446076649
0.429827939825
0.402659141762
0.37628825971
0.354101412463
0.341298704498
0.333779548901
0.320617294993
0.295974401132
0.255857041773
0.188101084272
0.0948082838614
0.0227214931927
0.00164694048512
2.52156409617e-05
3.00936346602e-08
4.40992908822e-12
1.26367615058e-15
1.00987709478e-15
0.575072254778
0.460033437013
0.431382736917
0.405930817962
0.381599188812
0.361897161647
0.351861507878
0.345263272071
0.33430746145
0.316579119349
0.286130943877
0.227237800911
0.132439182763
0.0413934192519
0.00462699294816
0.000130407934873
5.53719622725e-07
5.1389363933e-12
1.68095469127e-15
1.00480000467e-15
0.554333174788
0.468169160756
0.45232640884
0.432458760693
0.408248724476
0.386374724681
0.372401051999
0.362010827681
0.35130413044
0.338394422509
0.319448732534
0.280757096912
0.197482314396
0.0846466626078
0.015137849232
0.000790676874329
8.70365445844e-06
1.93769222448e-09
5.45690317031e-14
1.02115862667e-15
0.548763849569
0.504130722507
0.506462377035
0.492602646275
0.459778760772
0.423715286378
0.397208680648
0.377947179233
0.359416344949
0.341321797528
0.332997362856
0.32727954005
0.279743157923
0.165353350693
0.0474146742572
0.00445403929329
0.00010258136926
2.70681883255e-07
2.63656004855e-12
2.09773222096e-15
0.577283453398
0.562168646571
0.568818854162
0.556527592295
0.515842661785
0.463635662988
0.421031312101
0.388797333183
0.358907360633
0.336852376567
0.331718093181
0.331591920427
0.329876859239
0.255874067489
0.113103991316
0.0187811710247
0.000849756740883
7.92370824238e-06
4.14367110335e-10
4.90612123626e-14
0.633007782239
0.600580747023
0.602552991527
0.590928134766
0.554018827051
0.496309723993
0.440599653375
0.394225323902
0.354210690119
0.323191678118
0.321725878542
0.33102383188
0.330906242032
0.306168540022
0.188962412736
0.0517981130368
0.00428116703295
8.09343865977e-05
1.1883489436e-07
1.53786165289e-12
0.639142460621
0.609280242435
0.609775977381
0.603204392105
0.57296225847
0.514985592363
0.451318019565
0.394271303503
0.343692369009
0.304929262202
0.304460219864
0.320822097177
0.330789153005
0.321678356904
0.237748955987
0.0947080669335
0.0131239048646
0.000438936048618
2.49851322508e-06
9.01653423483e-11
0.643082602159
0.610106032623
0.609930469214
0.608361104931
0.581099793916
0.521666444045
0.452711265079
0.388411300256
0.326767087961
0.299125140822
0.299181023278
0.303817838454
0.323659251704
0.319766911743
0.260014324005
0.131012842535
0.026707175766
0.00142998352208
1.49167586345e-05
3.16555652287e-09
0.639279660138
0.6085364591
0.609757337254
0.609609015177
0.582699393831
0.521595204822
0.448462057785
0.373159016099
0.307585468091
0.299181023278
0.298756304044
0.299181023278
0.305483613494
0.312344124012
0.271648140326
0.157866922728
0.0418220140563
0.0031935394999
4.98715294256e-05
7.59474754604e-08
0.644120804467
0.60312167674
0.609609015177
0.608199735976
0.579230657123
0.514706569367
0.433382144112
0.349967814682
0.299230685552
0.298834341465
0.299181023278
0.298490318286
0.299181023278
0.304195613803
0.282472130916
0.182368610353
0.0580082021736
0.00583920153916
0.000125804917193
4.11139752142e-07
0.639438986483
0.59435349213
0.605434814379
0.599830443905
0.565332748063
0.495481349877
0.407757327212
0.323548807165
0.299016004283
0.299181023278
0.298191268847
0.299181023278
0.298318056135
0.304650828556
0.300534746564
0.21191377387
0.0784173624173
0.0102378801061
0.000301991958729
1.58424827786e-06
0.64398955022
0.582793324136
0.595290606117
0.583641974423
0.541357322979
0.466196408441
0.37730797279
0.304205873034
0.299181023278
0.298292877199
0.299181023278
0.297676733364
0.299181023278
0.316855343348
0.334240155854
0.251628350608
0.108717213651
0.0185815298815
0.00075822126401
5.56188863022e-06
0.639142460621
0.570082949783
0.581334569244
0.563147553721
0.512065000492
0.432013890615
0.345993602697
0.299181023278
0.298645816031
0.299181023278
0.297595319739
0.299181023278
0.297458331021
0.343906425774
0.36270361494
0.294293364855
0.151103905852
0.0336763823506
0.00190961721513
1.9078987124e-05
0.643467958403
0.556904142537
0.564925346548
0.540176299815
0.480620855506
0.397469751439
0.317644490857
0.29891273272
0.299181023278
0.297765742487
0.299181023278
0.297170831363
0.303227721756
0.362799327779
0.362501368306
0.32461366522
0.196498276355
0.0559987013804
0.00442271457302
6.16356535049e-05
0.639142460621
0.543464841416
0.543986706768
0.512575715842
0.447706386764
0.36657466926
0.301257178595
0.299181023278
0.298042222438
0.299181023278
0.297170831363
0.299181023278
0.33598452945
0.362501368306
0.36289094031
0.342150799652
0.233227407332
0.0823392381214
0.00905387756527
0.000183413373898
0.642165980061
0.529364954684
0.515680142403
0.476933381721
0.412840600264
0.340602445159
0.299181023278
0.298422769374
0.299181023278
0.297257441073
0.299181023278
0.299430425059
0.36196756648
0.363073695336
0.362501368306
0.350897503194
0.258984387103
0.109564205793
0.0165662135727
0.000497765245723
0.638673368282
0.512528245189
0.487543330521
0.4415144241
0.382028061708
0.323254289736
0.298802772188
0.299181023278
0.297466585331
0.299181023278
0.297229240651
0.340560993672
0.362823777511
0.362501368306
0.362712270098
0.35354852496
0.276757622339
0.137375641225
0.02782873824
0.0012223809409
0.639131262044
0.49232200765
0.464249608576
0.418202794618
0.366752271785
0.320415279844
0.299181023278
0.298097978773
0.299181023278
0.307743245004
0.322791371601
0.348349225641
0.358473090369
0.362595594094
0.362501368306
0.353375894449
0.295088932523
0.170951965259
0.04434292448
0.00267148380903
0.637010180862
0.46831093387
0.447749330776
0.411153877194
0.366621333922
0.328768299091
0.315823621196
0.324580779284
0.338195508636
0.335537950223
0.327126874208
0.328300384713
0.33650949128
0.349638640176
0.35506139542
0.354135938547
0.324173614843
0.216814806506
0.06858592439
0.00544431684985
0.618497544367
0.447163530551
0.44018215809
0.414126467613
0.379683827657
0.359189028805
0.360821651254
0.366825063016
0.355734501187
0.331902273002
0.307056678622
0.295113673486
0.303623674044
0.321861196986
0.340071904217
0.360959615172
0.360589555678
0.269250519354
0.103317058809
0.0111878161207
0.594231753138
0.444416621631
0.442839880695
0.434659687169
0.417712944633
0.403015638574
0.393538937108
0.376147144693
0.349216756891
0.311257867064
0.278082749697
0.269314712939
0.276582344852
0.295500183873
0.330825795363
0.371751624512
0.382778645784
0.312973508235
0.149545822352
0.023120567778
0.571037702769
0.448966098854
0.469897241857
0.486247049295
0.473013460777
0.44236716753
0.409196035739
0.374284675305
0.333462161525
0.287565953709
0.258066183765
0.252608898509
0.259317096768
0.280331269638
0.328178977462
0.376340403857
0.386682604761
0.344565656677
0.200718488924
0.0443759491128
0.550353146222
0.472424127146
0.520038107135
0.553897049612
0.531922196541
0.478419742207
0.422440612116
0.372131404094
0.320250384084
0.271718095574
0.244988134943
0.240608536156
0.247910670262
0.271711303507
0.325802874389
0.376399614786
0.387057231654
0.364981779766
0.245834278799
0.0750257743535
0.532425536596
0.502897819331
0.569267640743
0.610371568476
0.580324505249
0.511357995751
0.437233606389
0.371437198343
0.311734241427
0.260620229583
0.235000256813
0.231629595496
0.240150304484
0.265498406525
0.321352120936
0.374849679296
0.386682604761
0.379972990545
0.280860484147
0.112261108308
0.5325188201
0.536895671724
0.606284023999
0.639426743584
0.602663402948
0.522678858695
0.439061230851
0.368217522044
0.302625610513
0.250344525486
0.227240000834
0.225898383415
0.236296831533
0.261399847364
0.314711773438
0.370661440514
0.387038915833
0.386682604761
0.309720663
0.154192503872
0.532613571376
0.602859932795
0.627054537063
0.645324946856
0.602222978059
0.516036623174
0.42814724572
0.35426479777
0.287340169756
0.239117966645
0.220938977671
0.222631219174
0.235616054523
0.259513413427
0.306763771548
0.363068129539
0.386682604761
0.386987713538
0.336126721197
0.200911777678
0.638174367001
0.68445496084
0.65094747794
0.645537112431
0.600034437456
0.502194790212
0.400530317209
0.323984385387
0.263559713136
0.22669313942
0.214554268088
0.219876913653
0.235340583436
0.259157584854
0.298194850439
0.349811031913
0.384060070355
0.386697165062
0.361497796721
0.250855048635
0.801121017298
0.756176541364
0.690887186284
0.659969887436
0.61579239797
0.514418115297
0.399562088855
0.312700985838
0.247610558905
0.21437155221
0.211343410816
0.214652399331
0.234161075339
0.260173100848
0.290957402321
0.329674804296
0.369649263528
0.386802690396
0.386309562173
0.299425517328
0.848420628177
0.797255313308
0.740400853241
0.698554382567
0.66084602893
0.571335055848
0.435159057948
0.327044152765
0.251595771932
0.211343410816
0.211071688108
0.211343410816
0.229721154438
0.263817767439
0.287192969348
0.305623781761
0.340494486629
0.38695533725
0.408949559868
0.33830790167
0.845338281995
0.812441412731
0.773748186379
0.739418696962
0.706231667534
0.643480767836
0.516932219216
0.378186235957
0.274807421454
0.213177653113
0.211343410816
0.21087791506
0.222206073802
0.266554184624
0.284531269592
0.284461480132
0.307018842099
0.378555654163
0.409175124706
0.363520641613
0.849398029977
0.815942325115
0.786339962401
0.760294262488
0.731553916163
0.684684723945
0.588056829985
0.448944032037
0.31922075331
0.228206201961
0.210886302181
0.211340010739
0.216129361271
0.264532643633
0.279356233827
0.268586094339
0.280328745163
0.360603813656
0.408949559868
0.378937848753
0.845707885382
0.815884811744
0.788508270722
0.765250887668
0.738700613497
0.696186869036
0.61586322547
0.493454311783
0.359677019888
0.249071205128
0.211291583561
0.21080323722
0.214890246344
0.26187648045
0.272579843083
0.256271408346
0.262300492059
0.34252343441
0.409087591084
0.388669844639
0.849111156499
0.813437163313
0.78703431723
0.764063897678
0.737727649887
0.69539720657
0.617462017075
0.502498290446
0.372841384934
0.258021411672
0.211096949209
0.211291583561
0.215410573205
0.259490883674
0.265850501987
0.246985733659
0.251988529993
0.332709972507
0.408949559868
0.397483044322
0.845886745664
0.807144436676
0.779570496129
0.756082687373
0.728966319006
0.684763122763
0.60760857633
0.495967037435
0.368915140478
0.255444107781
0.211208657196
0.210870298602
0.215845430302
0.255236286327
0.258633212809
0.241742187823
0.248913506534
0.332735666172
0.409340311312
0.408949559868
0.849070045296
0.79824350189
0.762009988701
0.735580282591
0.704491177899
0.653877261245
0.573136982379
0.464162252236
0.342083457553
0.238554012007
0.211072978908
0.211208657196
0.214520216606
0.248155675684
0.250337885703
0.240389907423
0.24973029764
0.341244540055
0.408949559868
0.409375243763
0.845512042504
0.783690555943
0.733020900624
0.700791843487
0.661695951872
0.600020192422
0.510663499158
0.39994072997
0.285850912905
0.215764887962
0.211208657196
0.210645957806
0.211585765526
0.238589281762
0.242277091122
0.239618817774
0.256552557615
0.357926009242
0.409375243763
0.408949559868
0.849458401149
0.755919898907
0.693060498272
0.652202368721
0.600894264946
0.525243756674
0.425844320862
0.314787292044
0.227932702347
0.211107325848
0.210791604856
0.211208657196
0.210568402784
0.222148950511
0.234651188099
0.239273204893
0.274602995931
0.373083241577
0.408949559868
0.409310757704
0.845338281995
0.699949506598
0.639864554061
0.58623184611
0.5193652737
0.430642535787
0.327045045464
0.236939211185
0.211073758945
0.210779288744
0.211107325848
0.210437524367
0.211208657196
0.210628341858
0.22472956084
0.246071884398
0.297785292606
0.377498536852
0.409175399213
0.408949559868
0.848990845473
0.633576719775
0.566704054476
0.495464541195
0.414232048098
0.320682182612
0.237961288804
0.211073758945
0.210783633882
0.211073758945
0.210329498435
0.211107325848
0.210297761368
0.211208657196
0.220056024123
0.256206285591
0.311049162014
0.375868905147
0.408567348397
0.409099246572
0.845087284479
0.557275175503
0.468677283216
0.378278011245
0.293749863251
0.228265599713
0.211037084591
0.210666180984
0.211073758945
0.210088955308
0.211073758945
0.210066791035
0.211107325848
0.210328130944
0.22107858423
0.260114344013
0.311792227447
0.369503471127
0.40382973331
0.408949559868
0.848461142886
0.481847307911
0.354223596404
0.254438109784
0.215191944539
0.211037084591
0.210234741519
0.211037084591
0.20966321196
0.211073758945
0.209644176769
0.211073758945
0.210037183457
0.211107325848
0.221798331273
0.257272229796
0.302860127158
0.354892181211
0.393302515675
0.408018848179
0.845079394297
0.397667292175
0.248306230187
0.210793057044
0.211037084591
0.209514738062
0.211037084591
0.208670009727
0.211037084591
0.208942394371
0.211073758945
0.209557086662
0.211073758945
0.21037659947
0.220190621469
0.242274153709
0.275311135259
0.326139339613
0.374794483107
0.405930019734
0.812737987228
0.286747186985
0.210955421735
0.211037084591
0.208704089703
0.211037084591
0.207341328102
0.211037084591
0.20771706356
0.211037084591
0.208878837078
0.211073758945
0.209937418947
0.211073758945
0.214961781982
0.220681379714
0.236672838127
0.281781678537
0.345069191431
0.40122505048
0.697507041672
0.21268355105
0.211037084591
0.208414529215
0.211037084591
0.206511421138
0.210736667936
0.206796057807
0.211037084591
0.208025731678
0.211037084591
0.209508526512
0.211073758945
0.210501940181
0.211533937361
0.209328044175
0.210693621129
0.234190218686
0.301426446301
0.387730696959
0.55376029395
0.237814474097
0.213956196661
0.211037084591
0.206995821379
0.210736667936
0.206423386842
0.210736667936
0.207995202925
0.211037084591
0.209379404231
0.211073758945
0.210403283368
0.210955600991
0.210642454873
0.207026705463
0.205111011732
0.207839171543
0.250087276493
0.356039276302
0.5388035268
0.390430828658
0.334984134182
0.298156381364
0.278955078143
0.270588719837
0.266739952975
0.254201924779
0.240430783157
0.227289972928
0.219158417058
0.213965840773
0.21226793309
0.211469061719
0.209640643685
0.206931874969
0.204848089367
0.203992423335
0.213040154222
0.305458032413
0.627817443682
0.66232700597
0.603129081747
0.554040058002
0.516163435778
0.487484694618
0.444302621187
0.382693830394
0.317671932428
0.26739996787
0.234408108105
0.216888620102
0.210710669575
0.209377961859
0.208717435501
0.207151204439
0.205010930758
0.204044485925
0.203959830433
0.244187210444
0.780600178457
0.803800847721
0.763969537151
0.730219585469
0.701775576199
0.67009377031
0.617014291866
0.533369038715
0.431769994232
0.337861719765
0.265007570307
0.221522081326
0.208027031964
0.206989587005
0.207674034688
0.207329479802
0.205593271754
0.203877121243
0.204038980096
0.206657439669
0.849590909304
0.8183972802
0.790660628143
0.766237508182
0.746352105043
0.723099335003
0.683557342641
0.610972745618
0.510632913092
0.40645182937
0.309604952967
0.233154250993
0.206104049508
0.205665538674
0.20648039135
0.207297683618
0.206748070854
0.204038980096
0.203777116042
0.204038733712
0.850169874922
0.814443780215
0.790323138735
0.768891881666
0.752182027776
0.731841899498
0.697464369399
0.632046384946
0.537123022707
0.434205477886
0.33316031358
0.242577884122
0.205538585276
0.205501585521
0.205518181339
0.206770460039
0.206753472818
0.205148257524
0.204038733712
0.203700135616
0.844330708026
0.802267497367
0.783245446167
0.766973583036
0.753005524734
0.734679400568
0.700930631945
0.637294736192
0.544429554595
0.440360295944
0.335948613675
0.24300842002
0.205507562209
0.205515398396
0.205435243263
0.205622740723
0.206736723685
0.206352549152
0.203789143642
0.204038733712
0.818028325696
0.786958694772
0.771882044224
0.762172517881
0.75298302565
0.736840308894
0.702846569268
0.639265848289
0.546641354168
0.440227164614
0.331429833124
0.237242294616
0.205515398396
0.205376452629
0.205490778718
0.205382418589
0.205873233049
0.206351874909
0.204501139424
0.203731778672
0.794928037559
0.776171367654
0.763309477025
0.758516751199
0.753195990815
0.73868467918
0.704335702946
0.640747423809
0.548411583377
0.43950479388
0.326485558183
0.232942016197
0.205478064825
0.205490778718
0.205240488397
0.205462040039
0.205361041158
0.205972985936
0.205743227479
0.204038733712
0.793725516366
0.768969088701
0.756429920857
0.755311029938
0.752691790589
0.739001238219
0.704203626228
0.640458545621
0.548618776867
0.439106618989
0.324834037054
0.232104035777
0.205490778718
0.205310001391
0.205462040039
0.205172490942
0.205436724004
0.205386525
0.205749624317
0.203914892043
0.793377246406
0.755733711275
0.746068957511
0.748407790786
0.748074885781
0.735450811512
0.699389859097
0.634604963
0.543411129517
0.43437914952
0.320222755187
0.229613906781
0.205438271009
0.205462040039
0.205135368015
0.205436724004
0.205156713653
0.205410806574
0.205362660777
0.20501439947
0.793345634919
0.717588763675
0.724438788643
0.732253230335
0.733518411843
0.721020078898
0.682885283939
0.616355684212
0.525605415635
0.417939488802
0.30572958655
0.222041591835
0.205490778718
0.205223232006
0.205462040039
0.20505705461
0.205436724004
0.205215588791
0.205410806574
0.206278059652
0.792830518357
0.644780897538
0.685176621622
0.699574499854
0.701913623032
0.688206613613
0.647315003249
0.578815318395
0.488187003093
0.382180416643
0.275276862708
0.210544164645
0.205362779631
0.205490778718
0.20505705461
0.205462040039
0.205080034747
0.205436724004
0.207306917103
0.209506987455
0.792603290493
0.570772771545
0.628838569787
0.644629965959
0.645852633181
0.629237631284
0.58507363463
0.515010023992
0.424739996487
0.322291282284
0.232291956953
0.205496851626
0.205515398396
0.205116218935
0.205490778718
0.205045243939
0.205462040039
0.207618846615
0.217049416352
0.215712416999
0.770023800671
0.546859771601
0.567592163017
0.566136285608
0.559407554471
0.536069597168
0.489060074601
0.419219738433
0.33263665107
0.246527232482
0.206450330976
0.205538585276
0.205180869924
0.205515398396
0.205052365619
0.205490778718
0.20866150113
0.223023197643
0.226345472375
0.219355803328
0.723158860643
0.534058347261
0.504190193759
0.470927841072
0.443918972042
0.409855656773
0.360816752649
0.297132857655
0.234596195043
0.206246392549
0.205561112484
0.20515310739
0.205538585276
0.20504075754
0.205515398396
0.211973859617
0.22729216665
0.229220931723
0.228295200161
0.219655932115
0.665666264114
0.508233456504
0.445392929835
0.381539771455
0.326474899794
0.278588908317
0.237692109645
0.211162152113
0.20545375743
0.205582837588
0.204894596786
0.205561112484
0.204887908172
0.208379457808
0.219587373699
0.228985689628
0.229220931723
0.229267018985
0.227840384758
0.219544581918
0.597129578543
0.47685890836
0.424227272256
0.35198636345
0.280096290374
0.22534331908
0.205630394649
0.205092496438
0.205603838355
0.204683675987
0.205582837588
0.207428671194
0.221837397165
0.233187036726
0.234864298794
0.230068555468
0.229057822551
0.228264748907
0.225127687929
0.218565241157
0.550259892787
0.481545973185
0.438271510065
0.367226330151
0.293298801551
0.238300849629
0.216002803055
0.214454900503
0.217145144913
0.226454847048
0.241327805451
0.260775678301
0.268287248369
0.258617507926
0.238523624163
0.22378008885
0.222018987559
0.220545858676
0.218122703467
0.215066755328
0.567061593528
0.545668606682
0.520194887703
0.464100783227
0.397737610236
0.349080321491
0.329556106443
0.33291114514
0.348587312175
0.369411553871
0.381389517835
0.370755695351
0.334813334719
0.287743759404
0.246219898707
0.220531051014
0.208461095666
0.207365677314
0.207032915897
0.207412991053
0.652380537203
0.681806038478
0.674863150518
0.652129846988
0.61980329434
0.596758848885
0.589779377395
0.595457542636
0.605960549629
0.60411293639
0.573860207014
0.513810406058
0.434523124032
0.351719602908
0.280191043635
0.229700548873
0.201997805494
0.195623095716
0.195714821687
0.197186926669
0.768563829189
0.789002729458
0.775973444938
0.768416205126
0.764989406115
0.764753097017
0.766302588861
0.768193954655
0.764558273504
0.741722113865
0.692205690578
0.621638717065
0.53562936858
0.440492689765
0.34494136921
0.260583757408
0.206554611034
0.188643286055
0.187756204205
0.18877760531
0.840338338239
0.815522327947
0.787910100684
0.785571765167
0.790364174088
0.799005901459
0.803664227916
0.804373232451
0.797458521326
0.771808101781
0.723982226744
0.659290366925
0.580926011045
0.490000502094
0.38976768248
0.289715181743
0.213938446014
0.185021675706
0.1825871853
0.183135311381
0.860506807824
0.812066555122
0.78127353039
0.77935720654
0.786571145038
0.798653658259
0.8053094834
0.80534162004
0.798493984449
0.77262646999
0.725433411011
0.662080403011
0.585484240226
0.496160999974
0.395967838905
0.293673977999
0.213775131122
0.182327823301
0.180910435869
0.181093836638
0.860497984998
0.797692377444
0.755186581377
0.751545554344
0.76436538669
0.785948951991
0.798292963188
0.799228403977
0.791402917378
0.764626533062
0.717400901528
0.654565911523
0.57845978519
0.489084798687
0.38800784606
0.284719993079
0.205423149951
0.180960447581
0.180489064017
0.18067482943
0.860537474143
0.772801546924
0.710118617398
0.699380156392
0.716795398133
0.74863671694
0.770058867694
0.772417137757
0.763715433246
0.735488449467
0.687535039583
0.624849900359
0.548671603918
0.457907897581
0.354647300863
0.252788904549
0.188300966064
0.180489064017
0.180511171158
0.182314758974
0.86041897913
0.742499071427
0.66244436999
0.638022618839
0.652807783612
0.684068255759
0.710382598094
0.714587514918
0.70589316799
0.676958495556
0.628503712431
0.565083424995
0.48691110484
0.393253778517
0.290519984499
0.204702881683
0.180489064017
0.180511171158
0.182414347794
0.203281544418
0.860292726371
0.717908987655
0.632753719889
0.584089200161
0.582796322301
0.598712364327
0.618744251117
0.623407396553
0.615151586111
0.586792170041
0.538556619077
0.473814438511
0.393122971146
0.300362968802
0.215152967752
0.180799159075
0.180511171158
0.184444069358
0.209275644371
0.231220608319
0.85413266262
0.709351077425
0.624561596417
0.55533963474
0.515390915561
0.501123860451
0.503043523886
0.502679328498
0.492538398894
0.464356196097
0.417186885378
0.353256308461
0.277769644547
0.208521211076
0.179203174808
0.179091246971
0.187604837715
0.217969343697
0.236327293379
0.236505568722
0.820929500017
0.700840268662
0.619643007578
0.550384354316
0.469523184903
0.40662059402
0.377016230549
0.360164725401
0.343036046514
0.315287770215
0.274802865819
0.227446369676
0.189731049887
0.177459799295
0.177494003544
0.187376006622
0.22598678312
0.241152548864
0.239822393076
0.231328906948
0.773787513941
0.672119084237
0.60650069258
0.544954915863
0.449085344178
0.340405005011
0.266696964743
0.225767582733
0.208052896825
0.194649328307
0.183021122087
0.177471277898
0.177383686043
0.177022755145
0.180950321703
0.226086462656
0.244616341916
0.242634921812
0.232311500697
0.221664164706
0.75021419253
0.60832089206
0.574693978293
0.527905001359
0.430172769558
0.302964017046
0.202095115202
0.177429650618
0.177158120802
0.177283307303
0.176540023388
0.177327098119
0.176223453351
0.177383686043
0.207013800965
0.245489997103
0.245075448816
0.233036192651
0.224900167881
0.224233201137
0.742015702946
0.527326778294
0.53143796481
0.496467786748
0.402487810047
0.272826726758
0.180798032294
0.177099530225
0.177283307303
0.17595500022
0.177237460642
0.175297512572
0.177327098119
0.180531107491
0.241893179028
0.245612341223
0.235283576679
0.223037002899
0.225352248917
0.244741387765
0.719081270246
0.479178046104
0.497970984588
0.470235724896
0.373124022815
0.243027957797
0.177317201216
0.177283307303
0.175949536642
0.177237460642
0.175000570393
0.177237460642
0.174969372661
0.230038747824
0.24230128564
0.238548972039
0.220324306313
0.222875823054
0.245733065739
0.290579189895
0.662182207839
0.46333381491
0.478802649739
0.46414466313
0.361740528295
0.231006915744
0.177327098119
0.176360024409
0.177237460642
0.175000570393
0.177177098831
0.174778131605
0.227930537519
0.23735217407
0.237915824335
0.218999719305
0.218687919671
0.240160426768
0.2854493473
0.290869355862
0.576832085004
0.460889795007
0.465761972468
0.463244078749
0.363108416333
0.238041520038
0.181824722251
0.177327098119
0.175484594132
0.177237460642
0.200408645902
0.240670552391
0.241293736053
0.237158637779
0.22064214878
0.214075287227
0.227863300287
0.280414385628
0.317886093272
0.290729126178
0.497238383217
0.459955546354
0.45902118731
0.455770282353
0.367057700068
0.279876696354
0.240536743722
0.230057644711
0.245297711068
0.263913282673
0.276312962531