/*--------------------------------*- C++ -*----------------------------------*\
| =========                 |                                                 |
| \\      /  F ield         | OpenFOAM: The Open Source CFD Toolbox           |
|  \\    /   O peration     | Version:  2312                                  |
|   \\  /    A nd           | Website:  www.openfoam.com                      |
|    \\/     M anipulation  |                                                 |
\*---------------------------------------------------------------------------*/
FoamFile
{
    version     2.0;
    format      ascii;
    arch        "LSB;label=32;scalar=64";
    class       volScalarField;
    location    "0.105/water";
    object      alphat.gas;
}
// * * * * * * * * * * * * * * * * * * * * * * * * * * * * * * * * * * * * * //

dimensions      [1 -1 -1 0 0 0 0];

internalField   nonuniform List<scalar> 
1497
(
1.43847054532e-06
1.22445012033e-06
1.05484926768e-06
9.21285365471e-07
8.10696169666e-07
7.01186693005e-07
5.69803281506e-07
4.12028567631e-07
2.46407655538e-07
1.12364473874e-07
4.11105838691e-08
1.32240991375e-08
3.44151621754e-09
2.45566330537e-06
3.81699998564e-06
3.54503276697e-06
2.76792325149e-06
2.24514516007e-06
1.90829386429e-06
1.62201303776e-06
1.3829288067e-06
1.18712479564e-06
1.03269608375e-06
9.10069009077e-07
8.01752397693e-07
6.83916094852e-07
5.40652587644e-07
3.77844502894e-07
2.18928651785e-07
9.96814587586e-08
3.85606115173e-08
1.2952264323e-08
3.56612828763e-09
2.59396390928e-06
3.94937208473e-06
3.57244566653e-06
2.74801357203e-06
2.17637014195e-06
1.80741643083e-06
1.53454204971e-06
1.31815111416e-06
1.14381431639e-06
1.00480183189e-06
8.89488741841e-07
7.76980965049e-07
6.45666426734e-07
4.91181899764e-07
3.2871379949e-07
1.84383660388e-07
8.50331789088e-08
3.4988181561e-08
1.23596435211e-08
3.67830514519e-09
2.73564092271e-06
4.10389887731e-06
3.70562948199e-06
2.8286377956e-06
2.13315485425e-06
1.6945073549e-06
1.42361892209e-06
1.23704899782e-06
1.09236619102e-06
9.71618408334e-07
8.59171173244e-07
7.34572180279e-07
5.86628880133e-07
4.25397546412e-07
2.72749287291e-07
1.50855391518e-07
7.23064695375e-08
3.15490197479e-08
1.19863728922e-08
3.87395542812e-09
2.83616235796e-06
4.26606795343e-06
3.93230789833e-06
2.97888806722e-06
2.14265674671e-06
1.60743385182e-06
1.31940498558e-06
1.15909549362e-06
1.0447041355e-06
9.3820295704e-07
8.18413738159e-07
6.72779171168e-07
5.09301671481e-07
3.51768360982e-07
2.20351000966e-07
1.24233313924e-07
6.25007556436e-08
2.91441454685e-08
1.24256715564e-08
4.21981668418e-09
2.83301908007e-06
4.33275576567e-06
4.00641528624e-06
3.05723160832e-06
2.14969753917e-06
1.55063701415e-06
1.24998965123e-06
1.11028802578e-06
1.01555687693e-06
9.07072739703e-07
7.62697884792e-07
5.9005764188e-07
4.21400280629e-07
2.82842883434e-07
1.79644634064e-07
1.06281647913e-07
5.52522573916e-08
2.8967966795e-08
1.36306508475e-08
4.69619267119e-09
2.83893255747e-06
3.95245868552e-06
3.7305332062e-06
2.88360128755e-06
2.04606147649e-06
1.49409605557e-06
1.22743769007e-06
1.10837764768e-06
1.0105843519e-06
8.69917406514e-07
6.82210718658e-07
4.90881051216e-07
3.37983634129e-07
2.29460060394e-07
1.52496229658e-07
9.31206402199e-08
5.2037520811e-08
3.15668551289e-08
1.55936547333e-08
5.3428383798e-09
2.88667914622e-06
3.46509291432e-06
3.18597600232e-06
2.49939916332e-06
1.86441010519e-06
1.46331746369e-06
1.26944399994e-06
1.1566005345e-06
1.01251133659e-06
8.02210827132e-07
5.75322147157e-07
3.952385719e-07
2.73916289006e-07
1.9263841254e-07
1.315808003e-07
8.43888385911e-08
5.31092715976e-08
3.66865160362e-08
1.835198725e-08
6.20169430613e-09
2.77513111079e-06
2.96647372835e-06
2.67300081554e-06
2.19715453571e-06
1.79394480226e-06
1.54411749825e-06
1.39279440357e-06
1.22428002267e-06
9.73650785801e-07
6.93956107913e-07
4.70915534223e-07
3.22593964603e-07
2.275281153e-07
1.63177205499e-07
1.1588858401e-07
8.1518557347e-08
5.75057728775e-08
4.34826602357e-08
2.17002458389e-08
7.28369878564e-09
2.68984931488e-06
2.78350710868e-06
2.55938291609e-06
2.23540568213e-06
1.96356650837e-06
1.76627543092e-06
1.55366716521e-06
1.23996880041e-06
8.79989652015e-07
5.89113361321e-07
3.95662677062e-07
2.73122422535e-07
1.95832729489e-07
1.44860870685e-07
1.09119939343e-07
8.30097966824e-08
6.3132143326e-08
5.06525929322e-08
2.52790783811e-08
8.49832698845e-09
2.92078669075e-06
3.05601381957e-06
2.86433017962e-06
2.55647906654e-06
2.2818477376e-06
2.02868725607e-06
1.67424517411e-06
1.21989366894e-06
8.21622722699e-07
5.47933765608e-07
3.7059539423e-07
2.58328384553e-07
1.87533196033e-07
1.41388674475e-07
1.09660108248e-07
8.63673020737e-08
6.87634699056e-08
5.71267022737e-08
2.8743396064e-08
9.68353744639e-09
3.32974453132e-06
3.49508350111e-06
3.24713614109e-06
2.87717472036e-06
2.57644216465e-06
2.27364019565e-06
1.80545831247e-06
1.28078403805e-06
8.83189975986e-07
6.17487245417e-07
4.32573026638e-07
3.02004854362e-07
2.13141223712e-07
1.55211013541e-07
1.1767614877e-07
9.24754015604e-08
7.52556064504e-08
6.3098533563e-08
3.1949480158e-08
1.0749473698e-08
3.32662555511e-06
3.5232347697e-06
3.31006359579e-06
2.99414771872e-06
2.7629062396e-06
2.4876240197e-06
1.99450431963e-06
1.46350756952e-06
1.07746282845e-06
8.14094307378e-07
6.07027773703e-07
4.3303815793e-07
2.95524137642e-07
2.00790704669e-07
1.42205536056e-07
1.07189946178e-07
8.62056730447e-08
6.98518122335e-08
3.49684068568e-08
1.17675376407e-08
2.76110788802e-06
3.34709379528e-06
3.30489296145e-06
3.05589212929e-06
2.86979482178e-06
2.65159359684e-06
2.22897606745e-06
1.73639340435e-06
1.35035313145e-06
1.07711013508e-06
8.51342415769e-07
6.43310632617e-07
4.54714917145e-07
3.0156103186e-07
2.00352348937e-07
1.41771558281e-07
1.07969909496e-07
7.94357914656e-08
3.79922940445e-08
1.26701244922e-08
2.37642490597e-06
3.23087731621e-06
3.3023890325e-06
3.09608055308e-06
2.92964977202e-06
2.74790346289e-06
2.41868378757e-06
2.00157637448e-06
1.62815920024e-06
1.33857787077e-06
1.09473919059e-06
8.63647473343e-07
6.50100409697e-07
4.47440466157e-07
2.97161866407e-07
2.04318217364e-07
1.45343337677e-07
9.28354331815e-08
4.10665572258e-08
1.33411845522e-08
2.18855391098e-06
3.08040688097e-06
3.22104567095e-06
3.06501109939e-06
2.93067729951e-06
2.79010719048e-06
2.53902764165e-06
2.19569846012e-06
1.84878910707e-06
1.54696838512e-06
1.28732869034e-06
1.04624269581e-06
8.12044571767e-07
5.74769783604e-07
3.92176696707e-07
2.73160627124e-07
1.87097653109e-07
1.06466206104e-07
4.36502658415e-08
1.37070594544e-08
2.05927916186e-06
2.90014613692e-06
3.06369453262e-06
2.95405716137e-06
2.86185620518e-06
2.76871260198e-06
2.58495603065e-06
2.30730495583e-06
1.99492706706e-06
1.6944649381e-06
1.41837342403e-06
1.16041713218e-06
9.08568037998e-07
6.51552751283e-07
4.49284605195e-07
3.15988455721e-07
2.14096261539e-07
1.15559734595e-07
4.51927145355e-08
1.35489499925e-08
1.94682410545e-06
2.70216834627e-06
2.86290358006e-06
2.7873220179e-06
2.73733361959e-06
2.69288573022e-06
2.56907468766e-06
2.34898451924e-06
2.07223765631e-06
1.78052552618e-06
1.49415343246e-06
1.22049980666e-06
9.52315596066e-07
6.82549111639e-07
4.72724203841e-07
3.34793823702e-07
2.26355072488e-07
1.1880616448e-07
4.42696244432e-08
1.25446953337e-08
1.88133264109e-06
2.52332852004e-06
2.65697187091e-06
2.60015010541e-06
2.58421366535e-06
2.58356232894e-06
2.5109615302e-06
2.33895582691e-06
2.09379695665e-06
1.81179202534e-06
1.51816809738e-06
1.23258618359e-06
9.52484582017e-07
6.81953851335e-07
4.75861399537e-07
3.40534075102e-07
2.28854201212e-07
1.15582441008e-07
4.05616128967e-08
1.08326205014e-08
1.85928037607e-06
2.38998717786e-06
2.48181027572e-06
2.42647848549e-06
2.43199358627e-06
2.46432402832e-06
2.42924263872e-06
2.29233938461e-06
2.07040318645e-06
1.79485231285e-06
1.49696079459e-06
1.20514181393e-06
9.18320830725e-07
6.59491455286e-07
4.67128610512e-07
3.39460755991e-07
2.2449794419e-07
1.06907892711e-07
3.48154255162e-08
8.75203330964e-09
1.87305017607e-06
2.31896657424e-06
2.36586323621e-06
2.294143535e-06
2.30508207998e-06
2.35248971096e-06
2.33476754256e-06
2.21587524416e-06
2.00708727642e-06
1.73608527935e-06
1.44061924736e-06
1.14938364641e-06
8.65854761661e-07
6.2531387293e-07
4.53413224073e-07
3.34862403341e-07
2.14380357094e-07
9.41273470066e-08
2.8089912185e-08
6.67154202086e-09
1.94422490637e-06
2.32943231916e-06
2.32188454382e-06
2.21551050989e-06
2.21493969603e-06
2.25183773072e-06
2.22528365255e-06
2.10641765132e-06
1.90293399196e-06
1.63853482144e-06
1.35151420459e-06
1.06569129694e-06
8.01655531941e-07
5.88215574014e-07
4.40061298434e-07
3.28220992511e-07
1.99019958136e-07
7.89313680147e-08
2.14631747564e-08
4.87492369061e-09
2.06182670781e-06
2.39772894083e-06
2.31613841339e-06
2.17937145644e-06
2.13986857196e-06
2.13125083086e-06
2.08245118253e-06
1.95807096845e-06
1.7623505155e-06
1.50921607543e-06
1.23576099807e-06
9.68683270794e-07
7.36256677704e-07
5.55226487204e-07
4.30316255923e-07
3.19643309479e-07
1.79144416399e-07
6.32847680196e-08
1.57797467463e-08
3.50357310306e-09
2.20486664282e-06
2.45736182561e-06
2.35093324169e-06
2.16764931361e-06
1.97645342868e-06
1.93666921785e-06
1.8960291324e-06
1.77506316251e-06
1.59403148516e-06
1.36173034689e-06
1.10888508147e-06
8.75982267372e-07
6.78538190749e-07
5.31206099337e-07
4.25530207375e-07
3.08428410377e-07
1.56312469971e-07
4.91354505217e-08
1.14739763274e-08
2.5694147514e-09
2.34580702368e-06
2.54561612318e-06
2.47521158364e-06
2.19598819899e-06
1.70497181532e-06
1.6706338931e-06
1.67701945146e-06
1.58281156905e-06
1.41800115934e-06
1.20522314441e-06
9.86838529201e-07
7.94121547287e-07
6.35127226896e-07
5.19591764671e-07
4.25416581136e-07
2.93805506468e-07
1.33234955012e-07
3.78917442905e-08
8.57814811831e-09
2.01220781337e-09
2.452014159e-06
2.64432151345e-06
2.64970599941e-06
2.29076658845e-06
1.56220585443e-06
1.40441348012e-06
1.43353123186e-06
1.40296969872e-06
1.26445960777e-06
1.07599588987e-06
8.92599170777e-07
7.37124072034e-07
6.13054033376e-07
5.22054515649e-07
4.27940497782e-07
2.76126896867e-07
1.12970694368e-07
2.995950235e-08
6.89129516335e-09
1.75179474021e-09
2.50624020376e-06
2.71091594017e-06
2.79848984435e-06
2.40924313248e-06
1.6511286987e-06
1.29279654601e-06
1.219515285e-06
1.2478263186e-06
1.15852658831e-06
9.98015855773e-07
8.41348297878e-07
7.13062920915e-07
6.14517518452e-07
5.36309531981e-07
4.29653583553e-07
2.57288934571e-07
9.66573695049e-08
2.4714341075e-08
6.21796557193e-09
1.72840720489e-09
2.5416056847e-06
2.75688778056e-06
2.89397231879e-06
2.53391307406e-06
1.8313864121e-06
1.34390352386e-06
1.07980576527e-06
1.1009641871e-06
1.08649594401e-06
9.68811149966e-07
8.33246671467e-07
7.20442021666e-07
6.35283161591e-07
5.56162933783e-07
4.28222907123e-07
2.3933146359e-07
8.23311993711e-08
2.14958213496e-08
6.32781435173e-09
1.88744424374e-09
2.57010748183e-06
2.77936454766e-06
2.92139344357e-06
2.63871137216e-06
1.95204935638e-06
1.48102687465e-06
1.05520500763e-06
9.65118473563e-07
1.00628294789e-06
9.56584731066e-07
8.49763050642e-07
7.4729823509e-07
6.65838913237e-07
5.74948992604e-07
4.25319963762e-07
2.22027270278e-07
7.01256300959e-08
2.05946783835e-08
6.95393625737e-09
2.16874678829e-09
2.59737665051e-06
2.79357681132e-06
2.91431535079e-06
2.7163790857e-06
2.03153958444e-06
1.61515478148e-06
1.12711638109e-06
8.9449735685e-07
9.1225995834e-07
9.28505586498e-07
8.64523900848e-07
7.76728830743e-07
6.95456038573e-07
5.8988317548e-07
4.23437588402e-07
2.05010358433e-07
6.29137400123e-08
2.13297103375e-08
7.8617234668e-09
2.52520304678e-09
2.60752633e-06
2.79763064018e-06
2.89115872554e-06
2.76781843817e-06
2.09369788585e-06
1.7253135515e-06
1.22140644791e-06
8.93343697685e-07
8.45382105823e-07
8.8751981904e-07
8.65154369956e-07
7.97598218555e-07
7.18590713845e-07
6.02320486566e-07
4.21316395463e-07
1.89109421938e-07
6.08010795418e-08
2.28931280742e-08
8.86843362018e-09
2.90941228934e-09
2.60761574451e-06
2.79203771153e-06
2.8617490465e-06
2.7989432856e-06
2.1505832109e-06
1.80046734905e-06
1.30497413302e-06
9.20676969612e-07
8.11197772731e-07
8.48827617266e-07
8.54771879462e-07
8.08330901391e-07
7.34973033081e-07
6.1355451935e-07
4.17467170566e-07
1.7687890862e-07
6.14447341043e-08
2.47392896411e-08
9.84962076408e-09
3.28455419424e-09
2.58878055685e-06
2.7751720126e-06
2.8322215851e-06
2.81605734774e-06
2.203973498e-06
1.84674191814e-06
1.36810096634e-06
9.5287600668e-07
8.00032214733e-07
8.2094239033e-07
8.40692086497e-07
8.12000959764e-07
7.45927133976e-07
6.2249478e-07
4.11561574044e-07
1.69673886424e-07
6.32903756846e-08
2.65661196307e-08
1.07425582525e-08
3.63058490794e-09
2.57656238799e-06
2.7528130463e-06
2.79955795094e-06
2.82311867073e-06
2.25196073909e-06
1.87465102176e-06
1.41244868765e-06
9.8072668323e-07
8.0142270409e-07
8.04755169089e-07
8.2819550317e-07
8.12202628585e-07
7.52708279841e-07
6.27377626153e-07
4.03301167358e-07
1.66099749858e-07
6.5545990324e-08
2.82193826474e-08
1.15153645285e-08
3.93368810882e-09
2.5592076391e-06
2.73263109203e-06
2.77600782683e-06
2.82749002654e-06
2.29129541672e-06
1.89229852416e-06
1.44399715988e-06
1.00398402859e-06
8.08836476592e-07
7.97220073425e-07
8.19109880325e-07
8.11154652934e-07
7.56353513633e-07
6.27454161738e-07
3.93780440987e-07
1.64512222915e-07
6.7659528046e-08
2.95922472293e-08
1.21460197986e-08
4.18523470287e-09
2.54393123464e-06
2.71695098337e-06
2.76657144049e-06
2.83875893022e-06
2.32235181459e-06
1.90408706197e-06
1.46894411016e-06
1.02546405857e-06
8.19332180472e-07
7.94508482604e-07
8.12560508213e-07
8.09626493804e-07
7.57435402434e-07
6.23841852303e-07
3.85027028985e-07
1.63792657959e-07
6.93458819389e-08
3.06479174873e-08
1.26360639099e-08
4.38585174564e-09
2.52717485991e-06
2.71375821538e-06
2.78258124988e-06
2.86861361255e-06
2.33971470545e-06
1.90501626563e-06
1.49254720648e-06
1.04885005524e-06
8.32008990175e-07
7.93636172014e-07
8.06993501008e-07
8.07606754291e-07
7.56644624349e-07
6.18950192949e-07
3.78433379302e-07
1.6362733553e-07
7.06455006252e-08
3.14447365318e-08
1.30148628745e-08
4.54481260261e-09
2.58279013579e-06
2.78360318461e-06
2.85830089872e-06
2.87219499226e-06
2.33077448733e-06
1.88222138006e-06
1.51729863538e-06
1.07945190711e-06
8.47385711089e-07
7.92657513137e-07
8.0089320104e-07
8.04551558199e-07
7.54815036312e-07
6.14666494056e-07
3.74627429133e-07
1.64372335314e-07
7.18019355047e-08
3.20925072299e-08
1.33231199489e-08
4.67386114681e-09
8.45154906617e-10
2.36446714146e-10
1.95081919653e-10
4.08491016932e-10
1.04488365726e-09
2.41908658659e-09
4.92627932674e-09
8.04762432125e-09
9.3250437866e-09
8.25147700883e-09
7.22217399766e-09
1.00087551082e-08
4.05313879002e-08
4.38169339957e-07
1.4634571482e-06
2.25107376583e-06
2.72410618651e-06
2.90305671313e-06
2.92027909049e-06
3.06380201415e-06
9.19501239154e-10
2.59826373909e-10
1.99445474035e-10
3.80350102136e-10
9.71956398845e-10
2.23881266062e-09
4.5017118197e-09
7.52740686846e-09
9.14446848552e-09
8.26103857612e-09
7.19554859367e-09
9.91978392595e-09
4.1858871661e-08
4.42138713142e-07
1.4724728756e-06
2.26905733438e-06
2.7523811406e-06
2.93824706582e-06
2.9485925555e-06
3.07402163222e-06
9.64183820426e-10
3.18474456442e-10
1.98602304833e-10
3.62084475906e-10
9.28758858236e-10
2.1297403266e-09
4.2169479781e-09
7.0960442516e-09
8.93242251363e-09
8.24520530112e-09
7.18805621326e-09
1.0009012534e-08
4.43315209588e-08
4.49443252059e-07
1.4839633023e-06
2.28760176871e-06
2.78112881039e-06
2.9764773635e-06
2.98266257444e-06
3.08625395425e-06
9.93453510005e-10
3.42050901054e-10
1.95905310155e-10
3.55761443067e-10
9.13817521051e-10
2.07731680049e-09
4.04475454929e-09
6.77159495568e-09
8.71691477065e-09
8.20694769871e-09
7.19303902915e-09
1.02880099328e-08
4.8103805016e-08
4.59033266228e-07
1.49540994649e-06
2.30480503694e-06
2.80901779473e-06
3.01702651159e-06
3.02311300371e-06
3.10332631817e-06
1.03654072845e-09
3.44609423734e-10
1.96850305698e-10
3.59438271649e-10
9.14794550822e-10
2.05481541265e-09
3.9395332867e-09
6.52676577579e-09
8.50307219156e-09
8.14715568737e-09
7.2017432888e-09
1.07729169489e-08
5.32496933892e-08
4.6935538073e-07
1.50387027901e-06
2.31868663034e-06
2.83479870803e-06
3.05917167235e-06
3.07101847653e-06
3.12864684489e-06
1.23123201828e-09
3.65456214896e-10
2.03852086874e-10
3.63674816944e-10
9.12466306815e-10
2.03070846418e-09
3.85102745822e-09
6.31200940531e-09
8.28222193861e-09
8.07083708954e-09
7.20769234314e-09
1.13312148995e-08
5.83430001991e-08
4.77234956785e-07
1.50825851879e-06
2.32905879375e-06
2.85858979928e-06
3.10297783372e-06
3.12720155929e-06
3.16568155341e-06
1.56760623136e-09
4.09508272506e-10
2.14029020464e-10
3.620917756e-10
8.94552426543e-10
1.9858757147e-09
3.74709864625e-09
6.09189850248e-09
8.0468617714e-09
7.98545931168e-09
7.20618633805e-09
1.17215768408e-08
6.16558433457e-08
4.80165823506e-07
1.5082296513e-06
2.33579802892e-06
2.8801161711e-06
3.14789639415e-06
3.19169240527e-06
3.21717056721e-06
1.89154841129e-09
4.71831099414e-10
2.23662995399e-10
3.49477202336e-10
8.51941962565e-10
1.9044922973e-09
3.59772301398e-09
5.81701645005e-09
7.74960897569e-09
7.872672514e-09
7.18592467124e-09
1.17742958092e-08
6.23149916514e-08
4.7700716704e-07
1.50345927575e-06
2.33872177561e-06
2.89885068214e-06
3.19266185187e-06
3.26322054389e-06
3.28457092607e-06
2.21619298672e-09
5.55161514345e-10
2.31295589832e-10
3.2358795331e-10
7.78884782538e-10
1.77393638092e-09
3.38274603241e-09
5.45040624833e-09
7.3333162974e-09
7.69316854571e-09
7.1358635505e-09
1.14393318638e-08
6.01438392598e-08
4.67996343068e-07
1.49438044815e-06
2.33809337646e-06
2.91439028692e-06
3.23565808921e-06
3.33940536308e-06
3.36783649983e-06
2.29688946464e-09
6.59281962583e-10
2.38804383842e-10
2.90250190651e-10
6.81286286588e-10
1.59561272684e-09
3.10467651092e-09
4.99701591876e-09
6.76820175662e-09
7.39262657803e-09
7.04267690344e-09
1.08051635469e-08
5.55974071276e-08
4.54633142022e-07
1.48224237819e-06
2.33472029224e-06
2.92664796452e-06
3.27521685909e-06
3.41696449169e-06
3.46513555175e-06
2.55195061982e-09
7.69745052575e-10
2.50466728177e-10
2.59590105089e-10
5.78708757381e-10
1.38843767187e-09
2.78794874286e-09
4.50733972196e-09
6.09268834894e-09
6.9283813604e-09
6.88352703338e-09
1.00464454528e-08
4.95659476917e-08
4.39304018174e-07
1.46889360373e-06
2.32987114004e-06
2.93594842063e-06
3.30993833051e-06
3.4921093954e-06
3.57270184028e-06
2.90611528085e-09
7.80320357597e-10
2.68360281756e-10
2.38287200248e-10
4.94085718679e-10
1.18561045328e-09
2.46691498344e-09
4.0438660202e-09
5.41114021188e-09
6.31758507593e-09
6.62966854705e-09
9.33436559422e-09
4.31510301481e-08
4.24808814444e-07
1.45636446002e-06
2.32500144662e-06
2.94295400036e-06
3.33892088265e-06
3.56107368805e-06
3.68497118771e-06
3.19304910441e-09
7.61769788899e-10
2.90025053813e-10
2.26545393429e-10
4.37410119213e-10
1.02129015947e-09
2.17678074615e-09
3.64801554127e-09
4.82846461128e-09
5.65935264222e-09
6.27399733987e-09
8.76870778882e-09
3.74642406871e-08
4.13822736506e-07
1.44650855464e-06
2.32149093541e-06
2.94851745952e-06
3.36186504669e-06
3.62066821584e-06
3.79512486195e-06
3.41219039913e-09
8.37509151164e-10
3.04340505253e-10
2.22067703228e-10
4.046058525e-10
9.11698028675e-10
1.94799185703e-09
3.33823384799e-09
4.3920512527e-09
5.07932482079e-09
5.86194377771e-09
8.37354733317e-09
3.34746773005e-08
4.08408828261e-07
1.44076543479e-06
2.32048499022e-06
2.9535756295e-06
3.37911099702e-06
3.6688100367e-06
3.89614343101e-06
3.55763321188e-09
8.92303935612e-10
2.96642399424e-10
2.22881966432e-10
3.88581155057e-10
8.52330388712e-10
1.79793653228e-09
3.12189670633e-09
4.09758242677e-09
4.6510725717e-09
5.48081168467e-09
8.14698622757e-09
3.18754285584e-08
4.09847013496e-07
1.4399735735e-06
2.32269477939e-06
2.9589293146e-06
3.39145721914e-06
3.70474538824e-06
3.9820158085e-06
3.61243213287e-09
9.10141361623e-10
2.78847880126e-10
2.26112784932e-10
3.84372102382e-10
8.32142943168e-10
1.7295935573e-09
3.00441807077e-09
3.92534522133e-09
4.38240378537e-09
5.21225944113e-09
8.11418519724e-09
3.26519309607e-08
4.18488991059e-07
1.44495641734e-06
2.32873197402e-06
2.96528367269e-06
3.39999977521e-06
3.72902275625e-06
4.04886376079e-06
3.45303594061e-09
8.66352011166e-10
2.61719903084e-10
2.26110823885e-10
3.87909986739e-10
8.40882854851e-10
1.73456833121e-09
2.98701878441e-09
3.86112338908e-09
4.25129573131e-09
5.09620002567e-09
8.28798360575e-09
3.44605676228e-08
4.32729721554e-07
1.45820315157e-06
2.34099760074e-06
2.9745781598e-06
3.40664215396e-06
3.7434891043e-06
4.0957714072e-06
3.07448383725e-09
7.67898933409e-10
2.38516652623e-10
2.21671257205e-10
3.98760840695e-10
8.77740185597e-10
1.80105187718e-09
3.04729194039e-09
3.87137553021e-09
4.21298275069e-09
5.10641052659e-09
8.67354552377e-09
3.68522061803e-08
4.51697192832e-07
1.47984472454e-06
2.3599250804e-06
2.98769188632e-06
3.41313464438e-06
3.75078807156e-06
4.12449163728e-06
2.55892981857e-09
6.39672004519e-10
2.10131972874e-10
2.1548047022e-10
4.17675069019e-10
9.46029530693e-10
1.94459533345e-09
3.20352121792e-09
3.9730546254e-09
4.28902579231e-09
5.29927039071e-09
9.30226142525e-09
3.97400453781e-08
4.75048221818e-07
1.5090030361e-06
2.38478772152e-06
3.00441311986e-06
3.42024680899e-06
3.7531360029e-06
4.13801851011e-06
2.00973770135e-09
5.08143181127e-10
1.86810635884e-10
2.11218633601e-10
4.4681269578e-10
1.04653653231e-09
2.1505961729e-09
3.42692360492e-09
4.16141679818e-09
4.50761096338e-09
5.68484068013e-09
1.00886163e-08
4.30709163023e-08
5.02321740363e-07
1.54438674612e-06
2.41444783108e-06
3.0241840446e-06
3.42843417354e-06
3.75256974945e-06
4.14013350489e-06
1.51203552333e-09
3.91807760242e-10
1.76497469083e-10
2.11979194042e-10
4.9006039597e-10
1.18631854406e-09
2.40867972673e-09
3.69251514087e-09
4.42255932863e-09
4.86199657674e-09
6.21186730911e-09
1.09250405153e-08
4.68090673864e-08
5.32841527468e-07
1.58439018642e-06
2.44749481269e-06
3.04621803798e-06
3.43789190498e-06
3.75083073135e-06
4.1347450373e-06
1.11347238067e-09
2.99386988011e-10
1.68784476136e-10
2.19964204798e-10
5.52047148811e-10
1.37391957992e-09
2.70692140446e-09
3.99494961022e-09
4.77571520958e-09
5.36806825128e-09
6.81292191608e-09
1.17236566392e-08
5.09044799511e-08
5.65680300582e-07
1.62715555655e-06
2.48234196933e-06
3.06957584252e-06
3.44858590736e-06
3.74928448363e-06
4.12539205546e-06
8.241564089e-10
2.31964597802e-10
1.55628087281e-10
2.36215789031e-10
6.37649044251e-10
1.60848889342e-09
3.02269666191e-09
4.33723459886e-09
5.26122388339e-09
6.02408324135e-09
7.3704099229e-09
1.24133777263e-08
5.52691336695e-08
5.99650059861e-07
1.67064520537e-06
2.51732692066e-06
3.0932436933e-06
3.46029325887e-06
3.74889949149e-06
4.11499491476e-06
6.32122264572e-10
1.8743650137e-10
1.46346065349e-10
2.60423325299e-10
7.49813537857e-10
1.86862117193e-09
3.33258674344e-09
4.73174609834e-09
5.91604587674e-09
6.747317488e-09
7.78410716544e-09
1.29505920382e-08
5.97669121933e-08
6.33346778505e-07
1.71276200726e-06
2.55083759795e-06
3.1162247777e-06
3.47265193041e-06
3.75025150704e-06
4.10576001151e-06
5.18242548338e-10
1.89510434808e-10
1.44815963668e-10
2.91004119492e-10
8.82438999311e-10
2.11472041817e-09
3.62286718432e-09
5.19304201076e-09
6.72598324625e-09
7.38557349919e-09
8.03685781971e-09
1.33093731272e-08
6.42202851396e-08
6.65278953958e-07
1.75154245523e-06
2.58147330996e-06
3.13764952871e-06
3.48522964058e-06
3.7535539684e-06
4.09916662729e-06
4.65172970855e-10
1.96554297403e-10
1.47856334523e-10
3.2455862774e-10
1.01138704507e-09
2.31182844197e-09
3.88650734085e-09
5.71054356311e-09
7.57321088292e-09
7.83315671803e-09
8.15928821112e-09
1.34811143549e-08
6.84377602627e-08
6.94088653991e-07
1.78541744587e-06
2.6082251124e-06
3.15689125466e-06
3.49760365382e-06
3.75870738731e-06
4.09598192469e-06
4.6223301167e-10
1.95632962909e-10
1.52166539788e-10
3.53438238305e-10
1.1028287073e-09
2.44497189993e-09
4.11113772936e-09
6.21577709085e-09
8.2722915285e-09
8.10041037004e-09
8.18639978476e-09
1.347635213e-08
7.22583213786e-08
7.18824205782e-07
1.81348191631e-06
2.63062891695e-06
3.17365778895e-06
3.50944310049e-06
3.76538634568e-06
4.09632951461e-06
5.00455674677e-10
2.03501321011e-10
1.55931201124e-10
3.675338508e-10
1.1399449621e-09
2.51255840645e-09
4.27111816017e-09
6.59521576547e-09
8.71216016989e-09
8.25922817623e-09
8.15027242542e-09
1.33223993364e-08
7.55958990086e-08
7.39157914512e-07
1.835655915e-06
2.64881707593e-06
3.18801471743e-06
3.52056056055e-06
3.77314513337e-06
4.09982409231e-06
5.71073478776e-10
2.21093951516e-10
1.59405008841e-10
3.65812356803e-10
1.1312600278e-09
2.51984828436e-09
4.34015202605e-09
6.77570528502e-09
8.93261670121e-09
8.37585231671e-09
8.07978816161e-09
1.30584751673e-08
7.84604539807e-08
7.55424035596e-07
1.85262569147e-06
2.66342031228e-06
3.20031831139e-06
3.53091734457e-06
3.78152513605e-06
4.10577609568e-06
6.66450418607e-10
2.46353019932e-10
1.62327925177e-10
3.55208337469e-10
1.09686151612e-09
2.48418674044e-09
4.32942834537e-09
6.81167217669e-09
9.04775491298e-09
8.48108448881e-09
7.99678862151e-09
1.27283649526e-08
8.09448365136e-08
7.68447901731e-07
1.86557487133e-06
2.67535267522e-06
3.21108437463e-06
3.54058286553e-06
3.79012599581e-06
4.11339682267e-06
7.76374082422e-10
2.75614288505e-10
1.64020946337e-10
3.34973777846e-10
1.04038288282e-09
2.42089929213e-09
4.27422285448e-09
6.75948297524e-09
9.05947243986e-09
8.56142181375e-09
7.91625797535e-09
1.23726396473e-08
8.31894490813e-08
7.79273001441e-07
1.87584818103e-06
2.68558221558e-06
3.2208548862e-06
3.54968092951e-06
3.79863996086e-06
4.1219536955e-06
8.90150116169e-10
3.04627411971e-10
1.66138127396e-10
3.10771365586e-10
9.68481877654e-10
2.3288468e-09
4.16262366979e-09
6.5773514644e-09
8.92596717301e-09
8.61071297601e-09
7.84737355183e-09
1.20234178913e-08
8.53454833911e-08
7.88920169132e-07
1.88468851758e-06
2.6949668221e-06
3.23010497383e-06
3.55834201772e-06
3.80685061096e-06
4.13084921313e-06
9.99511648899e-10
3.30267836973e-10
1.69533159033e-10
2.89687542206e-10
8.95753193112e-10
2.22420172503e-09
4.02163694337e-09
6.33331337697e-09
8.71201390584e-09
8.63632734506e-09
7.79388179045e-09
1.17025945266e-08
8.75484037444e-08
7.9823503189e-07
1.89308689214e-06
2.70416964247e-06
3.23919558497e-06
3.56667187855e-06
3.8146144338e-06
4.1396443341e-06
1.09847263224e-09
3.50815288372e-10
1.7372533838e-10
2.73432378333e-10
8.30608928561e-10
2.12354721607e-09
3.887310086e-09
6.10023972908e-09
8.47716939604e-09
8.6409371827e-09
7.75566701433e-09
1.14226835955e-08
8.99040706347e-08
8.07823322932e-07
1.90173121063e-06
2.71363793467e-06
3.24836252943e-06
3.57473399267e-06
3.82183148237e-06
4.14803804344e-06
1.18328804008e-09
3.65830193964e-10
1.78065070776e-10
2.61133945157e-10
7.74653819433e-10
2.03241404396e-09
3.76966131724e-09
5.89491760406e-09
8.23782249363e-09
8.62230392775e-09
7.73070209118e-09
1.11890035776e-08
9.24856827786e-08
8.18054121647e-07
1.91102661517e-06
2.72362613476e-06
3.25773091862e-06
3.58254742591e-06
3.82842035535e-06
4.15582636352e-06
1.25318927389e-09
3.76356077573e-10
1.82167699754e-10
2.51805353301e-10
7.27221840891e-10
1.95074184602e-09
3.66691534661e-09
5.71450701545e-09
7.99904976855e-09
8.57980327799e-09
7.71643670819e-09
1.10020950901e-08
9.5337916464e-08
8.29105419044e-07
1.92115873603e-06
2.73424168707e-06
3.26733925324e-06
3.59008455918e-06
3.8342851672e-06
4.1628403522e-06
1.31004932759e-09
3.83925814926e-10
1.85904283766e-10
2.44721834084e-10
6.87347344808e-10
1.87786787969e-09
3.57723716988e-09
5.55803458607e-09
7.77045927968e-09
8.5177413283e-09
7.71066122579e-09
1.0859705832e-08
9.84840149364e-08
8.4102281007e-07
1.93216331072e-06
2.74547389312e-06
3.2770893826e-06
3.5970494607e-06
3.83874609339e-06
4.16790440895e-06
1.35668068182e-09
3.89581676947e-10
1.89288220235e-10
2.39310658763e-10
)
;

boundaryField
{
    emptyPatch
    {
        type            empty;
    }
    minY
    {
        type            zeroGradient;
    }
    maxY
    {
        type            calculated;
        value           nonuniform List<scalar> 0();
    }
    water_to_cooler
    {
        type            compressible::alphatWallBoilingWallFunction;
        phaseType       vapor;
        relax           constant 1;
        partitioningModel
        {
            type            Lavieville;
            alphaCrit       0.2;
        }
        otherPhase      liquid;
        dmdt            uniform 0;
        dDep            uniform 1e-05;
        qQuenching      uniform 0;
        alphatConv      uniform 0;
        value           uniform 3.01273722487e-05;
    }
    water_to_heater
    {
        type            compressible::alphatWallBoilingWallFunction;
        phaseType       vapor;
        relax           constant 1;
        partitioningModel
        {
            type            Lavieville;
            alphaCrit       0.2;
        }
        otherPhase      liquid;
        dmdt            uniform 0;
        dDep            uniform 1e-05;
        qQuenching      uniform 0;
        alphatConv      uniform 0;
        value           nonuniform List<scalar> 
60
(
5.54147756895e-06
5.54147756895e-06
5.55526076301e-06
5.55526076301e-06
5.53951831839e-06
5.53951831839e-06
5.54281128864e-06
5.40991278194e-06
4.4743273619e-06
4.4743273619e-06
1.78625755747e-06
1.78625755747e-06
3.71701651558e-07
3.71701651558e-07
4.54201548533e-08
9.81471065821e-09
1.62804724553e-08
1.62804724553e-08
1.95194021414e-07
1.95194021414e-07
1.94004726161e-06
1.94004726161e-06
3.82169561684e-06
4.1588304041e-06
4.16179143416e-06
4.16179143416e-06
4.03017378287e-06
4.03017378287e-06
3.55306966758e-06
3.55306966758e-06
2.87293006136e-06
2.2353965412e-06
1.63242035552e-06
1.63242035552e-06
1.09160910394e-06
1.09160910394e-06
6.19810393163e-07
6.19810393163e-07
3.32590461127e-07
2.36018805162e-07
2.33101180336e-07
2.33101180336e-07
2.36018805162e-07
2.36018805162e-07
2.28216659452e-07
2.28216659452e-07
2.36018805162e-07
2.23800864689e-07
2.36018805162e-07
2.36018805162e-07
2.22713002152e-07
2.22713002152e-07
2.36018805162e-07
2.36018805162e-07
2.22091584496e-07
2.36018805162e-07
2.22929862831e-07
2.22929862831e-07
2.36018805162e-07