/*--------------------------------*- C++ -*----------------------------------*\
| =========                 |                                                 |
| \\      /  F ield         | OpenFOAM: The Open Source CFD Toolbox           |
|  \\    /   O peration     | Version:  2312                                  |
|   \\  /    A nd           | Website:  www.openfoam.com                      |
|    \\/     M anipulation  |                                                 |
\*---------------------------------------------------------------------------*/
FoamFile
{
    version     2.0;
    format      ascii;
    arch        "LSB;label=32;scalar=64";
    class       volScalarField;
    location    "0.105/water";
    object      T.gas;
}
// * * * * * * * * * * * * * * * * * * * * * * * * * * * * * * * * * * * * * //

dimensions      [0 0 0 1 0 0 0];

internalField   nonuniform List<scalar> 
1497
(
300.471212423
300.37563224
300.307026801
300.247583485
300.193798199
300.145846501
300.104249843
300.068745734
300.037350202
300.015233031
300.004369419
300.00089718
300.000169683
579.224768183
379.105078423
321.013370962
305.618314413
301.902983422
300.937279242
300.607527709
300.460626014
300.372939434
300.30507956
300.245608906
300.192013922
300.144415077
300.103193633
300.067035357
300.035772786
300.014410323
300.004159696
300.000756737
300.000190906
569.330901374
371.677733214
317.820218888
304.607952092
301.612321175
300.841782265
300.581332632
300.450379497
300.365491635
300.297856541
300.238464843
300.185367925
300.138689056
300.098136255
300.061157251
300.031588167
300.012303181
300.003324617
300.000614468
300.000191693
559.857660535
364.961260022
315.942364636
304.278068151
301.584468946
300.857687271
300.580471929
300.443082768
300.355340084
300.286582837
300.227138185
300.174869798
300.12941707
300.088282594
300.052933919
300.026086155
300.009473994
300.00218218
300.00056231
300.000191214
557.678156989
363.716249274
316.482527918
305.185677965
301.990100743
300.979406203
300.607666621
300.440860812
300.343794408
300.272194761
300.212549016
300.161328326
300.115805534
300.075494233
300.043253187
300.019997625
300.006613653
300.001453122
300.000491284
300.000181529
557.948482413
365.802314036
321.169836916
307.268970484
302.710369879
301.189146485
300.6568323
300.44239164
300.330916983
300.255239894
300.195306
300.14371907
300.098341598
300.061495279
300.03334274
300.014319059
300.003930382
300.001227841
300.000453167
300.000165914
536.798234519
373.957260834
325.436378862
309.104123521
303.368148683
301.388585823
300.703337851
300.441445529
300.315323576
300.235447307
300.17345268
300.121499191
300.079764651
300.047435387
300.024175635
300.009043481
300.003080171
300.001060004
300.000422004
300.000148567
485.168821426
368.27186868
325.28115278
309.48258488
303.597812785
301.472841492
300.718742872
300.430147596
300.293789224
300.209262854
300.146463453
300.098041179
300.06108944
300.034068337
300.016595216
300.006993414
300.002658413
300.001044961
300.000414941
300.000137109
437.681429875
356.856763723
322.57938909
308.805125697
303.415012264
301.414492445
300.686149316
300.399497551
300.261410158
300.177720496
300.117496161
300.07430734
300.044484783
300.025057978
300.012995359
300.006014566
300.002647315
300.001160667
300.000442368
300.000139553
404.310053175
345.136901485
318.599407603
307.401651603
302.886541046
301.1992672
300.586755103
300.341775658
300.218416067
300.141182232
300.090080142
300.057357207
300.035570685
300.021041583
300.011774408
300.006183465
300.003070426
300.001373405
300.000500433
300.000151104
385.194472277
337.504952094
315.885835383
306.311398854
302.359570434
300.924781445
300.451471901
300.272370929
300.177078193
300.116436023
300.077492816
300.051555854
300.033545279
300.021057802
300.012642868
300.007144316
300.00369708
300.001625784
300.000567849
300.000164594
383.301780961
338.02903771
317.117050083
306.923477892
302.353071855
300.759394742
300.384016533
300.252340705
300.172183267
300.118143976
300.081185338
300.055402697
300.036983942
300.023815783
300.014670212
300.008470935
300.004387348
300.001873591
300.000631567
300.000175946
408.294437627
353.655337268
324.671584697
309.710184482
303.108232674
300.896980206
300.444180194
300.293143058
300.203867016
300.14210614
300.098324407
300.067144962
300.044714451
300.028604076
300.017466445
300.010016316
300.005100415
300.002109895
300.000685782
300.000183268
467.35256619
371.598088688
329.811719285
311.460568395
303.920749004
301.306983575
300.60245131
300.382166531
300.268527727
300.188714184
300.128981336
300.086498244
300.05662722
300.035433693
300.02103699
300.011773222
300.005843485
300.002337978
300.000729747
300.000186371
515.940598837
381.374750795
332.049214189
312.418753201
304.609548377
301.760450606
300.829346213
300.501818741
300.347346953
300.247616457
300.170232904
300.111479401
300.071929386
300.043888883
300.025305786
300.013734809
300.006624745
300.002560808
300.000766377
300.000186984
533.151181269
386.781539615
333.887557499
313.459913002
305.343700139
302.220941062
301.068351672
300.623416295
300.418329678
300.296080099
300.20716019
300.138883437
300.088933056
300.052685666
300.029695312
300.01571813
300.007410596
300.002784191
300.00080768
300.000191275
537.669224847
389.11410349
335.194442722
314.464329646
306.049782654
302.64325743
301.285404703
300.728634411
300.472623375
300.328558449
300.229378341
300.154891403
300.1004389
300.060424408
300.033665208
300.017539813
300.008184092
300.003065899
300.00088488
300.00020238
534.60004614
389.058211783
335.651940673
315.131856836
306.630207319
302.995533327
301.463053694
300.808501075
300.507458236
300.345033446
300.238590118
300.160855505
300.104547909
300.06395226
300.036136905
300.018956414
300.008848121
300.003299851
300.000933746
300.000204604
522.542278617
386.729107374
335.076649943
315.15272433
306.903044043
303.215556842
301.577117645
300.854339679
300.52102627
300.34655361
300.236599152
300.158736892
300.103020675
300.063589205
300.036376813
300.019243153
300.008984571
300.003307512
300.000909758
300.000191386
505.651342673
382.317588206
333.387734289
314.382171365
306.683239622
303.208670689
301.591281753
300.853779722
300.511062766
300.33437181
300.225698673
300.150725812
300.097490419
300.060726882
300.035045118
300.018636425
300.0086322
300.003095723
300.0008178
300.000164526
487.689361726
376.147454812
330.571441108
312.851805808
305.922922051
302.909760739
301.475854216
300.799715012
300.478889766
300.312193298
300.210136828
300.140528728
300.091139981
300.056737082
300.032896222
300.017497499
300.007942546
300.002731256
300.000683717
300.000130714
469.004122729
368.330824912
326.704376614
310.70918851
304.714850329
302.336178026
301.230943415
300.692758975
300.426484688
300.281824982
300.190940888
300.128140079
300.084000665
300.05233677
300.030447346
300.016104221
300.007055511
300.00228689
300.000536945
300.00009713
449.622124097
357.561681061
322.38243504
308.22443328
303.274912194
301.669179399
300.938999145
300.565327012
300.366313792
300.248090522
300.170104907
300.115820116
300.076845878
300.048028158
300.028008554
300.014628858
300.006076368
300.001826403
300.000401052
300.000068751
431.658091779
350.766645604
319.296109663
306.102892998
302.129071969
301.100438952
300.678468596
300.447876647
300.310925044
300.218908046
300.152666261
300.106012782
300.070319816
300.04409068
300.025725332
300.013128803
300.005087125
300.001402399
300.000289388
300.000047676
417.880715468
346.944506231
317.804923049
305.685405354
301.506517202
300.787346182
300.510467864
300.363741386
300.268523443
300.194234002
300.138760323
300.096850949
300.064440904
300.040624537
300.023643335
300.01156552
300.004152024
300.001044698
300.000207118
300.000033102
410.307314005
344.208984818
316.916378984
305.875487914
301.307990256
300.617582805
300.409385809
300.308072776
300.237576218
300.175620169
300.127663012
300.089442082
300.05973147
300.037845551
300.021796656
300.010028141
300.003303429
300.000760173
300.0001497
300.0000233
407.673504551
343.06998496
316.563191095
305.982086543
301.505279377
300.570238277
300.360932307
300.276248744
300.217859201
300.163439498
300.120032564
300.084227633
300.056432669
300.035776451
300.020032696
300.008656332
300.002568431
300.000560842
300.000115348
300.000016956
406.540113233
342.069781853
316.06748699
305.895476893
302.012133171
300.782193082
300.366709711
300.2642717
300.207449324
300.157043331
300.115755107
300.081160783
300.054405921
300.034183618
300.018382665
300.007403699
300.001931834
300.000432976
300.000096066
300.000013649
405.874595176
341.871444088
316.03708798
305.899002472
302.337676159
300.998082161
300.455916321
300.273751371
300.204967281
300.155632274
300.114313652
300.079943538
300.053374783
300.032856671
300.017016429
300.006256667
300.001514913
300.00034725
300.000086818
300.000013338
405.571586187
341.921688929
316.296444148
306.021784266
302.541098397
301.163751324
300.553272233
300.306611425
300.211790334
300.157649904
300.114930013
300.080050403
300.053055552
300.032062185
300.016028385
300.005335002
300.001248305
300.000302547
300.000085114
300.000015122
405.388933818
342.193776373
316.580409794
306.212243699
302.676575013
301.281302397
300.630713915
300.343255321
300.223175751
300.16118838
300.116368879
300.080788975
300.053196885
300.031756906
300.015385541
300.004742249
300.001108349
300.000286907
300.00008761
300.000017761
405.480326505
342.25424097
316.78377109
306.350806857
302.741704889
301.333453685
300.675936646
300.370767098
300.234497996
300.165048632
300.117949442
300.08170686
300.053648003
300.031806174
300.014883818
300.004398654
300.001046325
300.000283997
300.000091633
300.000020509
405.45277401
342.076223532
316.586098206
306.353333776
302.72838604
301.332040997
300.687586426
300.383605717
300.242008578
300.168250408
300.119455833
300.082702981
300.054263005
300.032007968
300.014474369
300.004206391
300.001014174
300.000288177
300.000095927
300.000023092
405.545892988
342.035163125
316.621753374
306.37145579
302.699055988
301.29960267
300.675348885
300.383527299
300.244699553
300.170166921
300.120692928
300.083648769
300.054877018
300.032197827
300.014034534
300.004072694
300.00101128
300.000294307
300.000100054
300.000025407
405.585952211
342.297730294
316.736496824
306.47367347
302.668658846
301.25326978
300.652380627
300.376643791
300.244327088
300.17107165
300.12161607
300.084465507
300.055392636
300.032228864
300.013670771
300.00399576
300.001010423
300.00030189
300.000103631
300.000027363
405.847279393
342.497105472
316.991198713
306.593650833
302.639552842
301.204927004
300.628957848
300.368765093
300.243228853
300.171705953
300.122483244
300.085282397
300.055866346
300.032231295
300.01338109
300.003917369
300.001019105
300.000307703
300.000106479
300.000028918
406.039696411
342.710754961
317.068715841
306.610121712
302.509470508
301.133023253
300.607461211
300.362652348
300.242927616
300.172797647
300.123692698
300.086333872
300.05649306
300.032373861
300.013237974
300.003899033
300.001024155
300.000313998
300.000108751
300.000030146
407.608768873
343.813357479
317.09262496
305.818443538
302.136621003
301.00275807
300.579512842
300.358760212
300.244525108
300.17501899
300.125652604
300.087869405
300.057494415
300.032870681
300.013347531
300.00392792
300.001047817
300.000320685
300.000110902
300.000031174
300.000037061
300.000005441
300
300
300
300
300
300
300
300
300
300
300
300
300
300
300
300
300
300
300.000046127
300.000007291
300
300
300
300
300
300
300
300
300
300
300
300
300
300
300
300
300
300
300.000052057
300.000007258
300
300
300
300
300
300
300
300
300
300
300
300
300
300
300
300
300
300
300.00005246
300.000005282
300
300
300
300
300
300
300
300
300
300
300
300
300
300
300
300
300
300
300.000047432
300.000002676
300
300
300
300
300
300
300
300
300
300
300
300
300
300
300
300
300
300
300.00003954
300.000000577
300
300
300
300
300
300
300
300
300
300
300
300
300
300
300
300
300
300
300.000032858
300
300
300
300
300
300
300
300
300
300
300
300
300
300
300
300
300
300
300
300.000029576
300
300
300
300
300
300
300
300
300
300
300
300
300
300
300
300
300
300
300
300.000030879
300
300
300
300
300
300
300
300
300
300
300
300
300
300
300
300
300
300
300
300.000033549
300.000000358
300
300
300
300
300
300
300
300
300
300
300
300
300
300
300
300
300
300
300.000036455
300.000001183
300
300
300
300
300
300
300
300
300
300
300
300
300
300
300
300
300
300
300.000038512
300.000001753
300
300
300
300
300
300
300
300
300
300
300
300
300
300
300
300
300
300
300.000039084
300.000001909
300.000000045
300
300
300
300
300
300
300
300
300
300
300
300
300
300
300
300
300
300.000037995
300.000001718
300
300
300
300
300
300
300
300
300
300
300
300
300
300
300
300
300
300
300.000035708
300.000001294
300
300
300
300
300
300
300
300
300
300
300
300
300
300
300
300
300
300
300.00003435
300.000000962
300
300
300
300
300
300
300
300
300
300
300
300
300
300
300
300
300
300
300.000034575
300.000001556
300
300
300
300
300
300
300
300
300
300
300
300
300
300
300
300
300
300
300.000033343
300.000002192
300
300
300
300
300
300
300
300
300
300
300
300
300
300
300
300
300
300
300.000029814
300.000002305
300
300
300
300
300
300
300
300
300
300
300
300
300
300
300
300
300
300
300.000024605
300.000001924
300
300
300
300
300
300
300
300
300
300
300
300
300
300
300
300
300
300
300.00001902
300.000001275
300
300
300
300
300
300
300
300
300
300
300
300
300
300
300
300
300
300
300.000014032
300.000000558
300
300
300
300
300
300
300
300
300
300
300
300
300
300
300
300
300
300
300.000009701
300.000000013
300
300
300
300
300
300
300
300
300
300
300
300
300
300
300
300
300
300
300.000006308
300
300
300
300
300
300
300
300
300
300
300
300
300
300
300
300
300
300
300
300.000003846
300
300
300
300
300
300
300
300
300
300
300
300
300
300
300
300
300
300
300
300.000002146
300
300
300
300
300
300
300
300
300
300
300
300
300
300
300
300
300
300
300
300.000001065
300
300
300
300
300
300
300
300
300
300
300
300
300
300
300
300
300
300
300
300.000000625
300
300
300
300
300
300
300
300
300
300
300
300
300
300
300
300
300
300
300
300.000000621
300
300
300
300
300
300
300
300
300
300
300
300
300
300
300
300
300
300
300
300.000000874
300
300
300
300
300
300
300
300
300
300
300
300
300
300
300
300
300
300
300
300.000001231
300
300
300
300
300
300
300
300
300
300
300
300
300
300
300
300
300
300
300
300.000001594
300
300
300
300
300
300
300
300
300
300
300
300
300
300
300
300
300
300
300
300.000001944
300
300
300
300
300
300
300
300
300
300
300
300
300
300
300
300
300
300
300
300.000002282
300
300
300
300
300
300
300
300
300
300
300
300
300
300
300
300
300
300
300
300.000002587
300
300
300
300
300
300
300
300
300
300
300
300
300
300
300
300
300
300
300
300.000002847
300
300
300
300
300
300
300
300
300
300
300
300
300
300
300
300
300
300
300
300.000003071
300
300
300
300
300
300
300
300
300
300
300
300
300
300
300
300
300
300
300
300.000003287
300
300
300
)
;

boundaryField
{
    emptyPatch
    {
        type            empty;
    }
    minY
    {
        type            fixedValue;
        value           nonuniform List<scalar> 0();
    }
    maxY
    {
        type            inletOutlet;
        inletValue      nonuniform List<scalar> 0();
        value           nonuniform List<scalar> 0();
    }
    water_to_cooler
    {
        type            copiedFixedValue;
        sourceFieldName T.liquid;
        value           nonuniform List<scalar> 
37
(
300
300
300
300
300
300
300
300
300
300
300
300
300
300
300
300
300
300
300
300
300
300
300
300
300
300
300
300
300
300
300
300
300
300
300
300
300
)
;
    }
    water_to_heater
    {
        type            copiedFixedValue;
        sourceFieldName T.liquid;
        value           nonuniform List<scalar> 
60
(
797.819830179
797.808836548
797.804150145
797.793093283
797.78732039
797.769437054
797.768411915
797.719963315
797.676880882
797.638270139
797.542455238
797.533868945
797.493967042
797.501781495
797.501471054
797.515922298
797.512227065
797.5181111
797.509341052
797.517291653
797.561404487
797.555083444
797.623571805
797.611349375
797.613433513
797.58043723
797.575008475
797.540680837
797.521274288
797.489993989
797.464061174
797.413063331
797.392288284
797.37686951
797.359589183
797.350848343
797.338159379
797.334646885
797.328826297
797.326426811
797.325897303
797.325729676
797.325474707
797.325788826
797.325707501
797.326702751
797.326585119
797.328178554
797.328106793
797.329445011
797.329541209
797.330843317
797.330763087
797.332660667
797.332776488
797.335638079
797.335777653
797.341744041
797.341974132
797.352135465
)
;
    }
    procBoundary1to0
    {
        type            processor;
        value           nonuniform List<scalar> 
41
(
426.154038844
348.485594065
315.24749589
304.415871162
301.791365227
300.888290947
300.545899417
300.35728857
300.248619488
300.17882959
300.128658806
300.090101676
300.059003457
300.033761528
300.013768191
300.004079391
300.001084465
300.000331658
300.00011338
300.000032143
300
300
300
300
300
300
300
300
300
300
300
300
300
300
300
300
300.000003515
300
300
300
300
)
;
    }
    procBoundary1to3
    {
        type            processor;
        value           nonuniform List<scalar> 
41
(
300.485872458
300.371270107
300.301694215
300.242872345
300.189429296
300.14190971
300.100899513
300.066194545
300.035958784
300.014375614
300.003989251
300.000808492
300.000133946
586.760959031
385.711336747
324.391050609
307.007166587
302.400928353
301.102439197
300.663132273
300.663132273
300.000024645
300.000003089
300
300
300
300
300
300
300
300
300
300
300
300
300
300
300
300
300
300
)
;
    }
}


// ************************************************************************* //
