/*--------------------------------*- C++ -*----------------------------------*\
| =========                 |                                                 |
| \\      /  F ield         | OpenFOAM: The Open Source CFD Toolbox           |
|  \\    /   O peration     | Version:  2312                                  |
|   \\  /    A nd           | Website:  www.openfoam.com                      |
|    \\/     M anipulation  |                                                 |
\*---------------------------------------------------------------------------*/
FoamFile
{
    version     2.0;
    format      ascii;
    arch        "LSB;label=32;scalar=64";
    class       volScalarField;
    location    "0.37/water";
    object      alpha.gas_0;
}
// * * * * * * * * * * * * * * * * * * * * * * * * * * * * * * * * * * * * * //

dimensions      [0 0 0 0 0 0 0];

internalField   nonuniform List<scalar> 
750
(
0.774257648426
0.717921766344
0.773846018685
0.888882134181
0.957143199705
0.969392453584
0.969443335609
0.969415369973
0.969452912995
0.969415369973
0.0324067335835
0.0280476554023
0.0396451554593
0.62821720952
0.839970688725
0.839553811145
0.839908711846
0.839508812716
0.839612435251
0.839465360403
0.824940613868
0.765730148121
0.701564472753
0.702241033019
0.763273413358
0.77894238575
0.77879953114
0.778784547366
0.778665987132
0.77868335939
0.216246485421
0.0280828971053
0.0507562708744
0.6834066634
0.839529932271
0.839927154137
0.839525001182
0.839755512475
0.839480841341
0.838045054113
0.792446934109
0.669144382194
0.594066902472
0.653315430694
0.766468159167
0.77879953114
0.778875773582
0.778665987132
0.778770579155
0.778589739654
0.499895061058
0.0725344893153
0.0820361742443
0.684539945193
0.839927154137
0.839540084423
0.839858314693
0.839480919449
0.839607167458
0.835986702863
0.749628295804
0.547307752546
0.469941425083
0.557274460255
0.738103049039
0.778875773582
0.778662769879
0.778873228949
0.778571413772
0.778635681709
0.472824394721
0.127560852949
0.0808992593298
0.608157193473
0.839488152944
0.839926535657
0.839480919449
0.839680120939
0.839456471158
0.835976635803
0.714503133398
0.426835913708
0.325812141347
0.373685530855
0.581839350264
0.77470882401
0.77894639163
0.778585662454
0.77867636879
0.778620081361
0.339541001802
0.119338255987
0.0603045946068
0.424907206135
0.839688141045
0.839480919449
0.839794405778
0.839456471158
0.839505196634
0.835396295248
0.67355372018
0.301961955612
0.176010790944
0.182916184359
0.28143376147
0.602915325444
0.778591660173
0.778680389125
0.778527173729
0.778641286383
0.396911477179
0.117909806994
0.0470608947098
0.185401703581
0.733345362006
0.839838128907
0.839456471158
0.839518739556
0.839394883748
0.811085430613
0.559690789549
0.181645522149
0.0970158637735
0.0980577263651
0.112807465618
0.252257641766
0.611589125322
0.778543093634
0.7786468181
0.778478827889
0.62249685144
0.146666547288
0.0469668480969
0.0445428026915
0.295223583724
0.749909355924
0.839755835421
0.839394883748
0.819399679326
0.688483126846
0.331612181599
0.0967696488603
0.0968428398824
0.0966428839364
0.0969110256084
0.104299750396
0.26140454654
0.604288908636
0.761079484821
0.778486475964
0.615445695726
0.143656024808
0.049385779973
0.0150046634011
0.0314804741838
0.247815832871
0.818673705398
0.829332181319
0.741104771475
0.461277678404
0.152887610345
0.0967727046011
0.0966279737484
0.0968428398824
0.0965560836128
0.0969110256084
0.123675474202
0.284182368013
0.502341036436
0.778417577861
0.405203562339
0.0865574730016
0.0389316183057
0.0115697805973
0.00701790083914
0.0183516723145
0.715615735047
0.813458574497
0.642878967746
0.390818641294
0.156040548034
0.0967237803507
0.0968428398824
0.0978818862503
0.104710088209
0.109973704562
0.1159029996
0.135307454126
0.151634126696
0.530459250144
0.111855893785
0.0187788579941
0.0133766239182
0.00703343777912
0.0070283710085
0.0504279400551
0.757580682172
0.808157861285
0.648084742552
0.458404618255
0.303495917735
0.242862273028
0.204504371426
0.131633229941
0.101095407468
0.0923768443741
0.0851448525645
0.0857014867026
0.0799177363742
0.208022364162
0.0694451978605
0.00702938558384
0.00702935647784
0.00702938558384
0.113531836028
0.63976519893
0.851967595413
0.82642864326
0.744803217642
0.647126435172
0.527076434083
0.454984469431
0.38943813592
0.238254606343
0.11011976567
0.079855970763
0.0798100468323
0.0798958989972
0.0798494902515
0.0958231070144
0.164971207982
0.0117344851388
0.0289788868735
0.285364900842
0.737239110402
0.909577680134
0.915108867867
0.890457594848
0.888908552288
0.873741146547
0.780155804453
0.543631770907
0.388836254135
0.346376963421
0.278544050338
0.181429284179
0.0893001716492
0.0798435001806
0.0799177363742
0.0799287972614
0.393480679348
0.145316171749
0.393548422004
0.821879416972
0.950282584953
0.963479876967
0.954370671501
0.951110833832
0.959125260375
0.953577038147
0.908419660535
0.631759386921
0.347497783869
0.334919197539
0.345800395498
0.345629853119
0.286763215389
0.17689662333
0.0855851378649
0.079957356985
0.685074185822
0.584765530948
0.837154082418
0.959582172452
0.969415369973
0.969438622121
0.969376975181
0.969322449221
0.968733164042
0.957970945123
0.909840245946
0.636713176943
0.305614128785
0.279829535193
0.335780628945
0.379379433876
0.388097775743
0.342519765115
0.251459708311
0.108483818234
0.901093215532
0.903716084934
0.956738565509
0.969414640862
0.969452209154
0.969415369973
0.969441918931
0.969415369973
0.963639055309
0.937598462149
0.850389906669
0.561844078473
0.258416002301
0.222615335404
0.293611118576
0.364111617593
0.405717571591
0.416242057873
0.443423235524
0.260682134797
0.965078971053
0.967267914726
0.969415369973
0.969462095591
0.969415369973
0.969447681684
0.968867787617
0.959988804675
0.930327383463
0.85580385341
0.69477985701
0.423754835428
0.200171691422
0.164623339865
0.234812819732
0.325463802094
0.406739764929
0.473239359225
0.607453620647
0.516948161068
0.969459316819
0.969415369973
0.969476526815
0.969415369973
0.969450575295
0.967176310953
0.951786220568
0.909618510475
0.819829202544
0.666876041786
0.46511676518
0.254331268757
0.115045624332
0.115576987664
0.193536421126
0.325519834328
0.462290620769
0.600825002964
0.797730616126
0.78618348581
0.969415369973
0.969483973427
0.969415369973
0.969450089172
0.965375084061
0.941178579992
0.875618391752
0.754182591565
0.576495986782
0.386620061535
0.212601123023
0.0887255864741
0.0737877023703
0.102450317625
0.261926110595
0.494643188155
0.69887647774
0.829374350638
0.924930218431
0.9088369576
0.969483697642
0.969415369973
0.969449851607
0.964700304839
0.93381147642
0.839676754465
0.663293326781
0.45511463979
0.265023382535
0.123484130126
0.0459434363893
0.0415477794282
0.0698363223831
0.306232871816
0.633654653729
0.824957923561
0.906856874143
0.937252714625
0.953208454963
0.943010702229
0.969415369973
0.969464822882
0.967186862708
0.936218982989
0.828779238497
0.585726598818
0.325406711125
0.144843926508
0.0491969281505
0.0135420381549
0.0130692333654
0.0815063815356
0.440028318441
0.781927502508
0.908222808336
0.942611557422
0.95180469227
0.954262022321
0.955418424949
0.954561804612
0.969469401702
0.969415369973
0.952448895639
0.864271058371
0.599315427067
0.243060582767
0.0628399748394
0.0124371540357
0.00186701099521
0.00212951123714
0.0669015032848
0.518410275114
0.866351129698
0.941312742363
0.952871332942
0.955122862223
0.955401493224
0.955416260058
0.955404631003
0.955426137488
0.969415369973
0.969421789848
0.920821468487
0.76806610779
0.315998153032
0.0416161991048
0.0023675320214
0.000250821792841
0.000249789999176
0.0114360735532
0.362535885382
0.864697400753
0.949541491543
0.955005524213
0.955403124783
0.955401493224
0.955415740445
0.955403465364
0.955424503856
0.955406897649
0.969434976017
0.969415369973
0.896727772798
0.703765330198
0.159521876008
0.00466325743598
0.000167661185176
0.000167421354981
0.000350951096934
0.0479983622353
0.56866616849
0.913393607381
0.952240887664
0.955400966722
0.955401493224
0.955409483264
0.955403772789
0.955418957882
0.955406081052
0.955424113817
0.969415369973
0.968352145919
0.907621624415
0.709360900896
0.133533318067
0.00238099606806
0.000167421354981
0.000167415328047
0.000588431262352
0.0924553525232
0.569613386088
0.876612854674
0.9353901325
0.949840851581
0.954377593046
0.955401493224
0.955409172941
0.955403772789
0.955422334638
0.955406081052
0.96700471816
0.964870877363
0.932892818913
0.781854341053
0.211504381377
0.00854142678083
0.000213188166064
0.000167421354981
0.00259762329458
0.0979719157695
0.479310016727
0.739150444392
0.858336705723
0.909345389672
0.934139814974
0.946548700124
0.952545465397
0.955370156014
0.955403772789
0.955412670561
0.956985254073
0.957380409012
0.947920293538
0.873158091726
0.539985604408
0.0877810325989
0.00392967182054
0.000330971394674
0.00304916641887
0.0682398293465
0.314760765033
0.567953501696
0.709020974633
0.797542381261
0.850758705641
0.891268978039
0.919316762902
0.939193106983
0.951067297825
0.955320638255
0.937367030163
0.947258662314
0.94799064686
0.928674492359
0.82527404607
0.38502751176
0.0545579310008
0.00273600311511
0.00212379097551
0.0334983481922
0.179650706094
0.409508546128
0.577735281334
0.662827319996
0.712573274323
0.762164368029
0.810300330339
0.862177211119
0.917980939887
0.938185497308
0.910200118143
0.940277541422
0.948105384881
0.944226939879
0.90379143155
0.67863431719
0.197810813126
0.0136184723816
0.00211506060717
0.0170004847995
0.109318713755
0.303200137349
0.499778578187
0.605380823863
0.64153475905
0.655271701084
0.680120157743
0.726626916191
0.826551875806
0.82859638375
0.872171536977
0.940218575988
0.948009186129
0.946111339062
0.910857395728
0.760807066608
0.284016329549
0.0216637616535
0.00222723247528
0.0200209712705
0.115176180019
0.307593204276
0.504409793647
0.608784739617
0.644288765249
0.654256473144
0.657614475071
0.657702491277
0.689486503675
0.559720195925
0.811363018926
0.948028344262
0.948094220741
0.943900524447
0.902610603862
0.755954396014
0.275694005593
0.0200270902156
0.00294821205355
0.0274945338053
0.132814575181
0.329502094494
0.521192473438
0.623941854766
0.670822746724
0.682918881557
0.681858984878
0.661488295097
0.525797440414
0.248272178464
0.762152977182
0.948080097597
0.948009186129
0.935467625508
0.874827966209
0.702527790623
0.212649071973
0.0131889759674
0.00495248083706
0.0452594087475
0.172144653732
0.377205612796
0.560630051375
0.664569222644
0.693006500377
0.692838973387
0.693113454452
0.638731459038
0.323179513
0.241142721536
0.619932542141
0.948009186129
0.9480390177
0.922374189543
0.839568579706
0.581091021596
0.123988477512
0.00828421764272
0.0104306899867
0.073789324396
0.222576084867
0.430472633749
0.601021365589
0.692909476635
0.692838973387
0.693391221354
0.692838973387
0.487182017909
0.241022514347
0.24035977904
0.539758200419
0.948058211445
0.947252884777
0.909244196649
0.821767780846
0.473501017868
0.0676290477555
0.00826829235008
0.0245511651313
0.111223568749
0.275801199472
0.473094179216
0.618833944719
0.692838973387
0.69319273021
0.692838973387
0.660581129433
0.283240623364
0.239693798006
0.240474161166
0.397741964903
0.944240186404
0.92964888907
0.896783602117
0.820677076037
0.523662068528
0.0938987749084
0.0126009916944
0.047789828357
0.155794838227
0.327586798032
0.499790496487
0.619511612921
0.692848382869
0.692838973387
0.693181063593
0.569553043967
0.239246381691
0.240408821058
0.239747589268
0.430539247131
0.869231174555
0.880702306555
0.86984246166
0.815308435874
0.642131535542
0.242935745
0.0414549422947
0.0614554797549
0.172171692827
0.337250383933
0.490573885147
0.599983672805
0.67098309324
0.692161599881
0.692838973387
0.503246396391
0.24035512967
0.239130804592
0.239907857841
0.624259857031
0.726512815875
0.776671531395
0.789176132258
0.771289901193
0.681595278899
0.469378423993
0.173625445808
0.0829384647329
0.15978254248
0.310701317631
0.461336058667
0.568667020488
0.635175924468
0.670265196395
0.679508342949
0.571493649296
0.240957034602
0.240228621581
0.23972659641
0.754884839515
0.650604126008
0.626714910807
0.651320479824
0.675570300642
0.618083838929
0.431788436427
0.201573534866
0.169621930417
0.240862202734
0.369875593642
0.490122474162
0.576178360499
0.628374740119
0.654173517038
0.659632208335
0.640209937272
0.364940079884
0.239661921596
0.240125374508
)
;

boundaryField
{
    emptyPatch
    {
        type            empty;
    }
    minY
    {
        type            fixedValue;
        value           nonuniform List<scalar> 0();
    }
    maxY
    {
        type            inletOutlet;
        phi             phi.gas;
        inletValue      uniform 1;
        value           nonuniform List<scalar> 
20
(
0.754884839515
0.650604126008
0.626714910807
0.651320479824
0.675570300642
0.618083838929
0.431788436427
0.201573534866
0.169621930417
0.240862202734
0.369875593642
0.490122474162
0.576178360499
0.628374740119
0.654173517038
0.659632208335
0.640209937272
0.364940079884
0.239661921596
0.240125374508
)
;
    }
    maxX
    {
        type            zeroGradient;
    }
    water_to_heater
    {
        type            zeroGradient;
    }
    procBoundary2to1
    {
        type            processor;
        value           nonuniform List<scalar> 
20
(
0.0280480483184
0.0280828971053
0.0665191644565
0.68532183185
0.839553811145
0.839954027598
0.839553811145
0.83975490654
0.839508812716
0.839499132301
0.836542573564
0.815918414238
0.77822084122
0.755084180853
0.762144313932
0.778897732131
0.7789039648
0.77879953114
0.778367184134
0.778555308268
)
;
    }
    procBoundary2to3
    {
        type            processor;
        value           nonuniform List<scalar> 
39
(
0.278038941548
0.633062786165
0.717643516673
0.642736054198
0.432444885149
0.61656957233
0.771310580433
0.796338129789
0.805482479301
0.727344176554
0.757859225921
0.757859225921
0.917776972941
0.843054091143
0.83565850835
0.892928338126
0.952619541085
0.969146421674
0.969415369973
0.969449644335
0.969415369973
0.969442384874
0.969436997419
0.969436997419
0.969415369973
0.969421243278
0.966597105814
0.954810547978
0.929939299571
0.894349918243
0.837781408374
0.544065753311
0.126621904316
0.111523814044
0.111405420912
0.111523800595
0.576185792393
0.723364756113
0.821359552711
)
;
    }
}


// ************************************************************************* //
