/*--------------------------------*- C++ -*----------------------------------*\
| =========                 |                                                 |
| \\      /  F ield         | OpenFOAM: The Open Source CFD Toolbox           |
|  \\    /   O peration     | Version:  2312                                  |
|   \\  /    A nd           | Website:  www.openfoam.com                      |
|    \\/     M anipulation  |                                                 |
\*---------------------------------------------------------------------------*/
FoamFile
{
    version     2.0;
    format      ascii;
    arch        "LSB;label=32;scalar=64";
    class       volScalarField;
    location    "0.475/water";
    object      k.gas;
}
// * * * * * * * * * * * * * * * * * * * * * * * * * * * * * * * * * * * * * //

dimensions      [0 2 -2 0 0 0 0];

internalField   nonuniform List<scalar> 
1503
(
0.0354877971544
0.00825956627508
0.00221223067362
0.000876042275162
0.000981175043832
0.00118047706896
0.00124816912967
0.00126614911633
0.00127132700804
0.00127091415869
0.00126740518164
0.00126234276279
0.00125695288451
0.00125197677752
0.00124776925748
0.00124442305384
0.00124188246851
0.00124002715274
0.00123872537317
0.00123786283601
0.485133010706
0.151030716865
0.041513283313
0.0134173701998
0.00370950802396
0.00169262805675
0.00118177911812
0.00122740155133
0.00127271151365
0.00128140331342
0.00128017083955
0.00127568256932
0.00126963185538
0.00126304169646
0.00125665734467
0.00125097121984
0.00124623544921
0.00124251240802
0.00123974572215
0.00123782673686
0.67703752623
0.254657295192
0.091463040572
0.0310242370802
0.0110481222195
0.00362514435178
0.00162241983582
0.00119106067722
0.00125153585738
0.00128512352647
0.00128989184149
0.00128797565555
0.00128328610669
0.00127706702208
0.00127015210261
0.00126323929136
0.0012568811602
0.00125144186738
0.00124709725205
0.00124387887457
0.828843448895
0.330694771598
0.131441234119
0.0502689076115
0.0212765121776
0.00679936305287
0.00255727364325
0.00133418268592
0.00121708557433
0.00127860809544
0.00129408591016
0.00129537962738
0.00129277377752
0.00128795806866
0.00128175919632
0.00127484011588
0.00126784013856
0.00126132777015
0.00125572578826
0.00125128177787
0.901943621354
0.378388406985
0.159739178144
0.0668690518007
0.0262132375878
0.011805618245
0.0035952569113
0.00160591314114
0.00119532801174
0.00126002199356
0.00129411682785
0.00129909337162
0.00129871721095
0.00129566659449
0.0012907951501
0.00128467131019
0.00127786718965
0.0012709980593
0.00126464201398
0.00125924951909
0.913027879225
0.401601231052
0.17804400026
0.0790350237049
0.0339691336934
0.0132013609634
0.00570333151349
0.00179109033112
0.00115255443263
0.00121918992006
0.00129001602916
0.00130038514807
0.00130185690097
0.00130053602162
0.00129715471223
0.00129218516552
0.00128607869035
0.00127938860386
0.00127273875109
0.00126671702834
0.925876277248
0.414823175678
0.188384273515
0.0867646393235
0.0396433213242
0.0171314730743
0.00645317499857
0.0025067712419
0.00101013040069
0.00110419822418
0.00127576058083
0.00130098731621
0.00130343652203
0.00130352707647
0.00130155450521
0.0012978075532
0.00129260357361
0.00128638761915
0.0012797522783
0.00127335095669
0.952009337735
0.424324250928
0.195160364384
0.0922394054404
0.0439904828388
0.0204355825345
0.00863187275612
0.00332665440444
0.00112891834054
0.000842879022911
0.00121326140297
0.00130166668901
0.00130506415415
0.00130578436566
0.0013049394668
0.00130228461826
0.00129795861178
0.0012922847041
0.00128578674856
0.00127913019053
0.971575678838
0.432552750618
0.200458250829
0.0964444187406
0.0474179691307
0.0232290649574
0.01078073894
0.00433010537007
0.00178162583018
0.00067012282351
0.000990011125938
0.00129134924594
0.00130881979875
0.00130854549237
0.00130824703097
0.00130637558712
0.00130271994884
0.00129746342337
0.00129105197796
0.00128413897698
0.982003086649
0.438627807839
0.204671239627
0.0997408980215
0.0501688533763
0.0255765495862
0.0127586749152
0.00582612913614
0.00218144986692
0.000920879257515
0.000636828968016
0.00119100510614
0.00131510152688
0.00131324514509
0.00131231903023
0.00131069849318
0.00130733913593
0.00130221746566
0.00129570429086
0.00128843842919
0.983133945793
0.441517477514
0.207506359864
0.102210814657
0.0523921244527
0.0275983532678
0.014586919281
0.00732605018029
0.00319423449528
0.0011541046334
0.000573017907856
0.000838480167526
0.00130064424873
0.00132128874714
0.00131782405757
0.00131563668995
0.00131205179489
0.0013066728482
0.00129978832043
0.00129201893803
0.977658250856
0.441191054123
0.208751994144
0.103833210139
0.0541139768803
0.0293090899271
0.0161750988621
0.00871754775107
0.00423926317817
0.00168960785605
0.000794331858555
0.000506207985316
0.0011421985914
0.00133021664232
0.00132512564111
0.00132127218586
0.00131685283226
0.00131078880656
0.0013032500674
0.00129482294177
0.971551265433
0.43955417741
0.208990539522
0.10468430387
0.0552581325335
0.0306221561239
0.0174741712542
0.00988686492269
0.00517300553833
0.002276407226
0.000900176706836
0.000540940305811
0.000747467205088
0.0013146757345
0.00133402191274
0.00132742727455
0.00132157650145
0.00131444351172
0.00130602179779
0.00129683178697
0.974283965751
0.439638436594
0.208788641557
0.104966587162
0.0559883956263
0.0315903905069
0.0184540356434
0.0107577042645
0.00592524014637
0.00280047381325
0.00117447282165
0.000656473728318
0.00047286351226
0.00120470063897
0.00134304600555
0.00133387997457
0.00132608517204
0.00131761567937
0.00130816313404
0.00129817026174
0.985144986405
0.442944770781
0.209581046756
0.105424419131
0.0566157636669
0.0323108453498
0.0191437016669
0.0113802970579
0.00651876694405
0.00326928714988
0.00143716162739
0.000704582977628
0.000461525367458
0.000972984792765
0.00134860710533
0.00134071853441
0.00133047337532
0.00132051022429
0.00130996991023
0.00129916886819
1.00507114082
0.449961149852
0.2124310299
0.106993420001
0.0576496158617
0.0329999258635
0.0196558720097
0.0118601007576
0.00702879388101
0.00375284386459
0.00173160077919
0.000869182179007
0.000586222373537
0.000743041518169
0.00134800220585
0.00134904784426
0.00133522183762
0.00132362387055
0.00131197350048
0.00130033634222
1.02978097042
0.460130037707
0.218148572411
0.110563167695
0.0595636523719
0.0338485568451
0.0200962805864
0.0122943631367
0.00755543704786
0.00433253195241
0.00211188651922
0.00106066183921
0.000702185602403
0.000608932985131
0.00132813605713
0.00136204082766
0.00134145931023
0.00132771795404
0.001314844177
0.00130225557639
1.06007213168
0.478013902129
0.229941264863
0.116957999604
0.0621546922584
0.034602733267
0.0203920268112
0.0126893140305
0.00813647725311
0.00498974500622
0.00258013007943
0.00128766739608
0.000760350481077
0.000598898570409
0.00121067259739
0.00138489160141
0.00135135833843
0.0013337579136
0.00131926094878
0.00130546286464
1.10791805749
0.513264949776
0.24843822293
0.124290171406
0.0641888835197
0.0349823303629
0.0205839061954
0.0131115868728
0.00871444440411
0.00561851972193
0.00307443833828
0.00154229528583
0.000984608790465
0.000791418414714
0.000824107308105
0.00139494116878
0.00136777939873
0.00134268494643
0.00132575604373
0.00131035099714
1.21708795186
0.565036911148
0.267329599786
0.129614210275
0.0656341230401
0.0355709866223
0.0210911716095
0.0135945334025
0.00923185081658
0.00619255692329
0.00353960762535
0.00175513322902
0.00118576048261
0.00084602603596
0.000620154308483
0.00118673855993
0.00138945747724
0.00135499537849
0.00133451910319
0.00131709773576
1.37310628494
0.609204853376
0.280501345758
0.134737892094
0.0683899460945
0.0372497052204
0.022069115083
0.0142157688117
0.00974927972582
0.00672486868613
0.00398624974678
0.00191332418428
0.00128670281016
0.00106170442559
0.000707364260983
0.000635751884057
0.00136953100218
0.00137057645303
0.00134540578549
0.00132565831422
1.43935890103
0.634048235546
0.291945331727
0.141169024456
0.0722122905893
0.0394440288009
0.0232800153069
0.014923332761
0.0102740190955
0.0072355011943
0.00441054197474
0.00207721215552
0.00132019691464
0.00118079185838
0.000866385498023
0.000499546851955
0.00111542551071
0.00138509249013
0.00135796010495
0.00133571696817
1.45967245039
0.64476526772
0.298517421098
0.145735496137
0.0752036654581
0.0412507588815
0.0243051102377
0.0155404514373
0.0107813263501
0.00773093313749
0.00479067148733
0.00222702734819
0.00135283660356
0.00122924928317
0.00101045484754
0.000604354032455
0.000668601642007
0.00137745241629
0.00137129710794
0.00134663651625
1.47407187798
0.650798440042
0.302155974829
0.148405947264
0.0770768216168
0.0424720619955
0.0250530542515
0.0160834837802
0.0113260150002
0.00821528167635
0.00513258441301
0.00237872796298
0.00140063603451
0.00126768732665
0.00109599850924
0.000620919870391
0.000443975957393
0.00131275757298
0.00138407317927
0.0013574791975
1.48396147126
0.655468081212
0.304597625849
0.1497678267
0.0780601571042
0.0432231603545
0.0256413596174
0.0166680670855
0.011914183231
0.00866210179197
0.00546322815385
0.00256521991821
0.00147783659503
0.00133407855475
0.00117612392497
0.000738474869084
0.000417177014498
0.00119398120131
0.00139475472075
0.00136711808836
1.49704785463
0.66106159788
0.307171938515
0.15083467427
0.0787864420078
0.0438553172455
0.0262654462137
0.0173517414635
0.0124950814997
0.0090673823262
0.00579592417889
0.00279810170862
0.00159774939427
0.00144227696482
0.00128366521824
0.000859369092051
0.000483005865824
0.00104998242668
0.0014022911236
0.00137463991729
1.51204545444
0.667922672089
0.310361079335
0.152427327729
0.0797857115803
0.0446413263142
0.0270210721402
0.0180765089694
0.0130075658892
0.00943034826322
0.00612068692191
0.00306054323415
0.00175530060798
0.00158471718486
0.00143309779562
0.00100955466146
0.000620316395212
0.000880280191259
0.00140636224397
0.0013801228409
1.53470886123
0.675316457345
0.313774234866
0.154247788228
0.0809310246181
0.0454997753996
0.0277971505993
0.0186972742032
0.0133989327
0.00972200653281
0.0064014529675
0.00331250165054
0.00191524280906
0.0017162498565
0.00159125619803
0.00120035627433
0.000738207783084
0.000683598174366
0.00140255887547
0.00138476005407
1.56189209558
0.684704341625
0.316996495256
0.155796334106
0.0819443207955
0.0462654934179
0.0284298900413
0.0190993800642
0.0136329457069
0.00990131716149
0.00659737989144
0.00351652330208
0.00203379503118
0.00181951950758
0.00173557208543
0.00141279657386
0.000805756844874
0.000553234635933
0.00137129086628
0.00139021538403
1.58767240925
0.691983208847
0.318909561817
0.156637027478
0.0825866969517
0.046780462771
0.0287716492599
0.0192229772663
0.0136753840267
0.00993456321404
0.00668526302968
0.00364899211874
0.00210722243886
0.00189924644341
0.00184862570487
0.00159939685186
0.00101319804671
0.000580438332449
0.00127241965519
0.0013984014637
1.60006127059
0.692516258234
0.318087468347
0.156618994216
0.0829049169529
0.0469955107754
0.0287440172342
0.0190602504189
0.0135118395116
0.00980677218111
0.00665366237397
0.00370632484371
0.00217285577725
0.00195617530616
0.00192572697087
0.00169802577803
0.00119941009301
0.000744106585581
0.00108016260223
0.00141093620282
1.58917376123
0.681083502372
0.314072223581
0.156297519854
0.0831426231867
0.0468549350519
0.0283138045208
0.0186157264808
0.013138843329
0.00950968241227
0.00646425520656
0.00373623959615
0.00225076681374
0.0019871590784
0.00196704513012
0.00176399529422
0.00135046573699
0.000809084087987
0.000841887750325
0.00142525390083
1.54033593634
0.663163555181
0.312056516177
0.157530295336
0.083432485785
0.0462014124523
0.0274758785929
0.0179181553089
0.0125879416777
0.00905487349244
0.00621187315458
0.00377834753615
0.00231360747791
0.0019820103221
0.00196654782996
0.0018078497946
0.00147470735751
0.000890204657646
0.000675343113058
0.00142494523596
1.45955220121
0.657647837089
0.319072607485
0.161724326132
0.0835608457606
0.045385038992
0.0267392801894
0.0172903851589
0.0120196723126
0.00860094639236
0.00602142364029
0.0038314984337
0.00235023301206
0.00192861966663
0.00191548991148
0.00182850745223
0.00159729836918
0.00108083633497
0.000689852166066
0.0013593981494
1.43266578091
0.683995544633
0.339101303056
0.16739000288
0.0857533830427
0.0462314441758
0.0268153151023
0.0170215801618
0.0116832396051
0.00836889478246
0.00598910067196
0.00393033664837
0.00237574756854
0.00183124221124
0.00181348658034
0.00181642349333
0.00167012888711
0.00126442489123
0.000861763118952
0.00111625678091
1.52088551095
0.742112479487
0.362367751906
0.176961371568
0.0921194648834
0.04995160796
0.0285442714528
0.0176476496702
0.011863930458
0.00846632481349
0.0061517817622
0.00412448851473
0.00243148331806
0.00172006702368
0.00167600758301
0.00175563018832
0.00167613751631
0.00140158006932
0.000855204792607
0.000720404501754
1.71708081383
0.805794460819
0.380396338695
0.192004122226
0.104038984696
0.0576308194884
0.0325535889801
0.0194316860053
0.0126349005567
0.00889733934631
0.00651823281392
0.00446114945518
0.00256528337235
0.00163790492854
0.00153786087466
0.00165845825587
0.00163419882747
0.00143776125647
0.00103908690731
0.00062968620886
1.94338716184
0.853321184009
0.399197648227
0.209225142307
0.120165103186
0.0687915517492
0.0383584543528
0.0221021631607
0.0138608607772
0.00958214583487
0.00704795337602
0.00492876504141
0.00281710900369
0.00162235765699
0.00143506495287
0.00155898004932
0.00157901620783
0.00143795250894
0.00116303383516
0.000728455085011
0.00123736215698
0.00123715001151
0.00123715785801
0.00123734948916
0.00123771486251
0.00123825980505
0.00123899775063
0.00123994106901
0.00124108942503
0.00124241318119
0.00124383119171
0.00124518561514
0.00124622259576
0.00124659592936
0.00124592033212
0.00124398945071
0.00124303948969
0.00129201063098
0.00262342843819
0.0232986400407
0.00123666403602
0.00123613523171
0.00123609551028
0.00123644835215
0.00123714268017
0.00123815058546
0.00123944617513
0.00124098613653
0.00124269156482
0.00124443324188
0.00124602433139
0.0012472222712
0.00124772962332
0.00124715802712
0.00124494096369
0.00124132562295
0.00126048461223
0.0017198519682
0.00713557434218
0.0433779524912
0.00124178183018
0.00124069608819
0.00124041040881
0.00124074633537
0.00124157803464
0.00124280369279
0.00124431603881
0.00124598071066
0.00124762444414
0.00124903413745
0.00124996208073
0.00125012026862
0.00124912662989
0.0012463520082
0.00124089704059
0.00123702922509
0.00133261032314
0.00268561901115
0.0129831156035
0.0557961476123
0.00124816722866
0.00124636359253
0.00124563528593
0.00124572655327
0.0012464253905
0.0012475406699
0.00124887592524
0.00125021583164
0.00125132549478
0.00125195559341
0.00125183618666
0.0012506297772
0.00124780084475
0.00124240865515
0.00123399083953
0.0012419270049
0.00154131331818
0.00443934226282
0.0194653061354
0.062580063123
0.0012552027652
0.0012526341933
0.00125133546176
0.00125099711276
0.00125133192456
0.00125206752427
0.00125293360851
0.00125365938709
0.00125397728208
0.00125361894888
0.00125228151734
0.00124953475083
0.00124464394875
0.00123653683169
0.00122767277245
0.00127638797499
0.00199066536361
0.00698524367426
0.0252935646828
0.0658331555631
0.00126189795683
0.00125859588584
0.00125666934658
0.00125578539359
0.00125560452285
0.00125579299084
0.00125602834127
0.00125600532808
0.00125543584782
0.0012540276098
0.0012514217405
0.00124706839391
0.00124007497817
0.00122984746542
0.00122714630436
0.00137100062069
0.00277968057276
0.0100422428312
0.0297395044931
0.067126093298
0.00126790587084
0.00126392063721
0.00126133822379
0.00125983511174
0.00125904334788
0.00125858919124
0.00125811618978
0.0012572957381
0.00125581883567
0.00125335705357
0.00124947921237
0.00124352333831
0.00123461042639
0.00122393565715
0.00124045218539
0.00156622941268
0.00395184092837
0.0131498848898
0.0327388931609
0.0673340025158
0.00127314673057
0.00126850306268
0.00126523898688
0.00126306295856
0.00126159859576
0.00126044938665
0.00125923664466
0.00125761193133
0.00125524018314
0.0012517472073
0.00124662830235
0.00123916346708
0.00122885245618
0.00122108794863
0.00127929788104
0.00190687796404
0.00545646311794
0.0159108701084
0.0345927242442
0.0669094145851
0.00127763414421
0.00127232223074
0.0012683482552
0.00126546073007
0.00126328736155
0.00126141986551
0.00125946333377
0.00125704914568
0.00125381136028
0.0012493273521
0.00124303720357
0.00123428058643
0.00122359344947
0.00122462683317
0.00135964061687
0.00242985272724
0.00715691563659
0.0181289062401
0.0356419358338
0.0660990112975
0.00128136599379
0.00127535996174
0.00127065592968
0.00126703978168
0.00126414751475
0.00126156412605
0.00125888074635
0.00125570740877
0.00125164565104
0.00124623093353
0.00123889114587
0.00122923359396
0.00121992716158
0.00123931409576
0.00150137227554
0.0031488021036
0.00888242840821
0.0197919030039
0.0361473300858
0.06505006775
0.00128430885288
0.00127759092188
0.00127216067025
0.00126782887036
0.00126423722883
0.00126096502806
0.00125759020143
0.00125370152481
0.00124887101726
0.00124260985244
0.0012344094711
0.00122448377958
0.00121938183172
0.0012717574799
0.00172622512728
0.00404421827705
0.0104876049095
0.0209834693628
0.0362860721695
0.0638543694099
0.0012864274641
0.00127901229888
0.00127289541571
0.00126789440536
0.00126365062209
0.00125973715945
0.00125571994752
0.00125116908509
0.00124563568261
0.00123863804728
0.00122985204781
0.00122062849866
0.00122408078308
0.00133067954315
0.00205342151786
0.00506550846381
0.0118859398
0.0218085529637
0.0361762154406
0.062569980552
0.00128775063674
0.00127969366194
0.00127296288284
0.0012673642001
0.00126253249976
0.00125803482938
0.00125342787029
0.00124826870552
0.00124210273885
0.00123450479609
0.00122551973415
0.00121844303819
0.00123692929362
0.00142681078843
0.00249401387171
0.00614444565803
0.0130498031766
0.0223584539268
0.03589697354
0.0612338832026
0.00128844116453
0.00127981838666
0.00127255644821
0.00126643401521
0.00126107507666
0.00125604211315
0.00125088700659
0.00124516273956
0.00123843218799
0.00123040025635
0.00122175553906
0.00121894031275
0.00126180248276
0.00157211150082
0.00304622579457
0.00721317005667
0.0139909170864
0.0227030883549
0.035501839611
0.0598699468185
0.00128882271503
0.00127968527037
0.00127194524475
0.00126534251457
0.00125948734905
0.00125393990653
0.00124825281991
0.00124198718342
0.00123475646824
0.00122650198488
0.00121895727015
0.00122345679401
0.00130368158702
0.00177817726955
0.00369412495803
0.00821865651315
0.0147387917804
0.0228938953598
0.0350270965575
0.0584941546884
0.00128933889769
0.00127966056209
0.00127142265131
0.00126431959303
0.00125794622839
0.00125186227084
0.0012456268463
0.00123882470654
0.00123116549502
0.00122297738978
0.00121761485124
0.00123376986681
0.00136867636146
0.0020540981575
0.00441049743963
0.00912907751994
0.0153263664896
0.0229685504941
0.0344975017274
0.0571180096116
0.00129046249301
0.0012801018906
0.00127124287533
0.00126353529398
0.00125655796667
0.00124987045936
0.00124304334656
0.00123570399859
0.00122771950881
0.00122001497421
0.00121838096148
0.00125224667451
0.00146389008871
0.00240444148654
0.00516280940906
0.00993243207528
0.0157835507466
0.0229548702022
0.0339300859067
0.0557504879197
0.0012926025721
0.00128129451702
0.00127158356604
0.00126308500064
0.00125536180386
0.00124797111852
0.00124049858777
0.00123263730156
0.00122449397013
0.00121788298754
0.00122217266768
0.00128201895364
0.00159710726262
0.00282804894478
0.00591984685255
0.0106308410036
0.0161355877872
0.0228736743989
0.0333366624251
0.0543987670362
0.00129604961488
0.00128343381451
0.00127256070341
0.00126302795174
0.00125438311316
0.00124617655104
0.00123801239119
0.00122967944783
0.00122163648718
0.00121699683952
0.00123029284598
0.00132716879509
0.00177626657918
0.00331795909192
0.00665666578413
0.0112340967954
0.0164032549046
0.0227407819962
0.0327254565372
0.053068043891
0.00130096468576
0.00128665304596
0.00127428123801
0.00126345174284
0.00125369957024
0.00124456559679
0.00123567957347
0.00122696896217
0.00121940306374
0.00121797340362
0.00124456085788
0.00139288139076
0.00200862955988
0.0038623165986
0.00735662624308
0.0117545909114
0.0166033326523
0.0225682905135
0.0321021396824
0.0517609153368
0.0013073891647
0.00129104855157
0.00127687287187
0.0012644987673
0.00125345974409
0.00124329240345
0.00123366915209
0.00122472118555
0.00121815633586
0.00122166713541
0.00126744610929
0.00148545837628
0.00229957503994
0.00444590818199
0.00801071646508
0.0122041866762
0.0167489327089
0.0223653198415
0.0314704838566
0.0504768624046
0.00131518832027
0.00129662495505
0.00128042778402
0.00126630837897
0.00125382481413
0.00124252896315
0.00123216980974
0.00122318162794
0.0012183408215
0.0012292049193
0.00130219006318
0.0016120191196
0.00265115502215
0.00505197773892
0.0086153397299
0.0125927414175
0.0168497979363
0.0221384604599
0.0308328154265
0.0492122791003
0.00132395362614
0.00130317971207
0.00128488700603
0.00126891019235
0.0012548744469
0.00124238453228
0.00123132376546
0.00122257847759
0.00122046943705
0.00124204256698
0.00135287475564
0.00177974236776
0.00306087386223
0.0056640451622
0.00916991710118
0.0129277617313
0.0169127569107
0.0218921587882
0.0301904017902
0.0479612101686
0.00133296087839
0.00131023273618
0.00128996530035
0.00127215528891
0.00125654826199
0.00124285865202
0.00123119299537
0.0012231081178
0.00122514724647
0.00126205070121
0.00142436560461
0.0019946934456
0.00352131529615
0.00626747684076
0.00967519904575
0.013214734905
0.0169423827491
0.0216291755218
0.02954383387
0.0467166209792
0.00134126837364
0.0013170921423
0.00129519057672
0.00127573779908
0.0012586570282
0.00124384873478
0.00123177066791
0.00122496274014
0.00123313860678
0.00129161412303
0.00152206125198
0.0022605608826
0.00402098646522
0.00685057338413
0.0101324919354
0.0134577628029
0.016941751673
0.0213511180913
0.0288933932132
0.0454717868264
0.00134802518617
0.00132307969105
0.00130005991935
0.00127929913812
0.00126095294714
0.00124520233136
0.00123303038468
0.00122839516595
0.00124546996906
0.00133371075484
0.00165144593607
0.00257776383037
0.00454616860138
0.00740502727873
0.0105435012007
0.0136601925291
0.0169131245572
0.0210589539065
0.0282393522423
0.044221373695
0.00135293783058
0.00132784826047
0.00130425680338
0.00128257638873
0.00126323456822
0.00124679874395
0.00123500216422
0.00123380940871
0.00126354760377
0.00139192828049
0.00181751861666
0.00294323545746
0.00508306486136
0.00792574917833
0.0109103480165
0.0138250333795
0.0168584044718
0.0207533914065
0.0275821575336
0.0429619722635
0.00135645928153
0.00133156661418
0.00130780564051
0.00128552474595
0.00126544391103
0.00124862982507
0.00123784850028
0.00124184853576
0.00128925218744
0.00147037447275
0.00202418748989
0.00335084010799
0.00561946008996
0.00841020428931
0.0112354618251
0.0139550886514
0.016779323317
0.0204350643409
0.0269224770191
0.0416921341671
0.00135958377666
0.00133485473082
0.00131106840367
0.00128833904129
0.00126769508566
0.00125082910852
0.00124189733706
0.00125344171029
0.0013249666636
0.00157343717809
0.00227366898345
0.00379213218073
0.00614547651618
0.00885751572338
0.0115213130508
0.0140528847031
0.0166774310662
0.0201045421599
0.0262611377993
0.0404122011193
0.00136353127826
0.00133853527016
0.00131457856715
0.00129134463245
0.00127020014288
0.00125362089945
0.00124761382986
0.00126979807958
0.00137351254768
0.00170536912005
0.0025659341631
0.00425720527703
0.00665354790039
0.00926765676408
0.0117701552791
0.014120581397
0.0165540439294
0.0197622732989
0.0255990269984
0.03912427321
0.00136922217001
0.00134319007774
0.0013187235155
0.00129477555786
0.00127311597333
0.00125721985781
0.0012555453373
0.00129237376265
0.0014379987249
0.00186973999385
0.00289835982599
0.00473558716965
0.00713807356075
0.00964099739909
0.0119839710079
0.0141600261582
0.016410292708
0.0194085849449
0.0249370328519
0.0378324828749
0.00137694435483
0.00134882499489
0.00132347669495
0.00129858398276
0.00127642453388
0.00126177204129
0.00126630950577
0.0013228555833
0.0015216229403
0.00206891458532
0.00326584667322
0.00521724279765
0.00759518428493
0.0099782836001
0.0121646782082
0.0141729884111
0.0162473145559
0.019043805906
0.0242760640066
0.0365434390538
0.00138713870354
0.00135503280203
0.00132841831392
0.00130244537577
0.00127996209785
0.00126741499401
0.0012806710397
0.00136319249609
0.00162750985846
0.00230379933323
0.0036615811036
0.00569364622936
0.00802276526806
0.0102809048761
0.0123144772052
0.0141614710889
0.0160665154972
0.018668485717
0.023617123879
0.0352664732394
0.00140153984135
0.0013612399231
0.00133286195303
0.00130589082799
0.0012835706772
0.00127443694398
0.00129968958297
0.00141568955424
0.00175869216841
0.0025740338732
0.00407831741436
0.00615869795601
0.00842058420838
0.0105511752775
0.0124361260767
0.0141279328124
0.0158697717744
0.0182836165021
0.022961380784
0.0340132965152
0.00142200460915
0.00136686754531
0.00133606694417
0.00130855826394
0.00128734465325
0.00128349483113
0.00132491452019
0.00148319381401
0.00191830714933
0.00287858976537
0.00450975354929
0.0066091895954
0.00879024696369
0.0107923679907
0.0125329606167
0.0140752830471
0.0156594482282
0.0178907437045
0.0223101702931
0.0327968646522
0.00143584677081
0.00137278550366
0.00133814964354
0.00131077257738
0.00129198126913
0.00129583753019
0.00135859455838
0.00156936623255
0.00210992035335
0.0032164426899
0.00495142125305
0.00704456288707
0.00913473282665
0.0110083445755
0.0126085702199
0.0140065949699
0.0154381715477
0.0174918651764
0.0216648765318
0.0316295603271
0.00133222370564
0.00138177201421
0.00134041182059
0.00131368608672
0.00129878648515
0.00131329824281
0.00140377695998
0.00167886954851
0.00233760557525
0.00358676090419
0.00540061018458
0.00746589359608
0.00945745672465
0.0112028175273
0.0126662070375
0.0139246155957
0.0152083998933
0.0170890442003
0.0210264215804
0.0305209874475
0.000916973557507
0.001393367397
0.00134443494512
)
;

boundaryField
{
    emptyPatch
    {
        type            empty;
    }
    minY
    {
        type            fixedValue;
        value           uniform 0.000138;
    }
    maxY
    {
        type            inletOutlet;
        inletValue      nonuniform List<scalar> 0();
        value           nonuniform List<scalar> 0();
    }
    water_to_cooler
    {
        type            kqRWallFunction;
        value           nonuniform List<scalar> 
37
(
0.0232986400407
0.0433779524912
0.0557961476123
0.062580063123
0.0658331555631
0.067126093298
0.0673340025158
0.0669094145851
0.0660990112975
0.06505006775
0.0638543694099
0.062569980552
0.0612338832026
0.0598699468185
0.0584941546884
0.0571180096116
0.0557504879197
0.0543987670362
0.053068043891
0.0517609153368
0.0504768624046
0.0492122791003
0.0479612101686
0.0467166209792
0.0454717868264
0.044221373695
0.0429619722635
0.0416921341671
0.0404122011193
0.03912427321
0.0378324828749
0.0365434390538
0.0352664732394
0.0340132965152
0.0327968646522
0.0316295603271
0.0305209874475
)
;
    }
    water_to_heater
    {
        type            kqRWallFunction;
        value           nonuniform List<scalar> 
61
(
0.0354877971544
0.485133010706
0.485133010706
0.67703752623
0.67703752623
0.828843448895
0.828843448895
0.901943621354
0.913027879225
0.925876277248
0.925876277248
0.952009337735
0.952009337735
0.971575678838
0.971575678838
0.982003086649
0.983133945793
0.977658250856
0.977658250856
0.971551265433
0.971551265433
0.974283965751
0.974283965751
0.985144986405
1.00507114082
1.02978097042
1.02978097042
1.06007213168
1.06007213168
1.10791805749
1.10791805749
1.21708795186
1.37310628494
1.43935890103
1.43935890103
1.45967245039
1.45967245039
1.47407187798
1.47407187798
1.48396147126
1.49704785463
1.51204545444
1.51204545444
1.53470886123
1.53470886123
1.56189209558
1.56189209558
1.58767240925
1.60006127059
1.58917376123
1.58917376123
1.54033593634
1.54033593634
1.45955220121
1.45955220121
1.43266578091
1.52088551095
1.71708081383
1.71708081383
1.94338716184
1.94338716184
)
;
    }
    procBoundary2to3
    {
        type            processor;
        value           nonuniform List<scalar> 
41
(
2.05008859521
0.897261969341
0.42176337325
0.22410615643
0.132954797938
0.0798408513176
0.0449722338398
0.025181826665
0.0153218454783
0.0104102292446
0.00765868880726
0.00545584933827
0.00316286543132
0.00169463351976
0.00137912512167
0.00148349267589
0.00153555079726
0.00143357798844
0.00123539668345
0.000777689107971
0.00131863572051
0.00130923787374
0.00133807480667
0.00146428023633
0.00181726746371
0.00260543268831
0.00398837012259
0.00585543679812
0.00787450455823
0.00976122400822
0.0113786222964
0.0127083085742
0.0138315404338
0.0149726304445
0.0166857510902
0.0203991293398
0.0294813486479
0.000532343321407
0.00137629552565
0.00131863572051
0.00135148142528
)
;
    }
}


// ************************************************************************* //
