/*--------------------------------*- C++ -*----------------------------------*\
| =========                 |                                                 |
| \\      /  F ield         | OpenFOAM: The Open Source CFD Toolbox           |
|  \\    /   O peration     | Version:  2312                                  |
|   \\  /    A nd           | Website:  www.openfoam.com                      |
|    \\/     M anipulation  |                                                 |
\*---------------------------------------------------------------------------*/
FoamFile
{
    version     2.0;
    format      ascii;
    arch        "LSB;label=32;scalar=64";
    class       volScalarField;
    location    "0.86/heater";
    object      T;
}
// * * * * * * * * * * * * * * * * * * * * * * * * * * * * * * * * * * * * * //

dimensions      [0 0 0 1 0 0 0];

internalField   nonuniform List<scalar> 
150
(
790.10879936
789.985025367
789.746461764
789.421300039
789.059991454
790.215803126
790.091066171
789.848268331
789.513294494
789.147202803
790.306562416
790.180890637
789.932945316
789.582900092
789.19491237
790.376328282
790.250184715
789.997728781
789.629537322
789.202007709
790.425571109
790.299585905
790.044631546
789.659702594
789.16899894
790.460064794
790.334603484
790.079813921
789.690136772
789.166211245
790.489662007
790.364584804
790.110314654
789.720093937
789.187801156
790.525114124
790.400275774
790.146431874
789.756519591
789.2229883
790.581576261
790.457549171
790.205167584
789.816952304
789.284388513
790.66625327
790.544094666
790.295015653
789.91063503
789.381086117
790.76669307
790.647609397
790.404061706
790.02622269
789.502212852
790.871975238
790.757035598
790.521164
790.152604476
789.636915656
790.983748927
790.874060113
790.648282826
790.292238201
789.786883325
791.096063256
790.991226956
790.77515891
790.431661093
789.935862004
791.200003642
791.099643287
790.89313398
790.562929488
790.077508347
791.285293767
791.188620675
790.99101847
790.674918205
790.201096515
791.345854704
791.252107329
791.063478603
790.765294475
790.309160576
791.384205414
791.292072402
791.110360208
790.830461865
790.398882982
791.407155879
791.315771707
791.139326857
790.878653497
790.48195393
791.420425516
791.329260738
791.155981136
790.912459338
790.561770809
791.425104182
791.334107041
791.162126073
790.930344298
790.640940062
791.416313095
791.32561567
791.153803873
790.924531497
790.668994458
791.390481227
791.299913304
791.127629526
790.897185649
790.647933022
791.3499067
791.259127089
791.085624099
790.85204214
790.599793208
791.298790037
791.207450408
791.031895494
790.793401671
790.532752916
791.245358293
791.153453735
790.975821647
790.732282291
790.463842285
791.193864203
791.101364931
790.92106966
790.67013561
790.391189207
791.141676674
791.048236306
790.863489999
790.598244013
790.295705093
791.081815403
790.987666618
790.799129132
790.517855827
790.179908206
791.019439579
790.925793044
790.738865637
790.458752035
790.117104012
)
;

boundaryField
{
    emptyPatch
    {
        type            empty;
    }
    minY
    {
        type            zeroGradient;
    }
    maxY
    {
        type            zeroGradient;
    }
    minX
    {
        type            zeroGradient;
    }
    heater_to_water
    {
        type            compressible::turbulentTemperatureTwoPhaseRadCoupledMixed;
        refValue        nonuniform List<scalar> 
60
(
418.463501836
505.559717736
505.557991607
524.684933211
524.684048337
526.679077639
526.679000772
523.074205971
477.439191667
382.646990102
382.647105713
345.696165549
345.69590856
333.178636234
333.178296724
330.297157102
329.40739778
328.939359324
328.93843891
329.3542768
329.353094275
329.683483643
329.682144074
335.527615198
342.948401578
344.292410438
344.290323729
344.628581237
344.626582306
344.405821111
344.404093868
343.107201706
337.245201013
330.991564206
330.990650766
329.171522143
329.170729374
328.400084729
328.399345623
328.586509322
343.825276253
470.812863227
470.812500531
559.281400786
559.281535636
586.791284733
586.791570398
595.080257534
587.445112053
575.09408393
575.094475716
567.823957881
567.824356908
562.178403277
562.178918909
570.3960222
564.734971116
548.218451753
548.219011165
557.297786691
)
;
        refGradient     uniform 0;
        valueFraction   nonuniform List<scalar> 
60
(
0.000674129403199
0.00061478883903
0.00061479402747
0.000609045667548
0.000609048076693
0.000608940473828
0.000608940681163
0.00060902101269
0.000628303655438
0.000709344649152
0.000709343646619
0.000745712652283
0.000745716925478
0.000743815084054
0.000743822894283
0.000743197681897
0.000743486029715
0.000742832472911
0.000742856841366
0.000743550551711
0.00074358145764
0.000743024371083
0.000743058980912
0.00074688925947
0.000744879769527
0.000744823099097
0.000744858945045
0.000744934382581
0.000744968455229
0.000744949667626
0.000744979253576
0.000745261984431
0.000747142431429
0.000743970793922
0.000743993369216
0.000743315032124
0.000743335870196
0.000743315043724
0.000743335030701
0.000743372627227
0.00074470628893
0.00061117486602
0.00061117617147
0.000586791068401
0.00058679076202
0.000586553418151
0.000586552831842
0.000586588243233
0.000586551591514
0.000586583762199
0.000586582923981
0.000586563849099
0.000586562972286
0.00058657800906
0.000586576851677
0.000586660873679
0.000587335709965
0.000589412226276
0.000589410893811
0.000590012722004
)
;
        source          uniform 0;
        value           nonuniform List<scalar> 
60
(
788.811314928
788.886852182
788.972585858
788.98586521
789.033136458
789.034379774
789.041085382
789.038868898
788.972474587
788.879971406
788.878737071
788.836397559
788.858523658
788.850056576
788.885295324
788.883439194
788.944029927
788.94398281
789.040637192
789.040626973
789.161708758
789.162210589
789.296836879
789.299441038
789.455707572
789.456733944
789.605671166
789.605889527
789.747529909
789.747373822
789.870996383
789.869903818
789.972980757
789.969765196
790.059722231
790.058681681
790.142063242
790.141500018
790.221729264
790.22185102
790.311567498
790.448843502
790.474447945
790.534160463
790.51221522
790.528406071
790.480042371
790.4848972
790.413429588
790.406178142
790.337383776
790.333123262
790.260509041
790.257193902
790.161465685
790.166267172
790.046745767
790.03654259
789.973891076
789.979102089
)
;
        kappaMethod     solidThermo;
        Tnbr            T.liquid;
        region          solid;
        otherPhase      gas;
    }
    procBoundary0to1
    {
        type            processor;
        value           nonuniform List<scalar> 5(790.959895347 790.866933107 790.682437518 790.405522379 790.061786265);
    }
    procBoundary0to3
    {
        type            processor;
        value           nonuniform List<scalar> 5(789.992395183 789.869418451 789.633828512 789.312198414 788.923489184);
    }
}


// ************************************************************************* //
