/*--------------------------------*- C++ -*----------------------------------*\
| =========                 |                                                 |
| \\      /  F ield         | OpenFOAM: The Open Source CFD Toolbox           |
|  \\    /   O peration     | Version:  2312                                  |
|   \\  /    A nd           | Website:  www.openfoam.com                      |
|    \\/     M anipulation  |                                                 |
\*---------------------------------------------------------------------------*/
FoamFile
{
    version     2.0;
    format      ascii;
    arch        "LSB;label=32;scalar=64";
    class       volScalarField;
    location    "0.73/water";
    object      p;
}
// * * * * * * * * * * * * * * * * * * * * * * * * * * * * * * * * * * * * * //

dimensions      [1 -1 -2 0 0 0 0];

internalField   nonuniform List<scalar> 
6000
(
101610.707975
101606.900902
101605.891001
101605.108289
101604.434822
101603.827027
101603.264714
101602.748272
101602.281844
101601.863781
101601.492464
101601.164983
101600.877006
101600.624344
101600.403627
101600.212106
101600.047694
101599.908829
101599.794573
101599.704368
101591.7647
101589.901631
101590.04329
101590.030593
101589.720847
101589.431189
101589.149643
101588.871289
101588.589361
101588.310658
101588.048819
101587.808995
101587.589289
101587.387556
101587.203298
101587.037012
101586.889653
101586.762222
101586.655795
101586.571347
101574.790182
101572.879161
101573.632628
101574.194019
101574.317855
101574.398918
101574.440363
101574.432543
101574.380598
101574.29248
101574.181813
101574.064391
101573.948731
101573.836472
101573.727921
101573.624158
101573.527194
101573.439467
101573.363598
101573.301907
101560.334853
101559.014459
101559.826406
101560.194099
101560.169853
101560.187293
101560.243728
101560.295095
101560.322946
101560.32332
101560.298496
101560.257543
101560.210451
101560.162124
101560.113748
101560.06571
101560.018979
101559.975132
101559.93622
101559.904182
101546.065461
101545.18522
101546.263806
101546.642854
101546.56592
101546.505292
101546.509155
101546.537536
101546.558946
101546.56532
101546.556854
101546.537693
101546.514985
101546.493811
101546.475681
101546.460268
101546.447162
101546.436325
101546.428229
101546.423368
101532.854875
101531.882252
101532.899481
101533.286927
101533.227602
101533.103208
101533.014173
101532.969595
101532.942657
101532.916739
101532.890532
101532.865683
101532.84591
101532.834335
101532.831543
101532.836219
101532.846634
101532.861209
101532.878812
101532.898403
101519.230666
101517.888254
101518.830391
101519.290256
101519.369122
101519.33261
101519.265092
101519.207885
101519.170751
101519.142017
101519.120876
101519.110076
101519.110812
101519.123514
101519.147439
101519.1805
101519.22021
101519.264108
101519.310112
101519.356186
101504.788638
101503.150415
101503.935343
101504.472727
101504.692367
101504.813843
101504.889848
101504.947105
101505.006023
101505.064624
101505.121688
101505.184027
101505.253758
101505.329693
101505.41049
101505.494459
101505.579687
101505.66411
101505.745818
101505.822919
101488.836631
101487.447082
101488.712488
101489.34763
101489.636838
101489.891589
101490.126294
101490.345035
101490.563275
101490.782072
101490.985261
101491.174333
101491.354607
101491.525559
101491.686359
101491.837046
101491.977718
101492.107983
101492.227319
101492.335055
101473.371774
101472.419776
101473.951211
101474.577945
101474.88366
101475.212464
101475.581934
101475.951855
101476.314503
101476.680278
101477.029536
101477.345051
101477.629871
101477.88634
101478.115849
101478.320829
101478.503897
101478.666824
101478.810872
101478.936795
101459.63748
101459.081781
101460.657526
101461.280743
101461.574705
101461.880526
101462.23219
101462.594893
101462.95303
101463.313632
101463.677902
101464.021289
101464.331468
101464.606329
101464.848017
101465.059764
101465.244955
101465.406172
101465.545417
101465.664153
101450.343137
101449.274645
101450.042696
101450.243092
101450.207093
101450.218394
101450.308403
101450.456438
101450.634041
101450.833208
101451.062653
101451.3095
101451.547343
101451.757669
101451.939642
101452.097269
101452.233027
101452.34865
101452.445748
101452.525635
101438.568615
101437.140108
101437.910583
101438.328349
101438.434672
101438.504169
101438.581382
101438.655923
101438.725862
101438.806102
101438.909311
101439.035677
101439.160875
101439.259498
101439.331136
101439.385988
101439.428416
101439.459481
101439.480512
101439.492566
101428.440328
101426.767782
101427.32183
101427.494106
101427.408914
101427.307414
101427.200928
101427.099315
101427.0292
101427.00947
101427.028514
101427.051809
101427.048066
101426.999253
101426.917901
101426.828691
101426.741782
101426.657909
101426.577671
101426.501538
101416.320418
101414.455695
101415.470159
101415.878863
101415.886707
101415.793903
101415.629232
101415.422146
101415.261253
101415.200415
101415.198448
101415.158571
101415.02649
101414.807115
101414.537678
101414.273471
101414.034069
101413.819677
101413.628454
101413.459178
101406.339519
101404.069822
101404.712755
101404.874688
101404.629651
101404.274914
101403.8499
101403.438374
101403.167171
101403.068714
101403.049207
101402.97162
101402.739931
101402.367739
101401.917287
101401.48517
101401.105384
101400.776418
101400.493078
101400.2512
101393.857645
101391.109292
101391.854822
101392.092474
101391.791091
101391.303701
101390.74144
101390.278207
101390.027638
101389.955874
101389.958743
101389.908018
101389.679245
101389.244841
101388.695099
101388.169983
101387.721342
101387.343388
101387.027564
101386.767065
101380.115039
101377.047624
101377.389924
101377.459566
101377.032053
101376.493197
101375.974112
101375.598681
101375.424779
101375.41584
101375.485378
101375.539005
101375.438863
101375.087982
101374.579726
101374.094502
101373.702411
101373.388074
101373.137398
101372.942096
101364.197873
101361.013016
101361.452731
101361.408461
101360.914426
101360.354976
101359.82285
101359.459061
101359.329965
101359.362086
101359.500155
101359.696659
101359.819773
101359.731448
101359.462187
101359.192234
101359.012155
101358.900415
101358.832787
101358.800034
101346.456055
101343.266995
101343.791004
101343.695149
101343.168559
101342.626096
101342.197309
101341.994696
101342.001306
101342.149011
101342.391908
101342.700537
101343.018438
101343.299469
101343.500506
101343.648041
101343.833787
101344.051347
101344.270478
101344.481521
101326.053975
101322.62366
101323.379839
101323.635365
101323.594216
101323.623142
101323.785496
101324.108489
101324.545367
101324.993701
101325.408538
101325.817563
101326.218862
101326.697043
101327.344457
101328.006598
101328.628931
101329.221168
101329.760695
101330.238902
101305.200387
101302.461334
101303.834157
101304.598469
101305.121537
101305.76665
101306.545845
101307.419538
101308.308366
101309.085814
101309.724556
101310.299738
101310.87221
101311.418755
101312.110673
101313.059636
101314.015048
101314.896497
101315.681738
101316.365781
101289.472069
101288.081584
101289.327972
101290.02827
101290.547758
101291.245063
101292.154945
101293.184954
101294.219454
101295.161393
101295.977318
101296.711729
101297.381278
101297.961109
101298.56406
101299.428352
101300.460602
101301.445183
101302.31986
101303.081803
101277.758132
101277.683059
101279.095834
101279.614928
101279.884503
101280.310245
101280.984426
101281.814598
101282.687346
101283.500358
101284.184795
101284.829803
101285.435398
101286.066266
101286.658443
101287.284582
101288.118218
101288.982483
101289.766405
101290.457154
101269.862204
101269.865034
101271.093759
101271.324881
101271.31289
101271.428679
101271.768881
101272.261324
101272.817407
101273.247259
101273.623907
101274.085703
101274.592878
101275.16523
101275.714943
101276.176307
101276.731394
101277.341202
101277.902159
101278.404876
101260.470144
101260.535515
101261.974001
101262.335057
101262.384408
101262.483747
101262.734875
101263.095778
101263.403184
101263.505641
101263.666707
101263.989892
101264.324259
101264.738049
101265.19633
101265.56102
101265.883648
101266.211009
101266.49024
101266.743464
101253.035242
101252.732331
101253.740499
101253.960871
101253.917662
101253.909946
101254.04895
101254.254812
101254.206234
101253.930986
101254.094212
101254.211171
101254.294059
101254.451988
101254.733567
101255.022945
101255.20078
101255.280585
101255.279742
101255.271036
101244.382876
101243.774924
101244.684758
101245.016474
101245.065986
101245.117452
101245.251189
101245.267345
101244.832609
101244.580566
101244.408561
101244.402899
101244.297527
101244.116634
101244.136319
101244.356598
101244.455175
101244.329819
101244.075122
101243.817495
101236.700048
101235.92431
101236.852602
101237.018852
101236.89804
101236.775244
101236.661532
101236.257103
101235.528137
101234.934954
101234.777527
101234.411007
101234.033527
101233.584829
101233.093289
101233.380012
101233.467967
101233.1979
101232.739455
101232.257833
101227.056139
101226.125482
101227.549629
101227.855913
101227.752099
101227.580652
101227.281703
101226.496543
101225.468693
101225.077263
101224.482913
101224.070394
101223.394246
101222.044203
101222.033843
101222.380694
101222.334065
101221.89774
101221.241608
101220.52908
101218.935614
101217.569421
101218.772369
101218.884225
101218.554036
101218.115031
101217.417982
101216.211201
101215.396588
101214.569242
101214.065627
101213.248287
101212.07775
101211.464847
101211.10719
101211.076842
101210.9482
101210.391577
101209.522819
101208.547349
101209.198023
101207.195097
101208.503959
101208.722182
101208.363334
101207.781941
101206.770231
101205.529457
101204.438616
101203.8189
101202.91412
101201.97208
101200.783797
101199.222385
101199.137432
101199.180209
101199.048668
101198.426389
101197.356625
101196.116407
101200.817903
101197.960273
101198.53763
101198.41591
101197.686242
101196.674152
101195.232941
101193.674121
101192.816725
101191.668668
101190.689977
101189.465554
101187.205521
101186.987325
101186.743793
101186.45866
101186.32516
101185.666816
101184.437732
101182.975626
101189.783904
101186.037169
101186.834463
101186.516141
101185.435014
101184.075733
101182.42334
101181.204645
101179.835317
101178.775925
101177.48722
101174.744311
101173.94405
101173.550461
101172.850027
101172.602022
101172.405872
101171.738342
101170.441381
101168.852042
101177.823677
101173.309424
101173.764418
101173.152938
101171.839125
101170.39779
101168.874765
101167.144931
101165.642636
101163.996751
101161.24737
101159.853902
101159.237681
101158.363188
101157.692099
101157.21613
101156.876941
101156.212918
101155.024288
101153.477278
101167.0917
101160.786935
101159.983398
101159.03389
101157.528331
101155.774805
101153.566952
101151.204902
101149.067042
101146.827214
101145.168821
101143.973381
101142.862461
101141.75961
101140.716838
101139.945031
101139.243407
101138.644516
101137.82624
101136.606176
101151.326446
101142.380709
101141.231218
101140.157614
101138.535944
101136.284714
101133.603872
101131.309784
101129.548885
101128.051754
101126.585543
101125.231687
101123.832305
101122.501199
101121.255969
101120.090529
101119.193637
101118.900044
101118.620176
101118.110045
101113.804355
101103.370839
101103.163493
101104.042319
101104.631492
101104.260482
101103.539827
101103.076933
101102.738312
101102.21257
101101.524314
101100.757234
101100.046573
101099.383213
101098.623182
101097.835411
101097.590326
101097.549863
101097.760928
101098.193713
101046.748749
101041.501044
101046.885402
101050.334385
101053.635797
101057.157888
101060.596537
101063.492521
101065.800886
101067.637459
101069.136749
101070.515654
101071.868009
101073.078894
101073.976313
101074.62142
101075.310547
101075.951153
101076.689421
101077.781137
100999.028066
101000.803953
101004.277111
101006.433982
101008.441475
101011.480766
101016.398579
101022.03505
101027.284595
101032.021281
101036.313402
101040.256356
101043.908739
101047.229076
101050.085757
101052.351605
101054.064281
101055.618799
101056.842787
101058.314218
100989.268497
100989.232087
100989.201214
100989.18418
100989.427266
100990.181572
100992.026553
100995.838645
101000.918969
101006.416732
101011.852491
101016.929324
101021.648364
101026.006146
101029.911864
101033.237848
101035.688757
101037.712585
101039.384595
101041.113297
100987.481194
100987.452758
100987.423608
100987.384588
100987.32764
100987.289325
100987.362203
100988.25848
100990.579716
100994.085866
100998.310618
101002.682022
101006.929456
101011.004844
101014.77269
101018.173124
101020.932319
101023.019348
101024.799602
101026.665633
100986.047188
100986.025443
100986.010052
100985.999721
100985.990911
100985.982599
100985.933768
100986.088792
100987.073461
100988.999806
100991.676484
100994.727711
100997.906222
101001.091469
101004.159474
101006.989227
101009.419693
101011.286084
101013.086806
101014.867472
100984.702155
100984.68407
100984.673589
100984.66547
100984.655806
100984.64555
100984.6481
100984.687197
100985.224974
100986.412831
100988.092367
100990.049569
100992.200236
100994.516223
100996.765057
100998.805023
101000.538447
101002.065097
101003.654582
101005.222996
100983.423939
100983.406188
100983.396024
100983.389489
100983.383727
100983.378093
100983.416692
100983.404335
100983.718692
100984.514035
100985.587758
100986.761531
100988.257018
100989.777061
100991.342084
100992.689429
100993.609944
100994.543914
100995.846412
100997.190606
100982.166086
100982.15255
100982.149236
100982.153038
100982.163078
100982.181541
100982.243248
100982.216267
100982.481172
100983.063093
100983.565194
100984.164947
100984.987229
100986.017364
100986.927345
100987.700773
100987.91387
100988.124264
100989.182753
100990.342415
100980.875763
100980.860148
100980.85298
100980.851376
100980.851198
100980.904822
100980.955442
100980.938048
100981.163096
100981.397841
100981.278963
100981.340408
100981.946716
100982.426077
100982.924097
100983.184288
100982.494529
100982.43621
100983.26149
100984.201726
100979.534777
100979.524361
100979.527574
100979.541634
100979.566681
100979.618976
100979.4663
100979.381494
100979.410776
100978.982671
100978.344897
100978.496322
100978.587403
100978.752103
100978.770141
100978.505187
100977.577843
100976.954852
100977.533918
100978.256184
100978.049783
100978.039201
100978.044318
100978.062284
100978.132954
100978.01753
100977.727917
100977.510187
100977.057595
100975.955827
100975.445879
100975.130426
100975.044424
100974.77362
100974.423365
100973.706389
100971.782159
100971.321193
100971.639186
100972.115761
100976.278245
100976.270943
100976.285695
100976.453032
100976.485226
100976.136113
100975.712372
100975.219293
100973.93016
100972.688811
100971.868998
100971.504602
100970.869684
100970.181616
100969.430106
100967.61542
100966.018158
100965.350809
100965.265067
100965.384992
100974.138306
100974.12803
100974.589652
100974.972961
100974.745472
100974.175514
100973.504295
100972.145434
100970.302217
100968.867148
100968.156722
100967.109939
100966.101101
100964.950622
100963.400464
100961.72415
100959.592137
100958.571312
100957.95325
100957.717961
100971.631819
100971.713149
100973.052883
100973.487638
100972.992091
100972.107049
100970.599062
100968.177365
100966.021875
100964.939866
100963.489673
100962.194736
100960.675967
100958.8007
100957.003696
100954.269115
100952.219609
100950.705681
100949.54951
100949.112447
100968.828654
100969.245562
100971.16698
100971.42386
100970.512618
100968.741381
100965.727513
100962.836733
100961.403498
100959.567066
100957.99781
100956.077191
100953.798772
100951.577376
100948.78724
100946.307261
100943.591137
100941.541871
100939.929289
100939.262262
100966.197063
100965.861853
100969.038547
100968.826524
100966.560732
100962.838602
100959.223738
100957.325135
100955.057311
100953.196105
100950.86621
100948.244083
100945.61488
100942.496786
100939.810704
100936.288779
100933.370055
100930.667352
100928.702286
100927.542706
100963.778593
100960.663237
100964.241632
100962.873054
100958.466423
100954.294921
100951.97362
100949.316869
100947.20246
100944.474524
100941.504525
100938.488852
100934.932467
100931.880807
100928.09018
100924.657582
100921.002764
100917.689147
100915.331696
100914.043967
100961.59108
100955.168377
100956.550982
100953.073331
100948.181401
100945.282899
100942.044791
100939.506533
100936.347284
100932.923574
100929.466469
100925.432365
100921.942617
100917.774805
100914.082829
100909.859207
100905.90315
100902.158473
100899.525964
100897.759043
100958.176737
100948.035839
100945.509176
100941.842568
100937.765589
100933.282333
100929.424732
100925.302706
100921.061563
100916.858126
100912.10683
100907.985304
100903.263915
100899.318279
100895.000637
100891.177579
100887.303803
100883.621784
100880.844863
100878.888569
100934.023507
100919.157742
100917.042156
100915.474614
100911.857125
100907.318546
100902.727792
100897.986429
100893.783456
100888.828005
100884.746934
100880.128726
100876.46273
100872.767182
100869.706417
100866.909286
100864.144929
100861.558573
100859.500419
100857.93631
100827.763264
100813.361424
100818.019291
100823.138016
100828.027425
100832.387384
100835.556493
100838.563218
100839.604272
100839.987618
100839.130228
100838.467649
100837.637328
100837.091673
100836.691135
100836.370988
100836.092642
100835.876159
100835.743777
100835.470986
100726.772214
100724.266198
100728.696313
100731.686823
100734.500224
100738.353045
100744.675999
100753.542664
100764.624867
100774.70213
100782.383787
100788.086564
100792.758892
100796.721921
100800.186631
100803.250112
100806.031534
100808.578874
100810.953807
100812.563528
100716.517195
100716.463266
100716.428366
100716.393581
100716.362842
100716.348908
100716.481275
100717.422731
100720.683498
100728.443185
100738.771868
100748.259778
100756.225525
100763.108312
100769.124931
100774.459725
100779.260292
100783.631667
100787.651694
100791.009587
100715.249839
100715.234955
100715.223632
100715.208752
100715.186982
100715.156968
100715.116562
100715.088215
100715.089596
100716.090484
100720.434654
100727.403591
100734.764315
100741.597152
100747.86516
100753.607043
100758.875214
100763.748614
100768.239673
100772.368717
100714.234336
100714.220489
100714.211647
100714.203404
100714.193105
100714.179903
100714.164132
100714.144772
100714.120647
100714.103528
100715.324607
100718.794246
100723.822945
100729.250369
100734.545321
100739.607946
100744.377285
100748.861245
100753.070982
100757.006703
100713.27327
100713.262542
100713.257101
100713.252294
100713.246026
100713.238284
100713.228807
100713.217685
100713.206102
100713.101804
100713.457715
100715.233576
100718.34105
100722.153253
100726.136712
100730.144815
100734.065961
100737.842625
100741.441238
100744.733998
100712.367626
100712.357109
100712.350884
100712.345506
100712.339082
100712.331986
100712.323945
100712.314667
100712.304306
100712.252862
100712.423661
100713.518353
100715.511172
100718.037567
100720.823084
100723.778148
100726.779515
100729.737146
100732.600643
100735.202082
100711.513439
100711.503725
100711.498348
100711.493731
100711.4883
100711.482262
100711.475422
100711.467582
100711.458797
100711.433171
100711.544123
100712.257343
100713.550702
100715.156657
100717.047992
100719.181952
100721.380951
100723.578731
100725.74147
100727.703371
100710.724912
100710.715352
100710.709498
100710.704823
100710.699772
100710.694364
100710.688588
100710.682836
100710.676216
100710.692246
100710.80565
100711.296044
100712.083471
100712.927512
100714.112344
100715.540767
100717.028242
100718.556757
100720.077187
100721.431309
100709.99116
100709.982373
100709.976979
100709.972533
100709.968106
100709.963664
100709.959744
100709.956531
100709.951806
100710.044394
100710.192662
100710.532872
100710.805257
100710.97497
100711.508755
100712.359556
100713.223453
100714.093692
100715.001052
100715.770453
100709.30928
100709.301253
100709.295979
100709.291477
100709.287303
100709.284505
100709.283521
100709.285439
100709.287936
100709.439267
100709.523695
100709.641598
100709.327837
100708.852825
100709.017233
100709.265531
100709.491823
100709.7737
100710.017512
100710.165469
100708.657283
100708.649968
100708.6455
100708.641743
100708.637173
100708.632797
100708.62868
100708.622913
100708.635945
100708.771348
100708.776255
100708.564563
100707.567068
100706.685681
100706.277527
100706.009763
100705.670289
100705.225214
100704.876186
100704.334236
100708.010099
100708.011014
100708.012786
100708.014377
100708.015257
100708.016544
100708.018378
100708.020011
100708.092496
100708.093633
100707.937081
100707.182106
100705.498856
100704.078439
100703.364213
100702.459926
100701.448232
100700.482829
100699.282732
100698.121023
100707.029068
100706.740873
100707.333174
100707.351105
100707.361291
100707.366822
100707.364915
100707.32127
100707.270848
100707.138536
100706.674825
100705.029321
100702.642127
100701.223429
100699.825197
100698.387069
100696.876904
100694.997029
100693.317486
100691.681353
100705.271584
100704.698136
100705.469008
100705.561303
100705.437544
100705.284247
100705.14923
100705.095974
100705.033993
100704.789047
100703.748698
100701.110901
100698.766671
100696.948223
100695.320668
100693.453439
100691.329491
100689.092452
100687.053342
100685.31562
100703.010928
100702.361826
100703.420788
100703.245395
100702.692207
100702.243762
100701.967093
100701.722778
100701.415478
100700.612196
100698.206874
100695.292877
100693.089033
100691.472172
100689.567074
100687.384706
100684.590332
100681.947334
100680.760531
100679.048919
100697.985651
100696.405633
100697.633724
100697.098636
100696.145355
100695.588703
100695.328393
100694.969144
100694.10922
100692.001058
100689.185257
100686.935367
100685.556528
100683.920902
100682.006258
100678.99017
100675.541101
100674.686633
100673.964592
100672.423685
100683.672002
100681.036386
100682.913506
100682.524055
100681.594066
100681.123646
100681.088536
100680.854034
100679.750956
100678.002907
100676.564796
100675.903169
100674.994811
100673.340941
100670.102261
100665.926969
100665.603032
100666.153626
100665.910041
100664.968188
100662.873129
100660.536135
100662.353713
100662.424436
100661.889826
100661.63684
100662.053326
100662.68541
100662.814818
100662.473925
100662.214597
100661.475084
100658.832668
100654.290046
100651.283791
100652.618492
100654.817345
100656.135998
100656.629299
100656.841786
100645.841233
100644.150939
100645.120181
100645.284301
100644.947307
100644.495066
100644.613549
100645.561939
100646.626749
100647.114354
100646.496609
100644.005455
100640.434809
100640.301703
100642.746878
100644.890085
100646.605952
100647.902342
100649.006951
100650.155622
100642.833517
100642.573319
100642.539742
100642.508306
100642.353869
100641.706965
100640.591392
100639.663212
100639.366468
100639.154294
100638.352573
100637.684491
100638.887223
100640.944725
100642.194984
100643.020836
100643.760737
100644.599804
100645.622334
100646.761917
100641.995314
100641.958144
100641.933801
100641.912113
100641.890594
100641.86497
100641.80318
100641.384609
100640.875919
100640.377502
100639.979802
100640.326362
100641.355362
100642.109872
100642.604456
100643.001637
100643.501172
100644.175894
100644.897458
100645.590796
100641.392535
100641.379473
100641.371775
100641.36502
100641.357875
100641.350357
100641.342618
100641.330673
100641.390868
100641.429447
100641.368333
100641.500748
100641.873538
100642.260303
100642.592614
100642.920569
100643.396733
100643.979369
100644.476291
100644.866503
100640.885008
100640.874016
100640.868176
100640.864742
100640.861943
100640.859434
100640.856583
100640.87897
100641.005054
100641.073977
100640.989873
100641.052956
100641.43122
100641.839941
100642.185784
100642.593529
100643.134635
100643.752261
100644.203879
100644.413895
100640.402727
100640.393379
100640.388614
100640.386965
100640.386866
100640.388508
100640.391483
100640.41181
100640.480532
100640.470336
100640.384852
100640.504086
100640.941922
100641.40326
100641.849465
100642.385836
100643.092118
100643.754041
100644.078881
100643.922194
100639.922169
100639.912092
100639.907256
100639.90749
100639.910365
100639.915993
100639.918357
100639.983001
100640.087992
100640.049373
100639.949251
100640.049528
100640.519954
100641.06777
100641.629263
100642.351368
100643.158354
100643.666483
100643.511584
100642.666875
100639.480141
100639.309092
100639.369407
100639.376036
100639.382988
100639.37925
100639.364149
100639.456591
100639.53767
100639.414899
100639.271525
100639.366515
100639.922649
100640.619153
100641.35972
100642.203402
100642.843988
100642.738594
100641.809708
100640.517018
100638.715177
100637.84946
100638.318474
100638.375617
100638.34391
100638.240727
100638.219017
100638.330972
100638.344767
100638.136335
100637.979573
100638.143072
100638.831938
100639.66349
100640.487391
100641.187122
100641.174791
100640.220107
100638.932415
100637.782809
100637.363789
100635.760839
100636.386617
100636.46072
100636.313321
100636.154553
100636.169836
100636.305628
100636.241177
100635.969427
100635.800752
100636.051802
100636.805741
100637.597818
100638.21511
100638.248074
100637.382283
100636.181102
100635.152577
100634.048488
100635.658942
100633.306892
100633.945807
100633.956987
100633.668409
100633.45721
100633.423067
100633.351789
100632.921653
100632.530778
100632.343209
100632.608051
100633.167635
100633.572448
100633.537431
100632.767834
100631.715681
100630.896199
100630.1001
100629.107644
100633.803123
100630.655782
100631.595051
100631.493347
100630.952071
100630.440036
100629.83274
100628.819219
100627.88904
100627.32058
100626.939848
100626.806027
100626.766868
100626.517926
100625.890767
100625.05909
100624.445256
100623.96145
100623.36056
100622.559099
100631.307011
100626.569299
100627.699078
100627.483158
100626.590327
100625.334252
100623.52185
100621.637542
100620.303302
100619.290874
100618.406281
100617.65576
100617.08072
100616.494767
100615.860587
100615.385638
100615.088575
100614.812138
100614.473035
100614.085646
100620.790614
100613.615406
100615.736598
100615.929408
100615.037463
100613.291332
100611.074333
100609.115721
100607.632254
100606.43962
100605.349321
100604.609531
100604.080555
100603.644254
100603.291516
100603.116594
100603.070653
100603.078826
100603.118204
100603.22926
100588.553362
100582.302743
100586.1198
100587.917065
100588.376695
100588.184163
100587.775452
100587.360481
100587.032497
100586.685066
100586.499596
100586.556328
100586.786581
100587.03954
100587.359978
100587.798896
100588.325804
100588.884095
100589.460713
100590.170645
100543.265819
100540.566618
100543.677171
100545.69822
100546.985483
100548.591348
100551.10387
100554.063485
100556.747629
100559.045426
100561.226093
100563.37829
100565.340281
100567.099451
100568.768487
100570.389809
100571.959958
100573.425782
100574.783451
100576.232386
100524.900091
100524.838381
100524.805393
100524.973877
100525.118383
100525.330896
100526.026156
100527.840665
100530.79246
100534.27591
100537.886193
100541.483333
100544.928417
100548.140064
100551.130607
100553.933617
100556.54561
100558.910844
100561.01642
100563.058802
100523.481147
100523.461832
100523.436462
100523.3938
100523.35221
100523.323235
100523.256523
100523.159472
100523.480022
100524.661712
100526.614685
100529.101586
100532.00301
100535.159358
100538.366981
100541.48279
100544.44896
100547.163732
100549.579654
100551.932438
100522.660436
100522.649264
100522.64023
100522.630399
100522.618363
100522.602701
100522.580756
100522.563642
100522.500638
100522.766552
100523.512296
100524.750323
100526.473486
100528.60389
100531.008629
100533.51651
100536.053631
100538.445658
100540.64352
100542.853554
100521.982571
100521.975731
100521.972072
100521.96929
100521.966121
100521.963064
100521.95988
100521.955148
100521.891603
100521.979714
100522.359364
100523.049187
100524.06173
100525.344184
100526.836255
100528.484893
100530.285614
100531.963775
100533.604746
100535.406679
100521.343344
100521.338155
100521.336467
100521.336558
100521.3368
100521.337426
100521.338025
100521.338412
100521.258565
100521.231946
100521.42821
100521.868013
100522.567742
100523.400351
100524.134223
100525.031156
100526.037214
100526.874212
100527.961566
100529.318934
100520.714347
100520.71056
100520.711335
100520.713831
100520.716474
100520.71963
100520.723033
100520.708317
100520.634819
100520.651498
100520.867088
100521.327299
100521.916691
100522.127399
100522.066164
100522.195733
100522.450721
100522.335003
100522.958365
100523.938225
100520.041565
100520.04347
100520.048507
100520.05759
100520.065519
100520.069813
100520.056998
100520.06045
100520.09908
100520.277028
100520.648839
100521.07804
100520.836323
100519.97306
100519.23132
100519.123202
100518.498234
100517.390353
100518.025629
100518.707809
100519.037618
100518.490887
100518.909459
100518.967452
100518.939147
100518.836268
100518.722975
100518.733448
100518.859168
100519.137757
100519.374022
100518.672015
100517.216263
100515.979633
100515.616115
100514.916829
100512.618078
100511.814374
100512.593366
100512.928441
100517.268127
100514.311776
100515.838582
100516.177492
100516.048609
100515.859848
100515.747018
100515.794993
100515.959457
100516.042211
100515.056992
100513.241273
100511.77622
100511.223796
100510.37055
100507.699072
100505.224545
100505.848893
100506.33923
100506.079016
100515.070806
100509.896234
100511.865446
100512.458966
100512.232442
100511.955471
100511.793444
100511.725605
100511.500212
100510.252897
100508.054567
100506.179582
100505.292038
100504.115105
100500.846678
100497.356245
100497.50386
100498.445239
100498.133298
100497.459169
100512.676825
100505.888039
100507.888011
100508.186544
100507.556053
100506.980397
100506.324594
100505.304797
100503.386278
100500.571113
100498.037945
100496.547593
100494.519634
100490.281245
100486.725736
100487.05946
100488.405399
100488.444104
100487.809204
100486.997142
100504.449268
100495.101163
100496.639329
100496.202535
100495.015925
100493.802072
100492.165731
100489.917389
100487.167489
100484.406883
100482.327169
100479.385383
100474.845914