/*--------------------------------*- C++ -*----------------------------------*\
| =========                 |                                                 |
| \\      /  F ield         | OpenFOAM: The Open Source CFD Toolbox           |
|  \\    /   O peration     | Version:  2312                                  |
|   \\  /    A nd           | Website:  www.openfoam.com                      |
|    \\/     M anipulation  |                                                 |
\*---------------------------------------------------------------------------*/
FoamFile
{
    version     2.0;
    format      ascii;
    arch        "LSB;label=32;scalar=64";
    class       volScalarField;
    location    "0.09/water";
    object      Tf.gasAndLiquid;
}
// * * * * * * * * * * * * * * * * * * * * * * * * * * * * * * * * * * * * * //

dimensions      [0 0 0 1 0 0 0];

internalField   nonuniform List<scalar> 
1503
(
315.514956167
306.570758088
302.797122979
301.122150219
300.466559538
300.111450745
300.006365945
300.00005137
300.000000056
300
300
300
300
300
300
300
300
300
300
300
320.712871018
308.478277657
303.079372116
301.124384182
300.404575514
300.147084946
300.053499197
300.007595976
300.000152937
300.000000241
300
300
300
300
300
300
300
300
300
300
320.642752914
308.017046469
302.753531837
300.923029579
300.304491168
300.100727198
300.033782991
300.009707766
300.00088782
300.00001324
300.000000009
300
300
300
300
300
300
300
300
300
319.753834739
307.986701266
302.859927975
300.960579871
300.311750612
300.098504934
300.030010029
300.008822014
300.001766854
300.000096092
300.00000069
300
300
300
300
300
300
300
300
300
318.970409086
307.871045319
302.991163428
301.055620939
300.356971325
300.116950076
300.035652865
300.009924237
300.002649031
300.000335781
300.000008833
300.000000004
300
300
300
300
300
300
300
300
318.050219671
307.595956019
303.01547711
301.122045073
300.399409434
300.138953788
300.045457922
300.01303437
300.003444117
300.000806784
300.000046526
300.00000035
300
300
300
300
300
300
300
300
317.290728047
307.226789251
302.917425196
301.128334415
300.420420344
300.154719717
300.054978172
300.017158037
300.004602614
300.001244978
300.000159239
300.000003419
300
300
300
300
300
300
300
300
316.998590892
306.955068641
302.785736944
301.093820428
300.423426164
300.164251015
300.063026274
300.021711875
300.006130168
300.001583973
300.000388443
300.000016755
300.000000011
300
300
300
300
300
300
300
316.955492515
306.858958455
302.730493647
301.080224049
300.429942963
300.174892459
300.071682386
300.026932638
300.008202415
300.002055185
300.000545632
300.000061694
300.000000317
300
300
300
300
300
300
300
317.38800173
306.974258894
302.729270679
301.080722977
300.439274204
300.186130379
300.080802913
300.032877329
300.010760577
300.002690969
300.000633415
300.000150622
300.00000425
300.000000004
300
300
300
300
300
300
317.903525237
307.206766932
302.776392263
301.089324343
300.448359333
300.19616501
300.089349683
300.038906216
300.013808816
300.003461403
300.000725425
300.000173032
300.000018929
300.000000142
300
300
300
300
300
300
318.095760842
307.299614498
302.796613108
301.090763482
300.452795971
300.203549724
300.096597805
300.044547525
300.017133502
300.004434668
300.000821945
300.000164446
300.00004212
300.00000164
300.000000002
300
300
300
300
300
318.122946466
307.252187796
302.75138917
301.066815159
300.447468129
300.206922276
300.102196809
300.049618023
300.02049271
300.005684368
300.000971016
300.000158863
300.000038352
300.000005637
300.000000043
300
300
300
300
300
318.111428101
307.253033184
302.748565455
301.057632218
300.444461187
300.209894362
300.107330837
300.054440907
300.023850044
300.007159075
300.001220002
300.00016703
300.000035709
300.00001166
300.000000389
300
300
300
300
300
318.062931842
307.28119031
302.769380601
301.06267268
300.446319004
300.21407893
300.112774536
300.059229538
300.027146156
300.00876293
300.001566728
300.000190444
300.000036051
300.000011411
300.000001206
300.000000002
300
300
300
300
318.031589074
307.300684609
302.788490557
301.072920997
300.452060481
300.220067248
300.118775579
300.064072096
300.030344918
300.010395694
300.001998678
300.000231145
300.000039069
300.000011567
300.000002528
300.000000016
300
300
300
300
317.980134347
307.276724271
302.781320307
301.076942212
300.458803888
300.227481456
300.125357911
300.068987224
300.033412629
300.01201303
300.002515865
300.000293964
300.000044743
300.000012115
300.000003945
300.000000065
300
300
300
300
317.911445833
307.159527134
302.720581223
301.060465719
300.460755379
300.234248281
300.131969607
300.073784362
300.036327902
300.013642446
300.003128889
300.000381364
300.000051959
300.000012421
300.000003801
300.000000169
300
300
300
300
317.810459932
307.127332017
302.718992293
301.063777719
300.467724907
300.242224389
300.138758472
300.078362556
300.039147286
300.015315103
300.003884374
300.000504374
300.000061094
300.00001254
300.000002874
300.000000329
300.000000001
300
300
300
317.746112952
307.128570806
302.745857704
301.086950659
300.482919809
300.25267429
300.145805301
300.082748335
300.041888091
300.017182322
300.004817864
300.000672905
300.000073413
300.000013177
300.000002403
300.000000388
300
300
300
300
317.688131932
307.121450668
302.771875577
301.117181018
300.503286918
300.264750445
300.152971046
300.087020625
300.044734692
300.019327293
300.005900563
300.000884591
300.000092372
300.000014893
300.000002394
300.000000367
300
300
300
300
317.672209842
307.079412102
302.767588283
301.133232808
300.519728815
300.275519663
300.159394803
300.091055876
300.047863048
300.021627504
300.00708214
300.001140393
300.000117803
300.00001759
300.000002686
300.000000421
300
300
300
300
317.621999124
306.95602773
302.705610628
301.118215112
300.522559112
300.281183882
300.163959251
300.094824081
300.051091947
300.024078495
300.008361418
300.001437849
300.000148644
300.000021049
300.000003178
300.000000493
300.000000004
300
300
300
317.547250982
306.88541644
302.667263891
301.101649348
300.519279818
300.283142326
300.167335458
300.098573297
300.054618558
300.026790102
300.009778428
300.001801509
300.000187433
300.000024915
300.000003732
300.000000546
300.000000006
300
300
300
317.447234301
306.853628439
302.647880533
301.090229614
300.514916411
300.283696554
300.17042804
300.102640796
300.058603441
300.029844442
300.011381386
300.002281796
300.000238335
300.000029488
300.000004395
300.000000601
300.000000019
300
300
300
317.264864328
306.818504963
302.631784243
301.081048914
300.510781502
300.284066079
300.173696134
300.107158635
300.063016034
300.033060176
300.013178579
300.002876233
300.000315204
300.000036541
300.000005482
300.000000716
300.00000005
300
300
300
317.207745184
306.881238991
302.651510996
301.081298425
300.509452164
300.285678737
300.177723162
300.112053468
300.067429158
300.036107923
300.014962004
300.003565496
300.000430039
300.000048916
300.000007042
300.00000093
300.000000094
300
300
300
317.360687227
307.016012977
302.704866296
301.098697937
300.516266814
300.291080383
300.183333297
300.117276698
300.071403984
300.038798186
300.016540055
300.004444334
300.000570214
300.000060461
300.000007541
300.000001043
300.000000116
300
300
300
317.367531476
307.172456002
302.8399633
301.166899161
300.545557568
300.305148825
300.192028524
300.12333603
300.075385234
300.041295749
300.018279659
300.005437227
300.000769735
300.00007797
300.000008128
300.000000961
300.000000122
300
300
300
317.375862943
307.283738045
302.972847141
301.260974655
300.596453887
300.32957583
300.20469259
300.130805153
300.079945941
300.044085961
300.020421628
300.006704936
300.001056836
300.000108776
300.00001234
300.000001188
300.000000142
300
300
300
317.444350829
307.345931514
303.057919302
301.336941776
300.64849648
300.358218234
300.2198084
300.139433724
300.085370255
300.047898665
300.023310853
300.008382796
300.001483876
300.000156666
300.000021608
300.000001865
300.000000188
300
300
300
317.52641689
307.357248224
303.089689856
301.3725519
300.679200762
300.379777573
300.233371519
300.148270181
300.091793054
300.053109332
300.02730946
300.01064223
300.00208105
300.000225087
300.000034776
300.000003076
300.000000323
300
300
300
317.611837821
307.249877595
303.030662799
301.353401653
300.680636538
300.388235065
300.242728822
300.156755593
300.099264099
300.059531138
300.032292258
300.013541129
300.002941029
300.000324502
300.000051699
300.000006518
300.000000578
300
300
300
317.629600476
307.179010718
302.966087321
301.3198792
300.66959319
300.389622131
300.249502823
300.165105875
300.107445967
300.066820749
300.038208637
300.01716266
300.004217576
300.000507353
300.000073851
300.000012676
300.000000919
300
300
300
317.633407803
307.120814307
302.922259309
301.289853118
300.658016361
300.389928855
300.255747369
300.17355933
300.116093284
300.074804339
300.044939581
300.021670021
300.00616122
300.000848306
300.000110448
300.000021168
300.000001439
300
300
300
317.589247743
307.102876204
302.8955229
301.273758674
300.652034288
300.391902145
300.262673458
300.18244855
300.125193565
300.08325552
300.052248494
300.027202332
300.009020626
300.001487027
300.000179071
300.000033457
300.000004793
300.000000222
300
300
317.558743862
307.089834317
302.889866758
301.269878538
300.653920633
300.397543509
300.270738158
300.191969656
300.134671451
300.091899773
300.059855902
300.033668188
300.012997219
300.002650415
300.000318655
300.000051686
300.000010642
300.00000068
300.000000017
300
317.487476886
307.042149385
302.861623941
301.266842699
300.659644055
300.406758796
300.280388167
300.201803333
300.14415461
300.100458001
300.067350416
300.04027971
300.018012723
300.00459515
300.000624515
300.000079802
300.000018838
300.000001548
300.000000202
300
300
300
300
300
300
300
300
300
300
300
300
300
300
300
300
300
300
300
300
300
300
300
300
300
300
300
300
300
300
300
300
300
300
300
300
300
300
300
300
300
300
300
300
300
300
300
300
300
300
300
300
300
300
300
300
300
300
300
300
300
300
300
300
300
300
300
300
300
300
300
300
300
300
300
300
300
300
300
300
300
300
300
300
300
300
300
300
300
300
300
300
300
300
300
300
300
300
300
300
300
300
300
300
300
300
300
300
300
300
300
300
300
300
300
300
300
300
300
300
300
300
300
300
300
300
300
300
300
300
300
300
300
300
300
300
300
300
300
300
300
300
300
300
300
300
300
300
300
300
300
300
300
300
300
300
300
300
300
300
300
300
300
300
300
300
300
300
300
300
300
300
300
300
300
300
300
300
300
300
300
300
300
300
300
300
300
300
300
300
300
300
300
300
300
300
300
300
300
300
300
300
300
300
300
300
300
300
300
300
300
300
300
300
300
300
300
300
300
300
300
300
300
300
300
300
300
300
300
300
300
300
300
300
300
300
300
300
300
300
300
300
300
300
300
300
300
300
300
300
300
300
300
300
300
300
300
300
300
300
300
300
300
300
300
300
300
300
300
300
300
300
300
300
300
300
300
300
300
300
300
300
300
300
300
300
300
300
300
300
300
300
300
300
300
300
300
300
300
300
300
300
300
300
300
300
300
300
300
300
300
300
300
300
300
300
300
300
300
300
300
300
300
300
300
300
300
300
300
300
300
300
300
300
300
300
300
300
300
300
300
300
300
300
300
300
300
300
300
300
300
300
300
300
300
300
300
300
300
300
300
300
300
300
300
300
300
300
300
300
300
300
300
300
300
300
300
300
300
300
300
300
300
300
300
300
300
300
300
300
300
300
300
300
300
300
300
300
300
300
300
300
300
300
300
300
300
300
300
300
300
300
300
300
300
300
300
300
300
300
300
300
300
300
300
300
300
300
300
300
300
300
300
300
300
300
300
300
300
300
300
300
300
300
300
300
300
300
300
300
300
300
300
300
300
300
300
300
300
300
300
300
300
300
300
300
300
300
300
300
300
300
300
300
300
300
300
300
300
300
300
300
300
300
300
300
300
300
300
300
300
300
300
300
300
300
300
300
300
300
300
300
300
300
300
300
300
300
300
300
300
300
300
300
300
300
300
300
300
300
300
300
300
300
300
300
300
300
300
300
300
300
300
300
300
300
300
300
300
300
300
300
300
300
300
300
300
300
300
300
300
300
300
300
300
300
300
300
300
300
300
300
300
300
300
300
300
300
300
300
300
300
300
300
300
300
300
300
300
300
300
300
300
300
300
300
300
300
300
300
300
300
300
300
300
300
300
300
300
300
300
300
300
300
300
300
300
300
300
300
300
300
300
300
300
300
300
300
300
300
300
300
300
300
300
300
300
300
300
300
300
300
300
300
300
300
300
300
300
300
300
300
300
300
300
300
300
300
300
300
300
300
300
300
300
300
300
300
300
300
300
300
300
300
300
300
300
300
300
300
300
300
300
300
300
300
300
300
300
300
300
300
300
300
300
300
300
300
300
300
300
300
300
300
300
300
300
300
300
300
300
300
300
300
300
300
300
300
300
300
300
300
300
300
300
300
300
300
300
300
300
300
300
300
300
300
300
300
300
300
300
300
300
300
300
300
300
300
300
300
300
300
300
300
)
;

boundaryField
{
    emptyPatch
    {
        type            empty;
    }
    minY
    {
        type            calculated;
        value           nonuniform List<scalar> 
40
(
300
300
300
300
300
300
300
300
300
300
300
300
300
300
300
300
300
300
300
300
300
300
300
300
300
300
300
300
300
300
300
300
300
300
300
300
300
300
300
300
)
;
    }
    maxY
    {
        type            calculated;
        value           nonuniform List<scalar> 0();
    }
    water_to_cooler
    {
        type            calculated;
        value           nonuniform List<scalar> 
37
(
300
300
300
300
300
300
300
300
300
300
300
300
300
300
300
300
300
300
300
300
300
300
300
300
300
300
300
300
300
300
300
300
300
300
300
300
300
)
;
    }
    water_to_heater
    {
        type            calculated;
        value           nonuniform List<scalar> 
61
(
797.776702635
797.730687995
797.582577146
797.58315278
797.560474575
797.560233142
797.560180862
797.560633594
797.571810911
797.573598206
797.58077304
797.580966922
797.583772857
797.583506332
797.585080736
797.582405513
797.580076287
797.579879744
797.576370782
797.576781062
797.573869459
797.573525518
797.572488108
797.572869714
797.571616417
797.571965557
797.570066095
797.569683464
797.568678606
797.569001177
797.570228197
797.569879239
797.572431501
797.572118522
797.57423347
797.574500432
797.576644294
797.576520538
797.578994102
797.579053248
797.581764259
797.581419742
797.584292324
797.583205076
797.585284711
797.585105209
797.585678941
797.585964079
797.586625844
797.587040025
797.588691521
797.588284677
797.589787461
797.590230731
797.591157036
797.590776181
797.590620866
797.590317192
797.587786474
797.588042528
797.581625336
)
;
    }
    procBoundary2to3
    {
        type            processor;
        value           nonuniform List<scalar> 
41
(
317.430222202
307.071550486
302.894779087
301.286575639
300.67431379
300.420067607
300.291676499
300.211658637
300.153090525
300.108330637
300.074201979
300.046411317
300.023062179
300.007229968
300.001205205
300.000132045
300.000031147
300.000005979
300.00000043
300
300
300
300
300
300
300
300
300
300
300
300
300
300
300
300
300
300
300
300
300
300
)
;
    }
}


// ************************************************************************* //
