/*--------------------------------*- C++ -*----------------------------------*\
| =========                 |                                                 |
| \\      /  F ield         | OpenFOAM: The Open Source CFD Toolbox           |
|  \\    /   O peration     | Version:  2312                                  |
|   \\  /    A nd           | Website:  www.openfoam.com                      |
|    \\/     M anipulation  |                                                 |
\*---------------------------------------------------------------------------*/
FoamFile
{
    version     2.0;
    format      ascii;
    arch        "LSB;label=32;scalar=64";
    class       surfaceScalarField;
    location    "0.24/water";
    object      phi.gas;
}
// * * * * * * * * * * * * * * * * * * * * * * * * * * * * * * * * * * * * * //

dimensions      [0 3 -1 0 0 0 0];

oriented        oriented;

internalField   nonuniform List<scalar> 
2928
(
3.40836671479e-07
3.16602972177e-07
2.36300833302e-07
2.10843033717e-07
3.11371564995e-07
1.93552682656e-07
2.88126173605e-07
1.82941848315e-07
3.0070462814e-07
1.85123994741e-07
2.91745614155e-07
1.89105119821e-07
2.3886912915e-07
1.9530472705e-07
2.39393745645e-07
2.16565810917e-07
2.63668465365e-07
3.53115525231e-07
2.36956328321e-07
4.15758069708e-07
2.23678419142e-07
4.39850533322e-07
2.09653082601e-07
4.6283778093e-07
1.97002182279e-07
4.87144200864e-07
1.85132003118e-07
5.1271093658e-07
1.73921003165e-07
5.39646072789e-07
1.63146285647e-07
5.68015408954e-07
1.5261162188e-07
5.97891538204e-07
1.42059738169e-07
6.2935694065e-07
1.31262888104e-07
6.62504518722e-07
6.9742768542e-07
1.20010228642e-07
1.40328257258e-07
3.35884764382e-07
2.41856823518e-07
2.6433594754e-07
2.3864236519e-07
2.42355064816e-07
2.72017183068e-07
2.35576984155e-07
2.72939280534e-07
2.36406732308e-07
2.76264102305e-07
2.42416186413e-07
2.61320410154e-07
2.51251823221e-07
2.25206807902e-07
2.652850768e-07
1.20799565807e-07
3.21696413908e-07
8.17543619304e-08
3.62202308677e-07
7.38948048583e-08
3.77233588134e-07
6.75019759058e-08
3.94270368436e-07
6.17002558673e-08
4.12299153598e-07
5.62387822275e-08
4.31309530157e-07
5.09860075117e-08
4.51346890918e-07
4.58900904778e-08
4.72480049414e-07
4.09413013572e-08
4.94776056693e-07
3.61174573027e-08
5.18296600693e-07
3.14020918943e-08
5.43099190533e-07
5.69244441766e-07
2.67955384887e-08
1.60628495159e-07
4.08073514856e-07
2.04606523257e-07
3.22614183378e-07
2.16276561168e-07
2.88363217792e-07
2.32816957255e-07
2.76396863175e-07
2.39488988072e-07
2.74936688307e-07
2.41319341845e-07
2.78819644242e-07
2.37464613022e-07
2.8626422718e-07
2.20005401324e-07
2.98075023133e-07
1.55664357327e-07
3.30947972646e-07
6.7871019972e-08
3.69465170545e-07
6.86748949694e-08
3.91002410151e-07
6.52006658667e-08
4.09277169153e-07
6.15518359028e-08
4.28589483036e-07
5.78883863276e-08
4.4890591896e-07
5.40981863292e-08
4.70240701431e-07
5.00801235231e-08
4.92651771548e-07
4.58111685628e-08
5.16220636398e-07
4.12949215274e-08
5.41038482404e-07
3.65759704642e-08
5.6719922609e-07
5.94798576773e-07
3.17649594878e-08
2.20617377687e-07
4.41714190813e-07
2.36428326387e-07
3.706243332e-07
2.39382695607e-07
3.24097137929e-07
2.41636818249e-07
3.06034902892e-07
2.37297261198e-07
3.00983354964e-07
2.30268653684e-07
3.02769933798e-07
2.2131753277e-07
3.08588536407e-07
2.07393127768e-07
3.18097569032e-07
1.78277992249e-07
3.38699251742e-07
7.52254484429e-08
3.66220509837e-07
5.68017456184e-08
3.9000065457e-07
5.54769589772e-08
4.08497138003e-07
5.30995625343e-08
4.27887254906e-07
5.0492037316e-08
4.48326525646e-07
4.77364441907e-08
4.69779319446e-07
4.47558223386e-08
4.92277936148e-07
4.14886154146e-08
5.15887828992e-07
3.78981023869e-08
5.40695052447e-07
3.40089871806e-08
5.6679759788e-07
5.94300776682e-07
2.99508692536e-08
2.60347593665e-07
4.59899281304e-07
2.74186686079e-07
4.05562940365e-07
2.67538799492e-07
3.57010013777e-07
2.63280540189e-07
3.30786003057e-07
2.52764835284e-07
3.21771160729e-07
2.38515758979e-07
3.20968776138e-07
2.21798118519e-07
3.24953132855e-07
2.03780650836e-07
3.3255163132e-07
1.80177372056e-07
3.46954737416e-07
1.23536500741e-07
3.67674048603e-07
4.54499260715e-08
3.89502369428e-07
5.15088519729e-08
4.09950306914e-07
4.95620582814e-08
4.29544914781e-07
4.72731858385e-08
4.50227641914e-07
4.48369518251e-08
4.71956646032e-07
4.22405257703e-08
4.94750663754e-07
3.94256723272e-08
5.18658694108e-07
3.63319240805e-08
5.43754762e-07
3.29561141211e-08
5.70130422393e-07
5.97888209941e-07
2.941867824e-08
2.86567049126e-07
4.66003087587e-07
2.98224538163e-07
4.27277679066e-07
2.86641756076e-07
3.85564613456e-07
2.7895134708e-07
3.53587504654e-07
2.68890363069e-07
3.39582128905e-07
2.54104258509e-07
3.35889499743e-07
2.33980467248e-07
3.37842149103e-07
2.1067218984e-07
3.43603223164e-07
1.85298819854e-07
3.54276123887e-07
1.50610998537e-07
3.70233704792e-07
4.75454765868e-08
3.89085614912e-07
4.96508472285e-08
4.11194786458e-07
4.81319125756e-08
4.30631613356e-07
4.60199911138e-08
4.51437986804e-07
4.36957267689e-08
4.73354957316e-07
4.12139067621e-08
4.96364334531e-07
3.85518055572e-08
5.20501577662e-07
3.56567986459e-08
5.45829115085e-07
3.25186141852e-08
5.72429013892e-07
6.0039880752e-07
2.92490760662e-08
2.91469931435e-07
4.67697086423e-07
3.02045641266e-07
4.3892451251e-07
2.92449597036e-07
4.05758169977e-07
2.81828412975e-07
3.75786493159e-07
2.74060830316e-07
3.56092733491e-07
2.63937952473e-07
3.49093294722e-07
2.46997213759e-07
3.48831583321e-07
2.23125861824e-07
3.52727314701e-07
1.95802579654e-07
3.60738621691e-07
1.64530836972e-07
3.73390574933e-07
1.00739654106e-07
3.89816719409e-07
4.48734071773e-08
4.08930918461e-07
4.83139422957e-08
4.31580229902e-07
4.64188201669e-08
4.52598474977e-07
4.4178666948e-08
4.74721143913e-07
4.1710223634e-08
4.97953223573e-07
3.90392910813e-08
5.22324514878e-07
3.61394348642e-08
5.47888563283e-07
3.30210415954e-08
5.74720427321e-07
6.02909465978e-07
2.97710024239e-08
2.82856663969e-07
4.70618398675e-07
2.92911669479e-07
4.46463300158e-07
2.8684690975e-07
4.19907411695e-07
2.77008390855e-07
3.94315486335e-07
2.7089635977e-07
3.72932160865e-07
2.65801992526e-07
3.61687543192e-07
2.55276427243e-07
3.5921907851e-07
2.35439513377e-07
3.61144731483e-07
2.08493313898e-07
3.66808714086e-07
1.78507179749e-07
3.76833308838e-07
1.38681951972e-07
3.91068187792e-07
3.54466742674e-08
4.08213136534e-07
5.04602353379e-08
4.33117606898e-07
4.86761618054e-08
4.53715510819e-07
4.63441644436e-08
4.76047177993e-07
4.37009727867e-08
4.99520897742e-07
4.08177924221e-08
5.24138078747e-07
3.77028775972e-08
5.49944653348e-07
3.43753041237e-08
5.7700732321e-07
6.05406461729e-07
3.09079707497e-08
2.83312866775e-07
4.70804615031e-07
2.97511244445e-07
4.4988249661e-07
2.86474567881e-07
4.29742330815e-07
2.77116906626e-07
4.09329122416e-07
2.7003284838e-07
3.90297033515e-07
2.67263509208e-07
3.75839448851e-07
2.61988340044e-07
3.70501759808e-07
2.47406955494e-07
3.70182292717e-07
2.22944752293e-07
3.73483433116e-07
1.93837083717e-07
3.81016775207e-07
1.60620066401e-07
3.9325118366e-07
9.50844394216e-08
4.09318931554e-07
5.1742025316e-08
4.28935647866e-07
5.34162809306e-08
4.54983318156e-07
5.05677888993e-08
4.77554016338e-07
4.73637183966e-08
5.0130550811e-07
4.39218502236e-08
5.2618436029e-07
4.02722274156e-08
5.52229801559e-07
3.64365501697e-08
5.79503120013e-07
6.08084124148e-07
3.25058930019e-08
2.80928747532e-07
4.70194305888e-07
3.00154553226e-07
4.50866893778e-07
2.87801840634e-07
4.35920791009e-07
2.80635485714e-07
4.21085805835e-07
2.75025077202e-07
4.06356943368e-07
2.72233654691e-07
3.92521851356e-07
2.68816893613e-07
3.8366752718e-07
2.58530064858e-07
3.80933691553e-07
2.37577873125e-07
3.81748261704e-07
2.0965928423e-07
3.86739894623e-07
1.80309505953e-07
3.96893610484e-07
1.39593765282e-07
4.11551779668e-07
3.97776180498e-08
4.28676342214e-07
6.12026171166e-08
4.57327616874e-07
5.6997096384e-08
4.79773321699e-07
5.25655457542e-08
5.03756170773e-07
4.80320031714e-08
5.28824115229e-07
4.34183070641e-08
5.55027536935e-07
3.87572271391e-08
5.8242976618e-07
6.11110107603e-07
3.41300584619e-08
2.72288023533e-07
4.70118115108e-07
2.98066213193e-07
4.50812434433e-07
2.88980785049e-07
4.39967709443e-07
2.85701125855e-07
4.30838038849e-07
2.82100262642e-07
4.21628655832e-07
2.78202566286e-07
4.10864484257e-07
2.74033333279e-07
3.99954547603e-07
2.66412047309e-07
3.94171759504e-07
2.49434777836e-07
3.92414741377e-07
2.23884299735e-07
3.94775197135e-07
1.95818282979e-07
4.02541841314e-07
1.63263180183e-07
4.15564217832e-07
9.12182384781e-08
4.32407386735e-07
6.86324116563e-08
4.5839504429e-07
6.41119499258e-08
4.83446136991e-07
5.78564237047e-08
5.07301754096e-07
5.18054265129e-08
5.32380638383e-07
4.59565273821e-08
5.58571167301e-07
4.03023888629e-08
5.85938411424e-07
6.14566482518e-07
3.48864894836e-08
2.58484170007e-07
4.73536376574e-07
2.91690809569e-07
4.52366462725e-07
2.87353881209e-07
4.44337626929e-07
2.87871146048e-07
4.40758436832e-07
2.85669593928e-07
4.37313771896e-07
2.81246441998e-07
4.30362558916e-07
2.75179807491e-07
4.19414350469e-07
2.68079120637e-07
4.09918632551e-07
2.55009063268e-07
4.0576318366e-07
2.32576035865e-07
4.05548193697e-07
2.05158289769e-07
4.10501313044e-07
1.76386455753e-07
4.21279703585e-07
1.31081978016e-07
4.36700170143e-07
5.54091320524e-08
4.55592465726e-07
6.84746818034e-08
4.88559460573e-07
6.02350736832e-08
5.12173601624e-07
5.27367280636e-08
5.3694799154e-07
4.58215041257e-08
5.62839828975e-07
3.94077344872e-08
5.89930812718e-07
6.18307002789e-07
3.34663187303e-08
2.41895505872e-07
4.83658506256e-07
2.78991969179e-07
4.58674834228e-07
2.77153913809e-07
4.51718118765e-07
2.79024521035e-07
4.52172883169e-07
2.77344619601e-07
4.53657464346e-07
2.73159120187e-07
4.50090342776e-07
2.66798442133e-07
4.39701742433e-07
2.6054731163e-07
4.27175924314e-07
2.50425761752e-07
4.20572050298e-07
2.30798309476e-07
4.17868874517e-07
2.04239937876e-07
4.19821158956e-07
1.76171944824e-07
4.27748959658e-07
1.40252586107e-07
4.41055252895e-07
5.012720885e-08
4.5853234808e-07
6.39643479007e-08
4.96289951804e-07
5.52631437054e-08
5.17893898442e-07
4.74479842716e-08
5.41908472708e-07
4.04808164798e-08
5.67230750912e-07
3.42101432415e-08
5.93839561938e-07
6.21812889881e-07
2.85322848003e-08
2.47977255556e-07
4.96299720915e-07
2.85127374124e-07
4.70814936801e-07
2.71114818442e-07
4.6476845389e-07
2.65744009034e-07
4.67395534665e-07
2.60275790955e-07
4.71494106933e-07
2.55869170283e-07
4.69316108709e-07
2.51198302365e-07
4.58906533645e-07
2.45657235425e-07
4.44482444032e-07
2.36173617595e-07
4.34565822084e-07
2.17988869213e-07
4.29415144596e-07
1.91756634424e-07
4.28315261145e-07
1.62306957789e-07
4.3307139072e-07
1.29222710986e-07
4.43692175163e-07
7.26762093303e-08
4.59371689481e-07
4.28107518179e-08
4.91988943621e-07
3.93989888374e-08
5.22152519109e-07
3.34547387652e-08
5.45819345272e-07
2.82892322897e-08
5.70520901771e-07
2.36870287976e-08
5.96633549285e-07
6.24233461098e-07
1.95154398755e-08
2.66378470567e-07
5.12892353342e-07
2.88582240676e-07
4.87884805706e-07
2.60597351045e-07
4.81654533895e-07
2.42660190992e-07
4.84587888453e-07
2.32249114578e-07
4.88206274877e-07
2.29660093254e-07
4.84771430742e-07
2.28658186871e-07
4.7359233028e-07
2.23944390541e-07
4.58513848237e-07
2.14538265586e-07
4.45139936572e-07
1.97786027386e-07
4.36773680385e-07
1.72129002338e-07
4.3285467937e-07
1.41227521997e-07
4.34658096899e-07
1.09836361073e-07
4.42641862435e-07
7.03952241152e-08
4.56200689666e-07
-1.40917333924e-08
4.76502752109e-07
1.22883278148e-08
5.26531839178e-07
1.11635018556e-08
5.46867011956e-07
1.00413064005e-08
5.7117680795e-07
8.82112244478e-09
5.97134196224e-07
6.24682839778e-07
7.45860363667e-09
2.76825078022e-07
5.28868851578e-07
2.67455236853e-07
5.03350134414e-07
2.30402208879e-07
4.95955622414e-07
2.06312035077e-07
4.97544813232e-07
1.9768445882e-07
4.98321033651e-07
2.00643375488e-07
4.922236056e-07
2.04809155381e-07
4.80231866026e-07
2.03669698763e-07
4.65400306146e-07
1.96192063764e-07
4.50808668918e-07
1.82026866554e-07
4.39220587732e-07
1.5909956695e-07
4.3260530564e-07
1.27427611519e-07
4.31901821136e-07
9.35591435522e-08
4.37753278866e-07
6.03913207517e-08
4.49747815844e-07
3.86437059473e-09
4.67831436743e-07
-2.20837632124e-08
5.04599698461e-07
-1.42136582414e-08
5.42674884256e-07
-9.82181765935e-09
5.68210049516e-07
-6.67166727868e-09
5.94725341891e-07
6.22805914095e-07
-4.58299309412e-09
2.63780623963e-07
5.37779848357e-07
2.36293043753e-07
5.14000974104e-07
2.03945472929e-07
5.05525472353e-07
1.8436977918e-07
5.05187035249e-07
1.80703936001e-07
5.02984100528e-07
1.87760537824e-07
4.945474702e-07
1.95867718797e-07
4.81968860204e-07
1.99421054436e-07
4.6774355511e-07
1.9682772867e-07
4.53762358812e-07
1.86495588484e-07
4.41349989911e-07
1.66397724674e-07
4.32508860942e-07
1.35877286757e-07
4.29166350068e-07
9.86961212321e-08
4.32523094932e-07
6.58750961007e-08
4.42819427187e-07
3.00488954427e-08
4.59628133062e-07
-6.38275281586e-08
4.82387210923e-07
-3.25204253873e-08
5.39058881064e-07
-2.3631596107e-08
5.62525081209e-07
-1.69940305693e-08
5.90236159124e-07
6.19346526169e-07
-1.2238044401e-08
2.50459387824e-07
5.46564119002e-07
2.28330619192e-07
5.23683882508e-07
2.02231254133e-07
5.14592143271e-07
1.87627512454e-07
5.12211768141e-07
1.86740317001e-07
5.07502687776e-07
1.95593747356e-07
4.97342339317e-07
2.06708205879e-07
4.84375514428e-07
2.14783663655e-07
4.70662673925e-07
2.16715286779e-07
4.57373297299e-07
2.0974836582e-07
4.45856335896e-07
1.90777131767e-07
4.36812459322e-07
1.61439013851e-07
4.3091969116e-07
1.2498916745e-07
4.31024910761e-07
8.88392664393e-08
4.38758327347e-07
5.87596594855e-08
4.5424378744e-07
5.35928314438e-09
4.75450904708e-07
-3.73484912165e-08
5.10921627555e-07
-2.4527725273e-08
5.56654693429e-07
-1.72106176641e-08
5.85686879909e-07
6.15911068708e-07
-1.19596939929e-08
2.5897973604e-07
5.51442455278e-07
2.42947175758e-07
5.3007596719e-07
2.15026778552e-07
5.23057240708e-07
2.01002036825e-07
5.19661368015e-07
2.00866858007e-07
5.12783348019e-07
2.11224564175e-07
5.01300683106e-07
2.2438055814e-07
4.88148728082e-07
2.35453635272e-07
4.74921662369e-07
2.41874540138e-07
4.62565345748e-07
2.38333951827e-07
4.52618894416e-07
2.18940462169e-07
4.45052398205e-07
1.89576864799e-07
4.38381700842e-07
1.56722639745e-07
4.35200271267e-07
1.22382233811e-07
4.3975163773e-07
9.5795797436e-08
4.53083720629e-07
6.40403678286e-08
4.7319194347e-07
-3.90964021039e-08
4.95496797593e-07
-1.06934049661e-08
5.53162006971e-07
-6.14762012072e-09
5.83065078028e-07
6.14087951667e-07
-3.02352115608e-09
2.57845517886e-07
5.52503386816e-07
2.46181557954e-07
5.32288399357e-07
2.20125940662e-07
5.27649491612e-07
2.07993214291e-07
5.24715890459e-07
2.0941769246e-07
5.16804074897e-07
2.21294353891e-07
5.04730631617e-07
2.36843922656e-07
4.91924383324e-07
2.52601916026e-07
4.79789791908e-07
2.64457769163e-07
4.69621804608e-07
2.6331063066e-07
4.62380580907e-07
2.44491820287e-07
4.5625866434e-07
2.13691576797e-07
4.50334023561e-07
1.82458749273e-07
4.44898750128e-07
1.53643596146e-07
4.46386439561e-07
1.29038519996e-07
4.56872571903e-07
1.05507584216e-07
4.75533117982e-07
3.84939301796e-08
4.98377468229e-07
1.32535121237e-08
5.5275911463e-07
1.30674091478e-08
5.83497330385e-07
6.14795287275e-07
1.21014534662e-08
2.52527457163e-07
5.54099185542e-07
2.45410190781e-07
5.33466303768e-07
2.19611363901e-07
5.30639407816e-07
2.09773029571e-07
5.28057524232e-07
2.12991869692e-07
5.19729655898e-07
2.27345101804e-07
5.07730182289e-07
2.47797274746e-07
4.95915512457e-07
2.70249910239e-07
4.85948152421e-07
2.84525187107e-07
4.79440650365e-07
2.82584884645e-07
4.74970847902e-07
2.64399371138e-07
4.70189896706e-07
2.32416030938e-07
4.65302291336e-07
2.00781259792e-07
4.5918776809e-07
1.75922791239e-07
4.57916614104e-07
1.54690198917e-07
4.65204357856e-07
1.3653950646e-07
4.81653544941e-07
9.9020804327e-08
5.0394286978e-07
3.61654769824e-08
5.43302272261e-07
3.44958404007e-08
5.8716761641e-07
6.18134251474e-07
2.88378912466e-08
2.40426786404e-07
5.58544283503e-07
2.35526428355e-07
5.35695717546e-07
2.12969155273e-07
5.32943988923e-07
2.08237608713e-07
5.30186586239e-07
2.16372898944e-07
5.21963313924e-07
2.36321591102e-07
5.10858312717e-07
2.63331597389e-07
5.00826852025e-07
2.8721658041e-07
4.94343212286e-07
2.98125877345e-07
4.91834436608e-07
2.96530471292e-07
4.90051375725e-07
2.79371989922e-07
4.86885009747e-07
2.46903829726e-07
4.83203347559e-07
2.13775552084e-07
4.77665234621e-07
1.89793611851e-07
4.73651346966e-07
1.71067748181e-07
4.77248681425e-07
1.55992488977e-07
4.90712301945e-07
1.28804099602e-07
5.11444375689e-07
4.81813915625e-08
5.32248116951e-07
5.16958279313e-08
5.93318879068e-07
6.23522172536e-07
4.22145612474e-08
2.22227766516e-07
5.73034247833e-07
2.18972710734e-07
5.42680179844e-07
2.0182518304e-07
5.35925964855e-07
2.04959389313e-07
5.31268825935e-07
2.20903792358e-07
5.23524001792e-07
2.47934772785e-07
5.14291333769e-07
2.78063631877e-07
5.07056139441e-07
2.97497604816e-07
5.04980371995e-07
3.05417548195e-07
5.05856789755e-07
3.05408533914e-07
5.06767632712e-07
2.90954044617e-07
5.05856277176e-07
2.59366349435e-07
5.04512288693e-07
2.21617900713e-07
5.00312606122e-07
1.96008615108e-07
4.92435205713e-07
1.78431129009e-07
4.91828199144e-07
1.62082273418e-07
5.01380390984e-07
1.36856658765e-07
5.19483800411e-07
5.57226283324e-08
5.30632720628e-07
5.97829823159e-08
6.00738384496e-07
6.29940649935e-07
4.84430728237e-08
2.19384315938e-07
5.88071525134e-07
2.21252317045e-07
5.51108050402e-07
2.02351281285e-07
5.40217386915e-07
2.08946193391e-07
5.32853507463e-07
2.29782380123e-07
5.25536654786e-07
2.60906455645e-07
5.18659768131e-07
2.86841434158e-07
5.14895568093e-07
3.0141578857e-07
5.16760769178e-07
3.11190245385e-07
5.20574383945e-07
3.13320382478e-07
5.23839582227e-07
3.03124904434e-07
5.25609460301e-07
2.69362455935e-07
5.28039351592e-07
2.22505326579e-07
5.25513787073e-07
1.94576556938e-07
5.12013928546e-07
1.76982663315e-07
5.07008011757e-07
1.57517748541e-07
5.11576817072e-07
1.30218876527e-07
5.2613928216e-07
5.98247176638e-08
5.40093310366e-07
5.64529316736e-08
6.07122878261e-07
6.3601972194e-07
4.57572081529e-08
2.22527509676e-07
6.01961762568e-07
2.32146590433e-07
5.59164263118e-07
2.12928319077e-07
5.44805130869e-07
2.20088435386e-07
5.35673355142e-07
2.41733807189e-07
5.29154452254e-07
2.70833513899e-07
5.2466525042e-07
2.91005653853e-07
5.24282870295e-07
3.05319688118e-07
5.28857702481e-07
3.17097807513e-07
5.34770886858e-07
3.22991416646e-07
5.39985953381e-07
3.14636737132e-07
5.44654311934e-07
2.66959281993e-07
5.49390702885e-07
2.17362006117e-07
5.47755512783e-07
1.90127639021e-07
5.33550907622e-07
1.69924188948e-07
5.20986310135e-07
1.46192196176e-07
5.197926949e-07
1.15356809359e-07
5.30127534245e-07
6.22547126204e-08
5.47960977623e-07
4.28461641199e-08
6.13537127433e-07
6.40360740165e-07
3.51007894796e-08
2.25638618608e-07
6.12939750946e-07
2.44197132865e-07
5.65445683779e-07
2.27967783131e-07
5.49456327052e-07
2.35288949557e-07
5.40878863662e-07
2.54701290162e-07
5.36228333706e-07
2.78035035888e-07
5.33899676665e-07
2.95011905823e-07
5.35777286297e-07
3.10002117636e-07
5.41951310286e-07
3.23137312415e-07
5.49063138179e-07
3.31190001346e-07
5.55878327519e-07
3.03901413978e-07
5.62174237284e-07
2.52627715251e-07
5.66116112529e-07
2.16597482867e-07
5.65138053765e-07
1.85226515021e-07
5.55374099802e-07
1.60570916203e-07
5.34557015684e-07
1.32990291754e-07
5.26812231425e-07
9.98545848222e-08
5.32281475823e-07
5.65094436972e-08
5.49533890012e-07
2.49802997751e-08
6.00004064949e-07
6.43077046505e-07
1.99391655082e-08
2.23984381096e-07
6.23173075114e-07
2.5263362621e-07
5.71161216671e-07
2.41074328114e-07
5.55868283781e-07
2.48479528707e-07
5.50393762245e-07
2.64783811806e-07
5.48848875442e-07
2.84096933512e-07
5.48423347791e-07
2.99456714711e-07
5.51048370102e-07
3.13466458301e-07
5.57564451308e-07
3.24740622436e-07
5.64874764764e-07
3.13033381891e-07
5.71747985799e-07
2.73486652338e-07
5.77162661203e-07
2.40233308464e-07
5.78958178739e-07
2.087553524e-07
5.7821210376e-07
1.77898356181e-07
5.72289912748e-07
1.50179888685e-07
5.51027446224e-07
1.20066817916e-07
5.33554679235e-07
8.64639019469e-08
5.33989601601e-07
4.57069046217e-08
5.48684954557e-07
1.57271476104e-09
5.7439239554e-07
6.44264558731e-07
2.7349925541e-09
2.1938266733e-07
6.34363666065e-07
2.55207147989e-07
5.798106242e-07
2.46030802e-07
5.6685147393e-07
2.52575573264e-07
5.66047820223e-07
2.67373323323e-07
5.68320763884e-07
2.84934949981e-07
5.6887978161e-07
2.9721892399e-07
5.70420715901e-07
3.0465189022e-07
5.75327406235e-07
2.96064647287e-07
5.80132336383e-07
2.66068034735e-07
5.83979949035e-07
2.38915701488e-07
5.85907920518e-07
2.18103190752e-07
5.86675818811e-07
1.93021880042e-07
5.86637840315e-07
1.66867906691e-07
5.83309228448e-07
1.36346556667e-07
5.67035231924e-07
1.07391895224e-07
5.39594276618e-07
7.41082232462e-08
5.35757487107e-07
3.50743273185e-08
5.47249427548e-07
-1.43068880651e-08
5.6796756398e-07
6.47277399967e-07
-1.69882448246e-08
2.39920273901e-07
6.40872290478e-07
2.81068813461e-07
5.93274912565e-07
2.58146235952e-07
5.86672662311e-07
2.54389923075e-07
5.92635365835e-07
2.60202883834e-07
5.97031357638e-07
2.68842841683e-07
5.94274512197e-07
2.68221357587e-07
5.91513550757e-07
2.54807844671e-07
5.92054081812e-07
2.3121096421e-07
5.91966883138e-07
2.11374620454e-07
5.9020446819e-07
2.01068186793e-07
5.88307059266e-07
1.89222189687e-07
5.8846770232e-07
1.71032025929e-07
5.90219128737e-07
1.47101570329e-07
5.89190423522e-07
1.21098623845e-07
5.77628596341e-07
9.70867467069e-08
5.46377463289e-07
6.48225460453e-08
5.37972940595e-07
2.82983816528e-08
5.4569767851e-07
-1.37257458273e-08
5.64582468107e-07
6.35136593689e-07
-4.11780820474e-08
2.68461878563e-07
6.45997107722e-07
3.00284504114e-07
6.10298274803e-07
2.57881577334e-07
6.16210805829e-07
2.27045252165e-07
6.33650572002e-07
2.10364596522e-07
6.34958912097e-07
2.01861616698e-07
6.212709967e-07
1.87350446428e-07
6.10906492566e-07
1.70359228296e-07
6.05463452326e-07
1.5957066969e-07
5.98853917385e-07
1.57413755781e-07
5.91137375785e-07
1.58409319265e-07
5.85948586259e-07
1.54828134687e-07
5.85272134363e-07
1.43935768294e-07
5.8843385987e-07
1.2661465024e-07
5.8993271275e-07
1.08807659429e-07
5.81864775185e-07
8.95444578362e-08
5.53492337342e-07
5.88091471279e-08
5.39867729774e-07
2.32727688955e-08
5.43436251403e-07
-1.40715859614e-08
5.59619857271e-07
5.95835954481e-07
-7.32426848991e-08
2.90376208504e-07
6.42488391808e-07
2.89929473557e-07
6.24573855356e-07
2.16058547365e-07
6.54655030939e-07
1.45930823064e-07
6.89981233728e-07
1.08792915778e-07
6.78186784602e-07
9.47887831027e-08
6.4529825864e-07
8.76047353002e-08
6.23418382506e-07
8.68269892011e-08
6.10345659102e-07
9.30530707367e-08
5.97487113943e-07
1.04243641012e-07
5.85591120436e-07
1.14378301886e-07
5.79940253983e-07
1.176442928e-07
5.78204432885e-07
1.15327773081e-07
5.80172200184e-07
1.08238894924e-07
5.83261848708e-07
1.00274355274e-07
5.79150748419e-07
8.5256504466e-08
5.58822306749e-07
5.68538464069e-08
5.4055869645e-07
1.9455981862e-08
5.39721650519e-07
-1.60226142411e-08
5.52791641069e-07
5.77240407124e-07
-7.75396664231e-08
2.90247010626e-07
6.29174531315e-07
2.47611303982e-07
6.33853504348e-07
1.51673502255e-07
7.00171741776e-07
6.4149904652e-08
7.53984511652e-07
2.10256833468e-08
7.18563393226e-07
9.32391671092e-09
6.63310099507e-07
1.51892650684e-08
6.26388787803e-07
2.91625837103e-08
6.04983664968e-07
4.67640211669e-08
5.87549871673e-07
6.55031255512e-08
5.74253545449e-07
8.10476655845e-08
5.70141140332e-07
9.02422891595e-08
5.68356037116e-07
9.55055544659e-08
5.68113424452e-07
9.93519074035e-08
5.70650478717e-07
1.00176936332e-07
5.7087796384e-07
8.68454666377e-08
5.61441243725e-07
5.9795946069e-08
5.40871375922e-07
2.08680054958e-08
5.34350501979e-07
-1.3493835245e-08
5.4380218978e-07
5.65163088186e-07
-5.5289690009e-08
2.62905592702e-07
6.22755098658e-07
1.93740820873e-07
6.49122186363e-07
1.200736444e-07
7.42812715578e-07
6.03559875716e-08
8.04597031312e-07
1.27852045823e-08
7.57210642887e-07
-5.47465237928e-09
6.81731838569e-07
1.17310614959e-09
6.27818761857e-07
1.84742821027e-08
5.96966377459e-07
3.87892858325e-08
5.75675102991e-07
5.88799207233e-08
5.62066424539e-07
7.73007895062e-08
5.59387447513e-07
9.04785305143e-08
5.58261231641e-07
9.98299439858e-08
5.56459953143e-07
1.0919376507e-07
5.57045877096e-07
1.13296286629e-07
5.60025539023e-07
9.7184442576e-08
5.61231261069e-07
6.85371295984e-08
5.42809136413e-07
3.01329607445e-08
5.27325172743e-07
-4.31564359916e-09
5.32973322289e-07
5.52568294612e-07
-3.74157243765e-08
2.47280260889e-07
6.24376715065e-07
1.78445342729e-07
6.74400474321e-07
1.5072704691e-07
7.60327539482e-07
1.29952008242e-07
8.25346552037e-07
7.2694164038e-08
8.0509636334e-07
4.27880988024e-08
7.07843414866e-07
4.0660175318e-08
6.35884779553e-07
5.27193210722e-08
5.94533414445e-07
6.97071896972e-08
5.6892177692e-07
8.73862700308e-08
5.54622698099e-07
1.05568060663e-07
5.52310520448e-07
1.19777392705e-07
5.51526937631e-07
1.29196396188e-07
5.4883313146e-07
1.37432380926e-07
5.47425429583e-07
1.35454368895e-07
5.51251001237e-07
1.1440765428e-07
5.59291078217e-07
8.60505434336e-08
5.47183427034e-07
5.12096634712e-08
5.22717904314e-07
1.41953426618e-08
5.23603219045e-07
5.41447984038e-07
-1.70335792792e-08
2.46999352799e-07
6.28442151181e-07
1.95424933735e-07
6.92894421851e-07
1.78416145368e-07
7.69546894807e-07
1.64659421527e-07
8.34506118239e-07
1.2718924232e-07
8.385613912e-07
9.93223106746e-08
7.33533681143e-07
9.49457088948e-08
6.4723821401e-07
1.04211943024e-07
5.9726266912e-07
1.18688162032e-07
5.68122906828e-07
1.34102030212e-07
5.53270592832e-07
1.50313848425e-07
5.50885390187e-07
1.6332243389e-07
5.5014417627e-07
1.70934786988e-07
5.47068049538e-07
1.73654236108e-07
5.44516483461e-07
1.63669536217e-07
5.48628055293e-07
1.39542480499e-07
5.60097175074e-07
1.12040786539e-07
5.53030879148e-07
7.99199245066e-08
5.24922784245e-07
4.3048371038e-08
5.18865578471e-07
5.33743309113e-07
1.14669918083e-08
2.48741779872e-07
6.33145490768e-07
2.07640068034e-07
7.04503704003e-07
1.885106726e-07
7.77427815424e-07
1.73578307063e-07
8.41147280856e-07
1.54609731649e-07
8.54195608962e-07
1.38889861043e-07
7.49830858713e-07
1.40534075371e-07
6.56253076592e-07
1.5207194855e-07
6.01663760341e-07
1.67207253176e-07
5.70865559321e-07
1.8210254315e-07
5.56507222054e-07
1.96490000875e-07
5.54360772949e-07
2.07864988287e-07
5.53718470462e-07
2.13524780952e-07
5.50796356362e-07
2.11991624536e-07
5.47824747584e-07
1.9736375487e-07
5.51797906144e-07
1.69775770405e-07
5.6508909045e-07
1.39805165527e-07
5.60826275739e-07
1.08388325712e-07
5.33315638307e-07
7.49668362204e-08
5.19495556729e-07
5.30344888103e-07
4.60896378778e-08
2.45537573032e-07
6.38973566008e-07
2.06141534611e-07
7.13657228646e-07
1.86514384376e-07
7.84919350902e-07
1.72009285111e-07
8.45308425506e-07
1.60422683418e-07
8.5857379434e-07
1.60603979106e-07
7.51848596153e-07
1.71956677425e-07
6.58451668466e-07
1.88729664739e-07
6.04170906994e-07
2.07493648345e-07
5.74458174644e-07
2.23707067189e-07
5.62384596919e-07
2.36900056279e-07
5.61006241635e-07
2.47101607961e-07
5.60767234411e-07
2.51330603076e-07
5.58384125154e-07
2.47998127109e-07
5.55669373802e-07
2.30206090393e-07
5.59534097962e-07
1.98747145355e-07
5.73828151132e-07
1.64879376696e-07
5.71298911657e-07
1.33335849934e-07
5.45601865319e-07
1.04606139678e-07
5.25291348494e-07
5.31355788765e-07
7.64181227229e-08
2.34049994539e-07
1.91885028016e-07
1.70221801729e-07
1.56472111373e-07
1.54675791779e-07
1.70400698607e-07
1.9251817613e-07
2.16946892825e-07
2.40821846773e-07
2.57985070919e-07
2.70017039004e-07
2.79132657616e-07
2.82116790597e-07
2.78213736936e-07
2.57371649209e-07
2.23195017883e-07
1.87548750802e-07
1.55603190919e-07
1.29921784941e-07
1.02400470964e-07
1.08116269307e-07
6.99659932543e-07
9.54309050711e-08
6.68871629676e-07
8.1711796377e-08
6.39421981142e-07
6.65649985297e-08
6.11216717476e-07
4.96384191211e-08
5.84137116036e-07
3.07423989374e-08
5.58021641038e-07
1.01117036436e-08
5.3268347203e-07
-1.15874701199e-08
5.07968941008e-07
-3.34364473182e-08
4.83826837135e-07
-5.47179793782e-08
4.60323481264e-07
-7.51349559238e-08
4.37582675358e-07
-9.48721579246e-08
4.15707002419e-07
-1.1444827066e-07
3.94735765301e-07
-1.3442879031e-07
3.74661936904e-07
-1.54516747823e-07
3.55527609676e-07
-1.70088279791e-07
3.37682175067e-07
-1.99168895617e-07
3.20391724221e-07
-1.46535286472e-07
3.07343510602e-07
-1.04337481131e-06
2.51328628172e-07
2.61140850734e-07
2.23521664449e-08
5.68714118195e-07
1.81061926335e-08
5.41572976285e-07
1.40287091549e-08
5.15836523403e-07
1.00695197914e-08
4.91421324765e-07
6.18741742671e-09
4.68265790281e-07
2.34806886209e-09
4.46321247984e-07
-1.46670422827e-09
4.2554294016e-07
-5.2767551085e-09
4.05880191292e-07
-9.09818734389e-09
3.87270069569e-07
-1.29687833751e-08
3.6963954553e-07
-1.69547761154e-08
3.52915010407e-07
-2.11652420626e-08
3.37034377202e-07
-2.56659941784e-08
3.21958023423e-07
-3.02038038283e-08
3.07675260017e-07
-3.3971716392e-08
2.94187042391e-07
-3.66372962866e-08
2.81407416977e-07
-3.94205205122e-08
2.69147159753e-07
-4.63364708682e-08
2.55514604824e-07
-1.33157847913e-08
2.44667354061e-07
2.11243069603e-07
2.69785489941e-08
5.94572798314e-07
2.23030072204e-08
5.66552041928e-07
1.78088124862e-08
5.39994848333e-07
1.35095181213e-08
5.14789332003e-07
9.39982172688e-09
4.90841599109e-07
5.47513495054e-09
4.68068599242e-07
1.74074349928e-09
4.46394874632e-07
-1.81242912195e-09
4.25751530007e-07
-5.20404325459e-09
4.060762651e-07
-8.48448928266e-09
3.87314112304e-07
-1.17074329472e-08
3.69418899605e-07
-1.48686613074e-08
3.52355189794e-07
-1.77265772072e-08
3.36099129005e-07
-1.96669365494e-08
3.20633510528e-07
-2.01307507739e-08
3.05924115628e-07
-1.95327332536e-08
2.91824488749e-07
-1.9160239265e-08
2.77614504622e-07
-1.8907076241e-08
2.61219113085e-07
1.73239120269e-08
2.37266639255e-07
2.06724807752e-07
2.583083121e-08
5.9398009983e-07
2.17362045018e-08