/*--------------------------------*- C++ -*----------------------------------*\
| =========                 |                                                 |
| \\      /  F ield         | OpenFOAM: The Open Source CFD Toolbox           |
|  \\    /   O peration     | Version:  2312                                  |
|   \\  /    A nd           | Website:  www.openfoam.com                      |
|    \\/     M anipulation  |                                                 |
\*---------------------------------------------------------------------------*/
FoamFile
{
    version     2.0;
    format      ascii;
    arch        "LSB;label=32;scalar=64";
    class       volScalarField;
    location    "0.505/water";
    object      epsilon.gas;
}
// * * * * * * * * * * * * * * * * * * * * * * * * * * * * * * * * * * * * * //

dimensions      [0 2 -3 0 0 0 0];

internalField   nonuniform List<scalar> 
6000
(
17.3850259188
2.73409090142
0.502179319435
0.116428394918
0.0367638070008
0.00729908561353
0.00196370240028
0.000904272093447
0.000605862598925
0.000498978762846
0.000454287471437
0.000433581279934
0.000423163278601
0.000417468439329
0.000414090494959
0.000411947545872
0.000410529067479
0.000409574982664
0.000408939695926
0.000408535634985
562.936651394
107.659007971
18.1567141919
3.75262587271
0.684374068213
0.188201301342
0.0424163229292
0.00788339314108
0.00198740581337
0.000889096958273
0.000597985074421
0.000495151175998
0.000452169281534
0.000432238622465
0.000422141694274
0.000416529585967
0.000413122005972
0.000410916770829
0.000409452586245
0.000408500135205
782.921876418
183.2862352
41.1139916472
8.82640288208
2.08229597085
0.463585052386
0.129315410146
0.0295765310956
0.00612940010488
0.00181302641878
0.000887098325281
0.000611233325154
0.000505934881935
0.000459616504972
0.000437385697735
0.00042586364993
0.000419354599257
0.000415347471298
0.00041272804152
0.000410993448854
995.487012847
247.401960636
61.7253111941
15.1133928877
4.15578097318
0.907012962216
0.237986584709
0.0681207679822
0.0152076109679
0.00362475981123
0.00136533086571
0.000785313047583
0.000583507747652
0.000498334887533
0.000458337132309
0.000438198438629
0.000427336937794
0.00042098666741
0.000416976727889
0.000414333226803
1085.19568446
285.111422192
76.2238161585
20.6198619947
5.33741885348
1.62712440423
0.350107222705
0.107748522136
0.0307688847742
0.00689339373296
0.00210592614535
0.00102435296077
0.00068438201486
0.000547739242296
0.000484700048161
0.000453296967683
0.000436726548026
0.000427394237251
0.000421728641762
0.000418075274616
1067.26629945
296.924387581
84.8748924887
24.8252553497
7.15833468559
1.90098687829
0.579888342029
0.131625147477
0.0478265684992
0.0124810373289
0.0032524352693
0.00134445003929
0.000809312932572
0.00060705680052
0.000515916947101
0.00047081832356
0.000447206779809
0.000434183507187
0.000426530788955
0.000421741483409
1008.16710145
291.845967233
88.0462782351
27.4559038768
8.56199011207
2.53981344341
0.665917238971
0.191435378047
0.0526562360192
0.01989494189
0.00503880888182
0.00177480992598
0.000960961015055
0.000675799824706
0.000551396940072
0.00049042703999
0.000458600722989
0.000441212788401
0.000431219986173
0.000425144537698
968.640018443
285.272863537
89.0242682814
28.9867488965
9.50893090644
3.02574232962
0.890107721808
0.247789291825
0.0654005333597
0.024224371489
0.00770618332013
0.00237393959857
0.00114645961026
0.00075434931023
0.000590693994545
0.00051178383823
0.000470757727882
0.000448437563083
0.000435777479919
0.000428273791744
936.964993612
281.665400095
89.7895340212
29.9065492084
10.0704706799
3.35699811974
1.0832285503
0.321864627838
0.1088782627
0.0281893932627
0.0111027053713
0.00330401066944
0.00139119350104
0.000846997282592
0.000634508607834
0.000534961764561
0.000483720685248
0.000455965283262
0.000440359513739
0.000431268445058
926.132217911
284.566193948
91.499737541
30.5048558358
10.3505892533
3.56537699193
1.24357373457
0.427942411264
0.136942763247
0.0497491746714
0.0147780947108
0.00502607352747
0.0017897334639
0.000971133699687
0.000686966199309
0.000561284072326
0.000498129085189
0.000464210707836
0.000445257126442
0.000434351096587
991.002307268
302.764436707
95.4261928996
31.1525539828
10.5945559116
3.77461174857
1.41418491398
0.546066393999
0.211242837707
0.0877122642294
0.0253550219741
0.00857411588098
0.00263140152565
0.00117011334591
0.000756795342446
0.000593164477577
0.000514901040555
0.000473676901568
0.000450823475217
0.000437783928894
1193.42553632
341.189524024
101.965864988
32.6178825399
11.2407745501
4.14940337707
1.63655944468
0.688550888904
0.304903610164
0.136745269596
0.0617740505278
0.0142125573495
0.00456933018658
0.00154621857175
0.000860561509777
0.000634602043989
0.000535421881108
0.000485007439253
0.000457425710303
0.000441799824072
1338.82148387
368.426960674
108.85314926
34.926268282
12.2168820398
4.63284559105
1.89692318057
0.847262885681
0.410481473958
0.21549604594
0.10134883844
0.0306681087536
0.00792350455
0.00236733733474
0.00103331970653
0.000692276925651
0.000561621776473
0.000498922150369
0.000465373508409
0.000446549050315
1365.64594203
379.547323681
112.844402508
36.5186526889
12.9669282983
5.04172232646
2.13601910832
0.995078857545
0.515936393214
0.298577897793
0.177161942883
0.0735509228833
0.0119865768696
0.00398447515097
0.00134568701297
0.000776971350183
0.000596203202055
0.000516277716582
0.000474944749837
0.000452122946716
1373.08719852
382.765472521
114.301754206
37.2574506855
13.3954888233
5.31316875653
2.31768100525
1.11970037886
0.608089863759
0.376370211777
0.256624473077
0.126500035603
0.0293286351572
0.00571913314958
0.00191859904594
0.000906125328279
0.000643202519602
0.000538303453078
0.000486523943429
0.000458650708606
1365.38854424
383.303382393
115.02131214
37.6559087471
13.6273123358
5.47665432223
2.44369803729
1.21734685045
0.683746157051
0.445013569115
0.327919800135
0.199441208144
0.0574074812331
0.00707521903085
0.00275615751492
0.00110497971844
0.000708860752516
0.000566881428619
0.000500741840646
0.000466389257703
1370.0323317
385.208465502
115.887561043
37.9550972664
13.7649179099
5.57913590617
2.53356688252
1.29440393806
0.74702495197
0.502283715396
0.389655332336
0.266337844333
0.101248781369
0.0131104917911
0.00359278524042
0.00142332699738
0.000804500792111
0.000604930499526
0.000518557312382
0.000475753148911
1394.51400385
391.709967173
117.625426465
38.4427234602
13.9365950123
5.67047668949
2.6026968351
1.35322246996
0.800051898575
0.554979115644
0.44697136562
0.326037758041
0.154744466466
0.031164355444
0.00454579125863
0.00198280112557
0.000950767460881
0.000656844556133
0.000541294654021
0.00048729068833
1451.89061685
405.013577299
120.889597654
39.4084301953
14.2615314475
5.79432549125
2.66272144329
1.39600805891
0.846558146716
0.608565341769
0.504742310003
0.384235336325
0.211281238728
0.0610020565737
0.00774708475522
0.00311878346107
0.00119012151553
0.000729737795324
0.000570723227182
0.000501631938709
1511.96842983
420.679670107
125.282650971
40.8452865308
14.75539118
5.95376809858
2.71282587549
1.42805825978
0.890605938451
0.661486469578
0.559332044547
0.451849756954
0.276539920761
0.0944720230005
0.0171603404874
0.0056149715866
0.00161281985174
0.000835567336713
0.000609223779618
0.000519453895453
1553.01107854
431.095786473
129.451711904
42.6351187793
15.4184517665
6.13488785652
2.74494107322
1.44538927008
0.921937355313
0.699317782638
0.600314295522
0.523390402953
0.361593856397
0.157761820805
0.0400624909904
0.0106902352213
0.00242971943627
0.000996255683869
0.000660233212214
0.000541529486146
1513.43447593
430.706459145
133.346638791
44.8064706669
16.1079820992
6.21078030772
2.70049712833
1.42263024216
0.922629963735
0.704389455463
0.608260913306
0.554513319435
0.457795715027
0.25381181965
0.0909935068819
0.0174389407622
0.00415262814518
0.00125587358314
0.000729297295017
0.000568951273166
1463.96836285
436.596062034
140.006000642
47.186290336
16.3905830769
6.01996270083
2.58539619196
1.38171851532
0.896133271835
0.675509889571
0.579887910882
0.542846868697
0.481791267962
0.351033273835
0.14244340532
0.026788135573
0.00723392173999
0.00169951966934
0.00082546902854
0.00060343284175
1501.4129715
465.639948456
150.142352497
49.0545796695
16.1834393644
5.88647978309
2.55642021892
1.35666844117
0.85958534106
0.631575149165
0.533189823285
0.501643032438
0.466570325017
0.384052781732
0.223690481548
0.0590996105686
0.00891058886956
0.0024657625387
0.000962895908377
0.000647394412357
1657.53405586
517.605894821
161.431351562
50.5752580301
16.470078466
6.08240275552
2.64829726366
1.37261167836
0.837287619365
0.596355951767
0.493219049671
0.456610447577
0.436777577472
0.381267768601
0.279160897229
0.0959483966535
0.0102368341845
0.00351514792431
0.0011634588816
0.000704188055748
1958.21887599
583.611578779
173.308893341
53.413113268
17.9027284364
6.70672777992
2.88881004327
1.44792540456
0.847326335609
0.58727789256
0.474866864038
0.42507388499
0.408296211478
0.373388023025
0.302310636841
0.148643104374
0.0219670259366
0.00401331120313
0.0014577389284
0.000778870992707
2298.04565219
644.893763112
186.658933207
57.8941350143
19.914992948
7.63166381345
3.26947641511
1.58913619379
0.89798836623
0.608971130288
0.479383771076
0.413580271292
0.391553737854
0.371972086432
0.320595530996
0.196761247092
0.0372303665809
0.00399997117928
0.00187007396555
0.000879108478867
2524.65711229
687.402517791
197.982892147
62.0355191828
21.7222645448
8.47083728228
3.64839861357
1.7525804653
0.975123573609
0.65088915647
0.499899769418
0.421688874672
0.392229902488
0.382642275187
0.348307834464
0.245550697653
0.0693982921686
0.00543126809709
0.00240762694233
0.00101807000396
2617.37021651
713.042139437
206.239142924
65.1519631609
23.0593807746
9.11459917767
3.962258797
1.90732430118
1.06312871113
0.702499865972
0.530182594804
0.444148513677
0.410703553877
0.408797263058
0.392498736253
0.301759284856
0.115269053079
0.0108387572686
0.0030845754137
0.0012207173296
2664.54511547
726.061034475
211.002058199
66.9288345054
23.8527599768
9.54383704847
4.20159409756
2.04827632235
1.15436500984
0.757465125713
0.566784528679
0.476776900104
0.44362364606
0.451687299197
0.453853517801
0.369576861191
0.173584417783
0.0254853588175
0.00384625270594
0.00152640165865
2680.5999947
733.840426585
214.089517956
67.9838979047
24.3536903997
9.84626071402
4.39191810159
2.17683524749
1.24061397777
0.80985121256
0.606728250863
0.5172034629
0.488130161956
0.507529570255
0.522749906793
0.431265743989
0.242732582535
0.0459986835045
0.00464159868138
0.00198476003195
2707.58936694
740.504411693
216.727220772
69.0383829998
24.8632869116
10.1226828102
4.55760018897
2.29105839112
1.31314126668
0.855147136799
0.647833171963
0.564301925599
0.542569862223
0.572050182023
0.589377770528
0.493425976291
0.316625007673
0.0831385554513
0.00646100601893
0.00266056708923
2741.60793333
747.970000163
219.291136609
70.1962966065
25.4014230151
10.3755058587
4.69380034508
2.38007790565
1.36258370801
0.890231752382
0.689067669939
0.617854449395
0.606885681155
0.64338795957
0.651781346941
0.556788854979
0.387843939791
0.134345745974
0.012119683109
0.00363054176258
2804.84742921
761.056031988
223.504765994
71.8470158463
26.0448687315
10.6168987003
4.79723318428
2.42992228392
1.38232974589
0.91448242373
0.730538563866
0.677887824426
0.681150883496
0.717979107827
0.711114057367
0.621771685645
0.449646147931
0.190299267178
0.026214314007
0.00494371692375
2830.33225653
770.220298361
227.39369646
73.5794803393
26.6861143803
10.7984472312
4.83332207627
2.41471327235
1.36767465974
0.928451852234
0.771647982071
0.74232341569
0.762567578676
0.788411024823
0.769351459418
0.690818694888
0.512324973664
0.251240029936
0.0518196376629
0.00676755197428
2834.65891478
770.100449509
229.450602527
74.9701947108
27.1733657459
10.833534766
4.73458790053
2.31101796133
1.32085777761
0.933659352282
0.808853471076
0.804093581757
0.839131844619
0.846974509162
0.828086543446
0.768631240691
0.598440841544
0.325179548123
0.082140525714
0.00993230125652
2769.95855586
753.092478204
227.093323028
75.2893717666
27.247068649
10.5615397347
4.42876819239
2.12317646638
1.25298874926
0.929709529459
0.833107516481
0.846319332539
0.88604696126
0.887715559352
0.88277343191
0.857346768188
0.716303283967
0.423593053497
0.116980850346
0.0164719732671
2657.19575695
717.983845213
221.264401914
75.0145837116
26.7938719245
9.84310104407
3.92383965292
1.89552847851
1.17903083912
0.910886511043
0.830820278749
0.847372932579
0.885774464073
0.898774328452
0.916424725492
0.940876309131
0.835908431204
0.55814481867
0.181105551864
0.0289249104165
2305.88512587
658.965002792
215.758281473
75.1492316583
25.814580752
8.81593362394
3.4053150519
1.71057898718
1.11273737321
0.870104991631
0.790409003161
0.79794676829
0.836148831017
0.863547875224
0.903381032159
0.983607438523
0.919287593288
0.670500309143
0.266379235911
0.0524250546587
1813.96505702
610.302895304
219.612265109
76.5386016442
24.9208313952
8.2279663597
3.19919970318
1.63585410139
1.05335978884
0.802825911984
0.710307871493
0.702112408852
0.735599110092
0.770111846873
0.821400732541
0.947384094637
0.929488103238
0.722714588934
0.349056982454
0.0953384940763
1725.64225538
665.928158404
244.56424543
83.41254041
26.6349935397
8.78026571297
3.40860193541
1.67567123445
1.01202357828
0.724718560637
0.605338174658
0.572001874818
0.586022939004
0.621327578493
0.675192191351
0.809446460266
0.851381657708
0.708460941796
0.398737478871
0.122963157999
2221.99239116
842.236243554
292.220560944
96.2942078887
31.6992034829
11.0590318758
4.29451513533
1.94483291316
1.04653567819
0.672148997644
0.511650638837
0.44898837089
0.435165947639
0.452199291869
0.501384630092
0.610266988566
0.700009571691
0.632450822152
0.398628088321
0.171711285695
3417.38623255
1093.93501578
342.932824181
116.492521494
42.5581851972
16.315625775
6.34492752101
2.62236695574
1.22980512274
0.68807795341
0.464648108942
0.36901337524
0.327208791755
0.319206227422
0.34455030578
0.42440319414
0.523432284641
0.529263011355
0.383319892568
0.207342209158
4241.08586892
1244.31656598
413.784525368
155.28428189
63.0152963227
26.2078333897
9.94201328988
3.80676404317
1.60123519833
0.793777752645
0.478605847333
0.344029153179
0.277070505422
0.244437902499
0.246143243354
0.293999826911
0.383249777446
0.437498957053
0.366803297598
0.235699316737
3722.7659532
1153.3467862
418.34895181
175.357295379
82.4545351556
40.5548073593
17.0937443092
5.69826090775
2.15092118026
0.980284680883
0.546032943163
0.364970563662
0.274023394107
0.220495290032
0.202969526182
0.226027907955
0.301572019376
0.376936398386
0.359422127785
0.254556018336
3155.4899608
997.911028664
372.123750504
164.838715174
84.6531532681
47.1140526325
23.4616238846
8.08913857152
2.87592181862
1.23180916644
0.650276749337
0.415698982014
0.299726204946
0.228627287417
0.195518743187
0.202939676008
0.26228169578
0.350288618502
0.36548489534
0.278460737884
2838.5395673
892.350603279
330.734877732
148.838245467
79.9963456785
47.8089352958
26.0684876281
9.3991373665
3.43645705944
1.47336423365
0.766806186662
0.480381131099
0.339289314703
0.253563694243
0.208649390486
0.204728388136
0.251856278461
0.349104039679
0.383987222707
0.309987449108
2717.10797374
841.648272848
305.794782108
136.266146508
74.1874451224
45.6833175721
24.6809586356
9.23686170833
3.59074270945
1.60812367505
0.858089979539
0.541738727479
0.381271400958
0.284665262355
0.232188119833
0.221098300883
0.260975903376
0.362752473001
0.411603370667
0.349702321117
2697.70277847
827.325884182
294.269076286
128.440038288
69.2450565556
42.2130997292
20.5079262213
8.18190254688
3.4447745781
1.64741551953
0.921770895629
0.595053487247
0.421095946208
0.31764571833
0.261082438255
0.245764706352
0.281652473156
0.385313689064
0.445918006493
0.399247618855
2742.97735333
839.09217153
294.890043367
125.783829692
65.8050224022
37.7118795557
16.7149736806
7.07609080373
3.222907405
1.65188680965
0.971622060366
0.640780464679
0.457756623474
0.351756165982
0.293955832992
0.276269652004
0.309603746917
0.413892414301
0.485692755761
0.461192655112
2809.4842704
866.387271747
302.036199818
125.239160993
62.3278187005
31.5588677248
13.9296991288
6.29016598735
3.07086167913
1.67106729749
1.01879007933
0.679921326962
0.492765916111
0.388219907496
0.331222895905
0.312145987047
0.343597603535
0.446478062283
0.531455040482
0.539180767375
2926.17629949
914.861891957
317.539924866
126.980528212
58.8546200519
26.8731171706
12.2943448599
5.88700107201
3.03158082174
1.71800881982
1.06419111779
0.714753434971
0.52901778846
0.429110326364
0.374101327449
0.3537444355
0.383629065112
0.482682262924
0.585663292306
0.633400022166
3098.84574787
986.740160483
335.912900356
126.791708253
53.8343932536
24.3851472916
11.5748533731
5.77576346211
3.08200205883
1.77891978983
1.10268545631
0.74826634513
0.569317885242
0.476291123179
0.423561082747
0.401346704665
0.429470342459
0.523259140514
0.648856603698
0.739248396385
3473.45913117
1090.92813098
355.571395582
126.644309926
51.9897675153
23.6451009383
11.4410266771
5.8287149644
3.16539325031
1.82896218934
1.13201772651
0.783120742132
0.615777087504
0.530680935746
0.479794638438
0.45445728479
0.479208221308
0.56809220271
0.719300316402
0.852910837102
4180.55238444
1226.54723583
387.573728968
136.2310922
54.2732795447
24.1020948335
11.5724115802
5.92169689474
3.22220118256
1.8481001108
1.15289008295
0.821642309188
0.669037920646
0.591551266202
0.541324605128
0.511232228702
0.530730616919
0.614953448181
0.795064721544
0.971206206276
4742.40455648
1374.79749701
434.494528485
148.815997454
57.0515135162
24.5916539881
11.6097209038
5.91769282736
3.19373776736
1.82670642169
1.16740318018
0.864495510695
0.726594297494
0.654578498061
0.603652721357
0.567215856768
0.578235889149
0.65873290667
0.871436517075
1.09279064515
4780.9231981
1366.39920315
432.646624669
148.692395391
56.6492078172
24.0610337987
11.2492473411
5.68790219175
3.04280247897
1.77008453423
1.18013683598
0.908508085048
0.780231225614
0.71010354126
0.657141311344
0.613992431462
0.612611432896
0.691550272513
0.936565669638
1.21398373742
4710.56944234
1284.9387395
403.087128444
139.405382441
53.2456203421
22.4429277746
10.3994608695
5.20181425413
2.80709242007
1.70938490014
1.19796014065
0.944730314001
0.816175049257
0.743251850708
0.687419417035
0.63875731447
0.622784644542
0.705540630828
0.966907452681
1.30745589813
4464.23815392
1186.03740275
371.330287763
129.239830291
48.9950433546
20.2630800124
9.24388435792
4.63590633197
2.62019829264
1.69701059102
1.22581858117
0.961623763093
0.819948614485
0.74088200427
0.6816044208
0.628645101209
0.602286998583
0.679080023963
0.935257560068
1.32549627443
3646.18143044
1041.84101164
340.097113778
119.95383888
44.5811154001
17.996263755
8.25505024279
4.35042622005
2.64300975705
1.78058766052
1.26751487466
0.952880928643
0.782391880072
0.689112931772
0.630016819293
0.580458899866
0.551316573572
0.605592512694
0.839226226781
1.22775403199
2824.3141848
927.604485949
324.766274494
115.120830835
42.1160718706
17.3168055352
8.38982429585
4.77173738302
3.02373507836
1.99445066255
1.32399798111
0.910170053005
0.69593808377
0.593069942448
0.540195679161
0.502521613489
0.475552345523
0.50109355651
0.688801781056
1.02130647527
2757.6107811
979.316959448
344.457999186
121.086035917
45.4168618538
19.6411542972
10.1794096603
6.10132817812
3.8453396648
2.36613414822
1.40807844443
0.864811681444
0.602670688369
0.484103902988
0.432185914843
0.405062527438
0.384487249989
0.391401453711
0.497893917068
0.770137737589
3434.14786573
1156.42237352
380.211466909
131.026986224
51.3554245386
23.9273034692
13.3107197206
8.2935331308
5.16430940126
2.99090223447
1.62627228235
0.892200761907
0.548081844368
0.397489135928
0.335061284099
0.30891171438
0.293722465075
0.293286360988
0.34602562071
0.539218550523
4475.07755696
1306.77403136
414.612491654
146.926565218
60.5698203281
29.5652249333
17.1902236463
11.111812689
7.06513635239
4.01903079356
2.06553254737
1.03177186386
0.559262754438
0.358411325359
0.274123016707
0.238995206508
0.223257795441
0.218516174965
0.245834411757
0.359515452455
4321.95812556
1298.14081129
428.427591435
160.127530646
70.3422109209
36.4259480172
21.9660037208
14.6531456744
9.6515872206
5.50681437691
2.74051777131
1.28659149711
0.638344172824
0.36954846506
0.256436950661
0.206290232468
0.183746689894
0.174712744103
0.187513513511
0.259528251365
3851.42514039
1197.75414752
410.618569558
160.7451064
74.6280857904
41.0410265386
26.0025481559
18.0718805598
12.501339248
7.33659337392
3.64154064319
1.65132367221
0.775810000552
0.420102160974
0.273692893897
0.206459383781
0.173431989169
0.158327674788
0.160354891564
0.21408200721
3435.93703325
1087.28660685
379.377360941
152.15787187
73.1612781842
42.0419402825
27.83285654
20.1360694809
14.5708971055
8.81695515658
4.45159753056
2.04750536376
0.952167975157
0.498776623408
0.31444937478
0.229888149495
0.185703570528
0.162429624742
0.155344383338
0.195723662349
3146.60427562
992.808747702
345.873461323
139.375710061
68.013450543
40.1390973294
27.4110333782
20.4291885758
15.2459877836
9.44300186471
4.86652788048
2.30393325319
1.09618339647
0.578514740078
0.36518379192
0.267350025238
0.213951541443
0.181779262894
0.165329323022
0.191106512168
2945.27727103
929.337866952
321.02678199
127.833610441
61.9887244231
36.777078289
25.4627208543
19.2244421919
14.4496256884
9.02225847248
4.78343861192
2.36183051306
1.17292418234
0.641853671758
0.417498486567
0.313742446128
0.253985299073
0.212579892573
0.185039137082
0.195478533973
2836.88867934
891.55188246
304.382264274
118.890431614
56.4494646685
33.0530282374
22.7303807342
16.9827271049
12.4713791673
7.8148978676
4.31377473442
2.2493125564
1.18364184784
0.686101078262
0.46972732229
0.36798232742
0.304220127672
0.251965639811
0.210303415716
0.206009905614
2796.4380369
877.974009306
296.572827204
113.290681898
52.1973459856
29.6621454215
19.7622810182
14.1642026483
10.0203908553
6.37133273889
3.69589082419
2.04946445599
1.15309888284
0.71801852637
0.523760562246
0.430081138519
0.36255217364
0.294212352771
0.237278104439
0.219447031063
2836.8780841
883.645944122
295.485179906
110.593700776
49.3676712994
26.8613946581
16.8676387973
11.4244419504
7.85809793936
5.10836375449
3.11520868251
1.83574704613
1.10760330334
0.745531164479
0.581267163364
0.498548603736
0.422115930244
0.332132532288
0.261760848278
0.232013350673
2990.72861348
901.800947966
293.702382003
107.72515036
46.9285338279
24.3894651571
14.3994667367
9.30028079622
6.27305179634
4.14905482764
2.63531046729
1.6399501592
1.06086163159
0.771037790571
0.640097298982
0.566922798952
0.46981923283
0.360671534541
0.280238278705
0.2411014348
3265.72419127
944.527531933
298.591702343
106.053492612
44.74805975
22.2592206665
12.5464708544
7.81627831366
5.16650954641
3.43644917842
2.24505934534
1.46598100464
1.01569584168
0.791831985813
0.692498698456
0.615584342435
0.494275608326
0.376445061185
0.290973610272
0.244899586173
3462.14011299
980.111244037
305.151655741
105.830740135
43.0148117152
20.4861445269
11.122220642
6.70568504653
4.32963248284
2.87077921696
1.91463425181
1.30871253107
0.96700076061
0.799458340014
0.719544457947
0.622564363571
0.493924619512
0.379334732735
0.293326780725
0.242352443416
3382.50987256
975.525890369
305.401677
105.428908284
41.5280755799
18.9149345098
9.86241487335
5.74384322939
3.62123694064
2.3907391987
1.62707064257
1.16224377408
0.904844430571
0.778211214269
0.69618529095
0.590809177642
0.473245333895
0.368528299743
0.287126460438
0.234502395713
3174.19566518
948.941272785
303.217311723
105.624341855
40.5056717503
17.6326840464
8.78850907408
4.92845702138
3.03278559169
1.9950152603
1.38332484347
1.02117526845
0.820901559895
0.714799771985
0.628638140281
0.534355412201
0.434603604151
0.345833409887
0.274794685892
0.224592205075
3169.44244058
967.461462635
313.876373592
108.964019971
41.0641435299
17.4198626603
8.34019106309
4.46887097156
2.65414115488
1.72045684965
1.19630503864
0.893363716675
0.7242749816
0.62520134029
0.544374722295
0.466132107231
0.386600969717
0.317499605038
0.259677863721
0.216023464031
3490.08270491
1068.30787812
344.574664753
119.637922486
46.0450876421
19.7683184518
9.24872573157
4.68388836505
2.60933931243
1.62085876055
1.09864356734
0.807335887747
0.644477412236
0.54380188885
0.468408427983
0.403141183073
0.342016962769
0.290077609415
0.245640579356
0.211293159365
3839.68320489
1175.7565728
382.775189209
139.234524566
57.5491508265
25.812019365
12.0011961164
5.78601496516
3.01050663529
1.74902469714
1.12480181042
0.792834238467
0.608547839494
0.496018510889
0.41857858727
0.35846271404
0.307781828607
0.26740799618
0.2360696967
0.211223231723
3562.15332604
1085.00795425
381.071836251
153.629924605
69.5460068593
33.2330439836
15.8413108091
7.55867279284
3.77981758824
2.07967379755
1.27113764242
0.855904883581
0.62775667438
0.491534537588
0.402033597656
0.337956130165
0.290269173044
0.257027477931
0.234802709
0.21855475932
2859.97921417
897.859650797
334.864603555
144.518048488
70.0033893358
35.9276946655
18.1964978151
8.87180209451
4.4712361008
2.43694270615
1.46079148583
0.961889986171
0.688924588953
0.525611783482
0.418559375237
0.345094126921
0.294891425341
0.263245053243
0.24544511583
0.235563578112
2365.23064256
757.703538637
287.050228952
125.513699103
61.9426650244
32.8344884928
17.4353235154
8.9688585537
4.71793092346
2.6362212352
1.5981476996
1.05899751625
0.759705776841
0.576606820594
0.453633938086
0.370313338712
0.316060584976
0.284195615216
0.268628611982
0.263286317017
2199.24224701
699.354177833
257.285447596
108.209123662
52.217327691
27.7676823104
15.1549257565
8.21962798437
4.53427874958
2.6292297062
1.64171424416
1.1163984915
0.816724051867
0.625397324215
0.492207217231
0.401861845389
0.344702735761
0.31307211396
0.299775282785
0.298371718755
2485.1002097
723.549794775
248.509891037
96.8380000068
44.5409903949
23.2555445633
12.7725507732
7.12933099455
4.08724785184
2.46918316727
1.60751928351
1.1354339363
0.853553078457
0.661289994579
0.523048704183
0.429274332456
0.371185510937
0.340720202315
0.33028449615
0.332632627914
3167.97454284
830.259438616
260.864234464
93.0514485173
39.8983224625
19.8934815274
10.7401852198
6.05417370292
3.5756246069
2.2570469321
1.5432981281
1.13385535378
0.869932643469
0.677410791959
0.537879212997
0.443574923446
0.385985344539
0.357444065716
0.350216711179
0.355594507397
3888.13447085
947.543784418
277.363803973
92.7203390317
37.3661932057
17.6547180722
9.23179789579
5.18897319375
3.14543405875
2.07454417835
1.48030813147
1.11625417032
0.860908722343
0.669841044469
0.531367120194
0.437919538286
0.381276286992
0.354911337768
0.351069889597
0.358250237602
4319.01598238
1031.12797194
293.259569613
95.1056536539
36.3322011383
16.1723398955
8.13532311938
4.54822643439
2.82543187303
1.92987436699
1.41325911147
1.07543560171
0.827918790833
0.638309688585
0.500630748246
0.40845646575
0.353371202383
0.329513556951
0.328296414222
0.337065485904
4022.70201819
1044.79824879
304.977524062
98.6762516495
35.9029739709
15.144132996
7.37700372475
4.10984616494
2.60073146358
1.80931931826
1.34034814432
1.01984826202
0.773215633413
0.580540038735
0.444485429225
0.357104058164
0.306450970987
0.285559151264
0.285003943747
0.288036101169
3512.04827191
1034.41722354
318.490700841
102.037197065
36.5589378519
15.018718529
7.13914385783
3.94198899326
2.49006865004
1.73065194129
1.2703436674
0.942219927045
0.685579179461
0.495348840935
0.371959031328
0.296488418696
0.25269053732
0.233461724109
0.227326634653
0.219679836914
3725.77827027
1162.66267549
358.972697301
115.101488445
40.2537819797
16.0286182558
7.42645511616
4.01029979319
2.46268576186
1.65499957116
1.1643944162
0.821715770003
0.573088734676
0.405673484439
0.303299587101
0.241039116446
0.203767657313
0.184183946373
0.17231921665
0.160389574676
4804.80099586
1490.24957228
431.564157789
133.464036618
45.5372046974
17.7084801346
8.04231627526
4.2076333905
2.44211944878
1.54095846547
1.02629201977
0.696403963312
0.476365025418
0.336890998686
0.253832135273
0.202393061957
0.169431240148
0.150282221114
0.138839219874
0.135682509532
6301.13636296
1753.30476088
513.363344304
156.792787338
51.7190360638
19.5929885175
8.88922910701
4.5359108474
2.44580059678
1.44162484953
0.915773802669
0.606758407923
0.415095423344
0.298750207163
0.229723600937
0.184765061334
0.153940268209
0.136705344341
0.130652337511
0.139442628187
6405.10657597
1671.40219324
505.634511369
166.31979614
58.5348875783
22.2977457978
10.570723778
5.28110791081
2.54742183432
1.39417071537
0.85274675163
0.559905167718
0.389598073288
0.289811939544
0.229556343023
0.187126103568
0.156137666478
0.140362276963
0.139034684029
0.150950158364
5669.70518658
1531.08988963
469.061240233
158.135129973
59.4482171669
25.6601815878
13.1598594587
6.64378137491
2.77272568808
1.40341188073
0.834900588114
0.54960490509
0.392718767783
0.304090272096
0.24930239966
0.206495217666
0.173287141321
0.157540265913
0.158309929778
0.16569299075
5225.7254659
1422.06088819
437.419322439
150.13525086
59.5846503622
28.3779191721
15.8426847635
8.26209606669
3.13305638172
1.48804581084
0.863319382794
0.570177165321
0.418228489709
0.336440867571
0.285002002189
0.239829012319
0.203264006772
0.186314808143
0.186393647573
0.184058516375
4931.93411974
1353.90834192
420.386642213
147.117791634
60.7281546706
30.6811344559
17.934097063
9.46725980895
3.70485777615
1.69668486946
0.950971816482
0.623220432738
0.465349712439
0.385190164051
0.333489441396
0.284804906232
0.244696243602
0.225532300959
0.220766170883
0.206987678138
4698.53862448
1299.89205413
411.383162858
147.735668052
62.8199543241
32.6189821919
19.3246078069
10.1749586068
4.27105194299
1.97308898486
1.08219977826
0.703389574116
0.531919859844
0.447812229107
0.391581545043
0.340241793519
0.29706850795
0.274291080679
0.260097379651
0.2338031447
4484.66388815
1246.17988143
405.120656363
149.915586759
65.1331547441
34.0130751608
19.9933063933
10.4610225987
4.72325983894
2.25373011841
1.23559073642
0.804322752985
0.615064588092
0.520484153777
0.45833103948