/*--------------------------------*- C++ -*----------------------------------*\
| =========                 |                                                 |
| \\      /  F ield         | OpenFOAM: The Open Source CFD Toolbox           |
|  \\    /   O peration     | Version:  2312                                  |
|   \\  /    A nd           | Website:  www.openfoam.com                      |
|    \\/     M anipulation  |                                                 |
\*---------------------------------------------------------------------------*/
FoamFile
{
    version     2.0;
    format      ascii;
    arch        "LSB;label=32;scalar=64";
    class       volScalarField;
    location    "0.02/water";
    object      k.gas;
}
// * * * * * * * * * * * * * * * * * * * * * * * * * * * * * * * * * * * * * //

dimensions      [0 2 -2 0 0 0 0];

internalField   nonuniform List<scalar> 
1496
(
2.36402522575
0.934011773056
0.253097990628
0.0973263977076
0.0686591126263
0.0532250601893
0.0359068046221
0.0175613331383
0.00512119916961
0.0013191166609
0.000243994260332
5.20188281135e-05
2.2573826616e-05
1.88555152832e-05
1.82563786757e-05
1.82723368858e-05
1.87463040355e-05
1.98432659781e-05
2.21582632564e-05
2.95434587899e-05
2.33644732833
0.950014197552
0.261244370626
0.0983576141437
0.0685043402022
0.0530933830403
0.0358556108502
0.0175115516818
0.00508069097028
0.00130066922781
0.000239157796361
5.08109956622e-05
2.22674084105e-05
1.8684876217e-05
1.81153893172e-05
1.81447296173e-05
1.86225520479e-05
1.97106287906e-05
2.19949522624e-05
2.91622269663e-05
2.30001752966
0.960435306457
0.268883948518
0.0994907595409
0.0683781007312
0.0529275797668
0.0357396400154
0.0173950586817
0.00501058566752
0.00127291667956
0.000233467519936
4.96192065611e-05
2.19863483972e-05
1.85310511296e-05
1.79886091316e-05
1.80301310376e-05
1.85111648213e-05
1.95890300232e-05
2.1842354083e-05
2.87904045011e-05
2.26257354517
0.969736418022
0.277667071155
0.100960351282
0.0682905254616
0.05273483025
0.0355707148324
0.0172306437433
0.00492407034188
0.00124085686321
0.000227719195562
4.85507870446e-05
2.17364272394e-05
1.83886002111e-05
1.78696913315e-05
1.79224892288e-05
1.84073900406e-05
1.94755810709e-05
2.1699118326e-05
2.84280445103e-05
2.22930118545
0.981316013574
0.289432988031
0.102896454241
0.0682358130885
0.0525314273837
0.035386670077
0.0170642581892
0.00484343854624
0.00121176797218
0.00022292242351
4.77318833081e-05
2.15206684292e-05
1.82473884508e-05
1.77491751402e-05
1.78127294747e-05
1.83014757611e-05
1.93614194636e-05
2.15588546551e-05
2.80737352843e-05
2.1949199156
0.992427801315
0.299779422718
0.104751963769
0.0682013447518
0.0523670955999
0.0352647440448
0.016963700011
0.00479738263303
0.00119297008339
0.00022013563112
4.72840970533e-05
2.13461840093e-05
1.81035529166e-05
1.76237870479e-05
1.76979671419e-05
1.81894674841e-05
1.92411669375e-05
2.14150250273e-05
2.77189793946e-05
2.15735453477
0.999084023231
0.308770916113
0.106509845623
0.0682072999624
0.0522482361598
0.0352055068579
0.0169256179485
0.00478412607484
0.00118184473483
0.000219428332099
4.7210720793e-05
2.12142421361e-05
1.79598557451e-05
1.74967342805e-05
1.75822793976e-05
1.80762912719e-05
1.91187946933e-05
2.12685678661e-05
2.73632515032e-05
2.11880595879
1.002167386
0.317875069558
0.108572441981
0.0683035817039
0.0521536727263
0.0351564923035
0.0169002392893
0.00478263564306
0.00116848469739
0.000220095899255
4.74174397246e-05
2.11219715702e-05
1.78238052803e-05
1.73743838724e-05
1.74714736378e-05
1.79680777534e-05
1.90002844725e-05
2.11243578687e-05
2.70154424354e-05
2.07449453361
1.00253479966
0.327971513435
0.111186926304
0.0684876549956
0.0520447867411
0.0350724534934
0.0168543337219
0.00477748897218
0.00114898618572
0.000221362976719
4.77917785547e-05
2.10641051897e-05
1.76994600589e-05
1.72590737095e-05
1.73668008938e-05
1.78663492436e-05
1.88888632472e-05
2.09860085957e-05
2.6675173159e-05
2.03191313465
1.00173172419
0.341242123784
0.114549464253
0.0687055019867
0.0518860835049
0.0349492068648
0.0167996778795
0.00477091334149
0.00114346234502
0.000222814272173
4.82447603398e-05
2.10276592924e-05
1.75823445808e-05
1.71473274138e-05
1.72650720205e-05
1.77683397774e-05
1.87820788402e-05
2.08538675866e-05
2.63486986226e-05
1.9886153939
0.999186776905
0.353892375669
0.118007685291
0.0689273507144
0.0517385629804
0.0348846201764
0.016826252713
0.00480329197558
0.00115502158846
0.000225543129593
4.88906659948e-05
2.10177104684e-05
1.74714997466e-05
1.70399622943e-05
1.7167327337e-05
1.76738702442e-05
1.86802622719e-05
2.07294474035e-05
2.60407083855e-05
1.95344960467
0.996659004775
0.365809262755
0.121402021973
0.0691887621759
0.0516457831215
0.0349221804148
0.0169680678608
0.00489310346513
0.00118144389575
0.000230735404499
4.98505686816e-05
2.10458298872e-05
1.73727361857e-05
1.69434642798e-05
1.7080121134e-05
1.75896941339e-05
1.85880675281e-05
2.06144733496e-05
2.57518622814e-05
1.91697646855
0.99460664528
0.377028729272
0.125167781823
0.0695900524473
0.0516073535311
0.0350182486155
0.0171740287296
0.00501575340217
0.00121602545262
0.000237575525885
5.09927366019e-05
2.11011876363e-05
1.72927678217e-05
1.68652352014e-05
1.70104817579e-05
1.75221196491e-05
1.85117948028e-05
2.05128165731e-05
2.54830644812e-05
1.88556949899
0.991565466044
0.387827887633
0.129462138535
0.0701505821292
0.0515818591088
0.0350883065877
0.0173533768448
0.00512613783814
0.00125040984143
0.00024376908476
5.19798950983e-05
2.11468752402e-05
1.72302411421e-05
1.68064994709e-05
1.69600836139e-05
1.74737619147e-05
1.84561106376e-05
2.04314253034e-05
2.52392047075e-05
1.85294422367
0.987730536514
0.39953328921
0.134470263558
0.0708061464688
0.051511357708
0.0350817679555
0.0174620944569
0.00520062021408
0.00127957746444
0.000247744291357
5.25760039536e-05
2.11481958965e-05
1.71734526068e-05
1.67597934235e-05
1.69237385485e-05
1.74418285403e-05
1.8418318421e-05
2.03718634867e-05
2.50290950531e-05
1.83311733887
0.984280260485
0.409885169822
0.139351281425
0.0714742045653
0.0514531769038
0.035095519873
0.0175901801389
0.00528083199264
0.00131814526348
0.000251139343813
5.2981304573e-05
2.11209672857e-05
1.7116621976e-05
1.67188499174e-05
1.68963452677e-05
1.74217612122e-05
1.83964561597e-05
2.03292635506e-05
2.48510072555e-05
1.81032426782
0.980502611599
0.418910745581
0.144084054202
0.07222272006
0.0514657421649
0.0351872316721
0.0177849428478
0.00539141551395
0.00135252812602
0.000255603016741
5.34693721933e-05
2.11023415025e-05
1.70661864837e-05
1.66858361485e-05
1.68790561564e-05
1.74135593261e-05
1.83889157915e-05
2.03044072296e-05
2.46976374588e-05
1.7865605608
0.975271108469
0.427047501348
0.149013438316
0.073180159157
0.0515608430136
0.0353171374928
0.017990075585
0.00550288589731
0.00138056865752
0.000260135933438
5.39654781984e-05
2.10953704503e-05
1.70291849521e-05
1.66653644629e-05
1.68750448381e-05
1.74198055789e-05
1.83969224168e-05
2.02967235083e-05
2.45656756883e-05
1.75363063636
0.966791715112
0.433511323606
0.154090527222
0.0743460549002
0.0516960247436
0.0353998009648
0.0181122069879
0.00556553226468
0.00138323590029
0.000261905159666
5.41103227536e-05
2.10644889813e-05
1.70031858927e-05
1.66561705276e-05
1.68824613523e-05
1.74392835827e-05
1.84198102401e-05
2.03036316851e-05
2.44523010009e-05
1.71810119507
0.952578183542
0.437314285424
0.158744025806
0.075491007504
0.0517675320824
0.0353437712974
0.0180719486483
0.00553580249353
0.00135425723501
0.000258469914579
5.35672142079e-05
2.09660265782e-05
1.69747472393e-05
1.66485474331e-05
1.68924275442e-05
1.74643373129e-05
1.84512140681e-05
2.03188176538e-05
2.43509920319e-05
1.68849409491
0.936103276256
0.435982217384
0.161195726222
0.0761550260021
0.0517250558681
0.0351803127607
0.0179138977318
0.00543760469475
0.00131275007028
0.000250862915606
5.24783161412e-05
2.08069245864e-05
1.69333884298e-05
1.66320094854e-05
1.68943370404e-05
1.74835914766e-05
1.84797207151e-05
2.03326853335e-05
2.42550578963e-05
1.66754395175
0.919766800378
0.433356291458
0.161930997336
0.0763073880171
0.0515898861368
0.0349892185671
0.0177348113048
0.00532765183177
0.00126910590423
0.000242504242003
5.13621649987e-05
2.06467280307e-05
1.68826813521e-05
1.66048652355e-05
1.68845523441e-05
1.74903296471e-05
1.8496194806e-05
2.03370544715e-05
2.41601648325e-05
1.64653668859
0.905866459036
0.432152811478
0.162470218257
0.0762537135345
0.0514333800972
0.0348479283737
0.0176250255858
0.00526109135839
0.00123512338234
0.000236988886582
5.08106728687e-05
2.0562409841e-05
1.68372377119e-05
1.65745563163e-05
1.68681881531e-05
1.74870929783e-05
1.85004127615e-05
2.03299710344e-05
2.40588646812e-05
1.63284893596
0.896573661672
0.433181448636
0.163713827261
0.0763105275352
0.0513363484476
0.0348142873003
0.0176516581473
0.00528126839801
0.00121768180228
0.00023748544015
5.1310398256e-05
2.06247036388e-05
1.68152893889e-05
1.65525005931e-05
1.68548491433e-05
1.74825792981e-05
1.85008808672e-05
2.03199042785e-05
2.39431711675e-05
1.62166791736
0.891728797964
0.436104569124
0.166295661733
0.0767013856564
0.0513285793846
0.0348812001584
0.017810910979
0.00539128587898
0.00121939247434
0.000244988957311
5.30557457145e-05
2.0868426687e-05
1.68265964936e-05
1.65469291716e-05
1.68523553953e-05
1.74829323215e-05
1.85045406727e-05
2.03057629374e-05
2.38362110671e-05
1.62406292315
0.890103531559
0.438317290569
0.169024741724
0.0772539330833
0.0514279631884
0.0350759090476
0.0181153555163
0.00559488529269
0.00124754837801
0.000259892968941
5.61005416622e-05
2.13086594885e-05
1.68750115725e-05
1.65610057656e-05
1.6864168489e-05
1.74942274397e-05
1.8516469067e-05
2.03039224974e-05
2.3742414674e-05
1.62329799001
0.887893346532
0.4392084426
0.171340356888
0.0778763375054
0.0516409185014
0.0354011488239
0.0185557650646
0.00588452268963
0.00129839094304
0.000281980362557
6.04258802319e-05
2.19585683359e-05
1.69698722568e-05
1.6604839545e-05
1.69031485302e-05
1.75287821859e-05
1.85485388764e-05
2.03211184012e-05
2.36699295684e-05
1.62199917881
0.885313536282
0.440476794409
0.17386189623
0.0788036121572
0.0520094144296
0.0358348987483
0.0190882629757
0.0062332388304
0.00136167053531
0.00031003868851
6.59007189909e-05
2.28185867228e-05
1.71194181491e-05
1.66867237003e-05
1.69766192784e-05
1.75939277246e-05
1.86071645292e-05
2.03623205264e-05
2.36295274876e-05
1.61134591512
0.882542168067
0.442646793549
0.17728943721
0.080127052446
0.0525365766295
0.0363189884568
0.0196368754495
0.00659538763469
0.00143702892443
0.000341567182675
7.21985283556e-05
2.38570340185e-05
1.73199517705e-05
1.68045928228e-05
1.7086770264e-05
1.76937679729e-05
1.86971383384e-05
2.04323542418e-05
2.3628478433e-05
1.60325071143
0.88096360361
0.447003079728
0.181361869255
0.0816634014872
0.0531230941814
0.0367722100077
0.0201247395137
0.00692485117696
0.00152688840899
0.000373467778687
7.88206662311e-05
2.50076860336e-05
1.75514743796e-05
1.69449052846e-05
1.72220971409e-05
1.78233712387e-05
1.88167180067e-05
2.05330963954e-05
2.3670042372e-05
1.59845709052
0.881762073157
0.450081531446
0.184555445457
0.0831166438724
0.0537375110385
0.0372315832908
0.0206000066564
0.00724754517367
0.0016306687781
0.000406701854945
8.58027909022e-05
2.62650444101e-05
1.77967350553e-05
1.70909217779e-05
1.73711508435e-05
1.79721571385e-05
1.89595458295e-05
2.06621817902e-05
2.37561634718e-05
1.59649166983
0.882975986733
0.452943553818
0.18706869563
0.0845292957653
0.0544282462894
0.0377703500739
0.0211412749634
0.00761250213387
0.00175408178583
0.000445083931586
9.37394180202e-05
2.77169603803e-05
1.80620451322e-05
1.72375927626e-05
1.75269802516e-05
1.81358353977e-05
1.91224805535e-05
2.08187453787e-05
2.38880871613e-05
1.58480899059
0.882630776707
0.455497679082
0.189545822003
0.0861603320707
0.0552716939315
0.0384098077453
0.0217593491531
0.0080310685693
0.00190175800447
0.000490971652492
0.000103102136025
2.94550717352e-05
1.83658577194e-05
1.7390133591e-05
1.76928892786e-05
1.83156936946e-05
1.93078783769e-05
2.10064611512e-05
2.40654377631e-05
1.56732165419
0.880404617329
0.457524818329
0.191492548671
0.0879188990843
0.0562196345869
0.0390914496457
0.0223983680465
0.00847473329746
0.00206696597753
0.000543568378036
0.000113908047758
3.15072142069e-05
1.87168768076e-05
1.75504564183e-05
1.78698265711e-05
1.8516027874e-05
1.95219825364e-05
2.12313233053e-05
2.42924436321e-05
1.54529620002
0.879454228959
0.455936004338
0.191170675885
0.0891755253864
0.05703784384
0.0396965483367
0.0229769792031
0.00890236017823
0.00224439550464
0.000601152849554
0.000125894601552
3.38480462521e-05
1.91106256615e-05
1.77143503673e-05
1.80564094084e-05
1.87392108079e-05
1.97721304444e-05
2.15013895261e-05
2.45774363157e-05
1.55159963677
0.890679195221
0.449693825204
0.18818014137
0.0893457023985
0.057498733512
0.0401685372994
0.0234910860009
0.0093255104881
0.00246120002665
0.000667255211979
0.000139544428632
3.65615667215e-05
1.95672306398e-05
1.78913382216e-05
1.82631037413e-05
1.89974105539e-05
2.00724596198e-05
2.18348922351e-05
2.4941759123e-05
1.5937148361
0.915758650544
0.447544292998
0.18582489046
0.0887191309061
0.0576021207484
0.0405316718488
0.0240117747859
0.0097971352902
0.00290760720322
0.000749257808433
0.000155772819834
3.98677104692e-05
2.01942559568e-05
1.8169128927e-05
1.85760209339e-05
1.93776084886e-05
2.0510904219e-05
2.23186866486e-05
2.54657105763e-05
0.000139717478267
8.4565832997e-05
6.86190931977e-05
8.44883389909e-05
7.58583587838e-05
7.53413363059e-05
7.5323939597e-05
7.53235466044e-05
7.53237282024e-05
7.53239811361e-05
7.53246700943e-05
7.56599460127e-05
0.000348609407882
0.0149152023849
0.0851426685046
0.1955841787
4.61456411953e-05
7.08420491088e-05
0.000112495213861
0.000158853679208
0.000140583344295
8.48667205797e-05
6.87772693673e-05
8.45822730598e-05
7.58935123979e-05
7.53401431151e-05
7.53216407725e-05
7.53212988397e-05
7.53215515356e-05
7.53218604222e-05
7.5322610219e-05
7.56717179215e-05
0.000358674598893
0.0152021490268
0.086014221817
0.197004482009
4.54576593379e-05
7.01078068507e-05
0.000111069245302
0.000158524736697
0.000141417858659
8.51349518295e-05
6.88368961173e-05
8.42520022612e-05
7.59212883322e-05
7.53389139318e-05
7.53195371564e-05
7.53192423595e-05
7.53195567733e-05
7.53199130825e-05
7.53207167404e-05
7.56842946255e-05
0.000369164147296
0.0154976174204
0.0869017188183
0.198413626599
4.47779885806e-05
6.93749190789e-05
0.0001095973912
0.000158081354115
0.00014221407436
8.53988878725e-05
6.88513076479e-05
8.33288289779e-05
7.59384243398e-05
7.53377875076e-05
7.53178128718e-05
7.53175546003e-05
7.53179153261e-05
7.53183057412e-05
7.53191527768e-05
7.5697853757e-05
0.000380039100308
0.0157974762606
0.0877878249681
0.199817185017
4.41031750423e-05
6.86152046056e-05
0.000108067183458
0.000157512406382
0.000143005350481
8.57318231516e-05
6.88356796986e-05
8.17683261889e-05
7.59477397283e-05
7.53370214591e-05
7.53165984246e-05
7.5316358938e-05
7.53167474213e-05
7.53171566209e-05
7.53180358837e-05
7.57124895022e-05
0.000391234785325
0.0160994780113
0.088669041498
0.201218619164
4.34260669971e-05
6.78191850983e-05
0.000106509297992
0.00015685347024
0.000143829007275
8.61107409921e-05
6.87323171807e-05
7.97007816239e-05
7.59570266652e-05
7.53369498498e-05
7.53159642003e-05
7.53157183366e-05
7.53161142685e-05
7.53165263673e-05
7.53174265812e-05
7.57282333595e-05
0.00040271594709
0.0164030946072
0.0895469902335
0.202620549424
4.27464111551e-05
6.69970547589e-05
0.000104973891132
0.000156148355157
0.000144687528304
8.65261682242e-05
6.84766007543e-05
7.73830234247e-05
7.5972057385e-05
7.53378207928e-05
7.53159278526e-05
7.53156450131e-05
7.53160274685e-05
7.53164268756e-05
7.53173365996e-05
7.57450905521e-05
0.000414477449834
0.0167085982018
0.0904239925177
0.204024675721
4.20595711575e-05
6.61614650768e-05
0.000103490679643
0.000155406403283
0.00014554700909
8.69438696434e-05
6.80566604408e-05
7.51017181331e-05
7.5992475057e-05
7.53397038986e-05
7.53164550138e-05
7.53161027021e-05
7.53164517579e-05
7.53168242549e-05
7.53177324259e-05
7.57630451513e-05
0.000426530848598
0.0170164689504
0.0913017736511
0.205431972072
4.13676939369e-05
6.53167194611e-05
0.000102044848504
0.000154600063788
0.000146386702366
8.73837530658e-05
6.75391412404e-05
7.30838936964e-05
7.60163794171e-05
7.53425925461e-05
7.531746252e-05
7.53170084878e-05
7.53173077649e-05
7.53176422136e-05
7.53185395872e-05
7.57820589065e-05
0.000438895506157
0.0173271885717
0.0921814694427
0.206843019357
4.06776877875e-05
6.44470482805e-05
0.000100607121354
0.000153721133243
0.00014723421156
8.78941618663e-05
6.70122132422e-05
7.1433857015e-05
7.60446790833e-05
7.53465239118e-05
7.53188255377e-05
7.53182381329e-05
7.53184771423e-05
7.53187671486e-05
7.53196479321e-05
7.58020708227e-05
0.000451594096834
0.0176411893492
0.0930638212129
0.208258183974
3.99990882217e-05
6.35457687086e-05
9.9186157899e-05
0.000152815575939
0.000148140716868
8.85211431205e-05
6.65197722009e-05
7.01360372228e-05
7.60787715038e-05
7.53515316266e-05
7.53203914835e-05
7.53196401058e-05
7.53198151033e-05
7.53200595866e-05
7.53209225422e-05
7.58230029677e-05
0.000464650559804
0.0179588527027
0.093949335852
0.20967771123
3.93371383712e-05
6.26395674522e-05
9.7825404861e-05
0.000151954273577
0.000149140553721
8.92635850381e-05
6.609212604e-05
6.91207545122e-05
7.61167998128e-05
7.53575111724e-05
7.53219961944e-05
7.53210541166e-05
7.53211679225e-05
7.53213708676e-05
7.53222193255e-05
7.58447711577e-05
0.000478088487229
0.0182805017528
0.0948383437219
0.21110172093
3.86934401408e-05
6.17421363918e-05
9.65664155621e-05
0.0001511862488
0.000150227752082
9.00930338173e-05
6.57756893397e-05
6.83377517449e-05
7.61550101187e-05
7.53642236262e-05
7.53234804949e-05
7.53223269436e-05
7.53223880863e-05
7.53225577499e-05
7.53233992418e-05
7.58672955289e-05
0.00049192913965
0.0186063719766
0.0957309626635
0.212530151016
3.80728856081e-05
6.08775972759e-05
9.54202315801e-05
0.000150506219209
0.000151367856911
9.1005394575e-05
6.56471313449e-05
6.77779522626e-05
7.6194083316e-05
7.53714713306e-05
7.53247071878e-05
7.53233264023e-05
7.53233490004e-05
7.53234977409e-05
7.53243434305e-05
7.58905123727e-05
0.000506190247102
0.018936603632
0.0966271288798
0.213962782667
3.74895750158e-05
6.00605793834e-05
9.43589504636e-05
0.00014987736449
0.000152544908629
9.20294449765e-05
6.57697235543e-05
6.74307517771e-05
7.62402651552e-05
7.53792966063e-05
7.53255780357e-05
7.53239543255e-05
7.53239572569e-05
7.53241009232e-05
7.53249651102e-05
7.59143828812e-05
0.00052088448102
0.0192712178654
0.0975265593151
0.21539920262
3.69603111985e-05
5.92889342413e-05
9.33587054601e-05
0.000149293434949
0.000153781315962
9.31988723608e-05
6.61453656728e-05
6.72473529634e-05
7.62993842005e-05
7.53879361474e-05
7.53260490651e-05
7.53241639614e-05
7.53241693215e-05
7.5324326136e-05
7.53252249092e-05
7.59389045404e-05
0.00053601902369
0.0196101244597
0.0984288088814
0.216838877158
3.64780088463e-05
5.85549362664e-05
9.24338554136e-05
0.000148789377197
0.000155105569444
9.45257833603e-05
6.67204593501e-05
6.71550104735e-05
7.63712302118e-05
7.53975141239e-05
7.53261361577e-05
7.53239720645e-05
7.53240020676e-05
7.53241901308e-05
7.5325139351e-05
7.59641169568e-05
0.000551594344641
0.0199530984033
0.0993332121364
0.218281137688
3.60315608508e-05
5.78604365587e-05
9.16181924904e-05
0.000148395077455
0.000156501937924
9.59676701224e-05
6.74189680809e-05
6.71007834166e-05
7.64497374739e-05
7.54077946974e-05
7.53259130615e-05
7.53234613384e-05
7.53235357703e-05
7.53237709093e-05
7.53247840782e-05
7.59901049659e-05
0.000567604656891
0.0202998053229
0.100238982154
0.21972534338
3.56190740424e-05
5.72069358736e-05
9.09278100844e-05
0.000148071377803
0.000157879389759
9.74555844116e-05
6.81880045203e-05
6.70924478213e-05
7.65312240783e-05
7.54183508489e-05
7.53255058085e-05
7.53227680476e-05
7.5322902549e-05
7.53231969326e-05
7.53242842491e-05
7.60169909718e-05
0.00058403815918
0.0206498099383
0.101145227721
0.221170939921
3.52340687068e-05
5.660935734e-05
9.03123885026e-05
0.000147693673771
0.00015912728323
9.89672373595e-05
6.9027571856e-05
6.71816367614e-05
7.66213653239e-05
7.54291514548e-05
7.53250926247e-05
7.53220681525e-05
7.53222736946e-05
7.53226356325e-05
7.53238036081e-05
7.60449254869e-05
0.000600878753081
0.0210026235478
0.102051082227
0.222617624267
3.48629395342e-05
5.60364906935e-05
8.96706638793e-05
0.000147158306951
0.000160216434683
0.000100553087238
6.99742251811e-05
6.73860956794e-05
7.67281749866e-05
7.54409048991e-05
7.5324898998e-05
7.5321564769e-05
7.53218460637e-05
7.53222790457e-05
7.53235298417e-05
7.60740732377e-05
0.000618106264437
0.021357701283
0.102955664868
0.22406534988
3.45079484017e-05
5.54395131976e-05
8.89514000007e-05
0.000146471316794
0.000161199091303
0.000102236023857
7.10216443676e-05
6.76575257374e-05
7.68547253683e-05
7.54547398519e-05
7.53251810644e-05
7.5321479039e-05
7.53218318142e-05
7.53223325669e-05
7.53236623597e-05
7.61046036771e-05
0.000635697812272
0.0217144758492
0.10385817071
0.225514474246
3.41507105851e-05
5.47790016383e-05
8.81765841754e-05
0.000145702246437
0.000162149597923
0.000104052099757
7.21411022665e-05
6.79234011724e-05
7.69970270496e-05
7.54716004072e-05
7.53261928729e-05
7.53220314149e-05
7.53224393922e-05
7.53229955707e-05
7.53243932545e-05
7.61366788244e-05
0.000653629089494
0.0220723810295
0.104757903837
0.226965805177
3.37744748824e-05
5.40904066868e-05
8.73906699097e-05
0.000144916406244
0.000163120402347
0.000106024163532
7.33141145149e-05
6.81387763638e-05
7.71456474276e-05
7.54918720396e-05
7.53281519041e-05
7.53234152503e-05
7.53238494744e-05
7.53244391448e-05
7.53258863066e-05
7.61704425676e-05
0.000671878130783
0.0224309367465
0.105654465318
0.228420736777
3.33939343846e-05
5.33720589065e-05
8.66175022794e-05
0.000144122317908
0.000164102303643
0.000108156396529
7.45513423878e-05
6.83148451585e-05
7.72932826537e-05
7.55156448762e-05
7.53312136583e-05
7.5325765011e-05
7.53261859075e-05
7.53267792936e-05
7.53282521074e-05
7.6206005929e-05
0.0006904287085
0.0227898089591
0.106547825531
0.22988119676
3.30092929288e-05
5.26401893588e-05
8.58471973244e-05
0.000143271313553
0.000165048858846
0.000110467228581
7.59013287519e-05
6.84804542161e-05
7.74382530302e-05
7.5543440167e-05
7.53354623601e-05
7.53291334059e-05
7.53294950635e-05
7.53300581651e-05
7.53315304041e-05
7.62434366514e-05
0.00070927452791
0.0231488888026
0.107438456631
0.231349604226
3.26396448595e-05
5.19269019889e-05
8.50674647262e-05
0.000142347046784
0.000165959178793
0.000112996197808
7.740994969e-05
6.86193859486e-05
7.75779241193e-05
7.55765854882e-05
7.53409029323e-05
7.53334801874e-05
7.53337351118e-05
7.53342336595e-05
7.53356800196e-05
7.62827516659e-05
0.000728421645634
0.0235083203978
0.108327316965
0.232828643353
3.23107422011e-05
5.12611936465e-05
8.43071536013e-05
0.000141413247974
0.000166887832183
0.000115772789411
7.9079108618e-05
6.86687597436e-05
7.77022051859e-05
7.56167892097e-05
7.53474480254e-05
7.53386763979e-05
7.53387798753e-05
7.53391824587e-05
7.53405809304e-05
7.63239178734e-05
0.000747890395255
0.0238685204797
0.109215834795
0.23432104941
3.20372533606e-05
5.06603901391e-05
8.36160736938e-05
0.000140553752888
0.000167875970067
0.000118780519348
8.08686838772e-05
6.85647649796e-05
7.77862137982e-05
7.56650608967e-05
7.53548995153e-05
7.53445166206e-05
7.53444298723e-05
7.53447093971e-05
7.53460421832e-05
7.63668562515e-05
0.000767715019589
0.0242301405808
0.11010574629
0.235829301037
3.18239636427e-05
5.01351202323e-05
8.30226650359e-05
0.000139789077188
0.00016888322481
0.000121940654338
8.27148885307e-05
6.83002597915e-05
7.77752392749e-05
7.57204965334e-05
7.53629415119e-05
7.53507367816e-05
7.53504281253e-05
7.53505611778e-05
7.53518138543e-05
7.64114502839e-05
0.000787942855485
0.0245940269318
0.110998961576
0.237355416688
3.16739657623e-05
4.96934099718e-05
8.25270407495e-05
0.000139052887925
0.000169802517794
0.000125165933502
8.45719463484e-05
6.79524075462e-05
7.75641011907e-05
7.5780340885e-05
7.53711848237e-05
7.53570305046e-05
7.53564733206e-05
7.53564377694e-05
7.53575971189e-05
7.64575545885e-05
0.000808632924701
0.0249611676009
0.111897407792
0.238900785107
3.1591858731e-05
4.93410546946e-05
8.20273007952e-05
0.000138286080614
0.000170580141976
0.000128416298284
8.64272540172e-05
6.76364919614e-05
7.70109443848e-05
7.58433192208e-05
7.53793374226e-05
7.536306227e-05
7.53622270488e-05
7.53619982353e-05
7.53630493256e-05
7.65050024994e-05
0.000829855537134
0.0253326655937
0.112802945687
0.240466106983
3.15767960847e-05
4.90739884077e-05
8.16225530595e-05
0.000137536068166
0.000171267792292
0.000131683765064
8.82539915312e-05
6.74379867047e-05
7.60267010482e-05
7.59139134987e-05
7.53874071727e-05
7.53684688646e-05
7.5367310073e-05
7.53668572571e-05
7.53677809441e-05
7.65536093997e-05
0.00085169274625
0.0257097270823
0.113717314906
0.242051374464
3.16245197728e-05
4.88852002583e-05
8.13020338672e-05
0.000136900753187
0.000171967112302
0.0001349773787
8.99966476829e-05
6.73969571747e-05
7.46683037577e-05
7.59998381123e-05
7.53956574092e-05
7.53728400775e-05
7.53712843618e-05
7.53705687293e-05
7.53713410483e-05
7.66031667395e-05
0.000874239115556
0.0260936534719
0.114642082658
0.24365585995
3.17342384666e-05
4.87754359859e-05
8.11211295851e-05
0.000136481408128
0.000172776708968
0.000138308236828
9.15903096743e-05
6.75231156061e-05
7.3136355123e-05
7.61019192618e-05
7.54041599766e-05
7.53756865794e-05
7.53736360402e-05
7.5372616265e-05
7.53732150061e-05
7.66534471152e-05
0.00089760179902
0.0264858232464
0.115578597532
0.245278101965
3.19098861093e-05
4.87638544873e-05
8.11756049848e-05
0.000136388957999
0.000173801564157
0.000141699968857
9.30279468851e-05
6.78027283914e-05
7.16595929086e-05
7.62146779379e-05
7.54125951517e-05
7.53766623527e-05
7.5374162545e-05
7.53729402499e-05
7.53734908948e-05
7.6704930509e-05
0.000921896551722
0.0268876205361
0.116528152461
0.246915971844
3.21790104296e-05
4.89034430949e-05
8.15260651486e-05
0.000136600305298
0.000174938289123
0.000145039478882
9.42768963788e-05
6.82599972865e-05
7.04726878104e-05
7.63174748633e-05
7.54212950054e-05
7.53790058086e-05
7.5378062526e-05
7.53784968139e-05
7.53810636195e-05
7.67676879355e-05
0.000947214585766
0.0272995120044
0.117491925726
0.248608592793
3.26154615014e-05
4.93131651733e-05
8.24240976914e-05
0.000137800444867
0.000177105548047
0.000148992846695
9.56033153451e-05
6.85858956384e-05
6.93242207478e-05
7.64779776006e-05
7.54171722169e-05
7.53782664681e-05
7.53916156305e-05
7.54052936927e-05
7.54229634018e-05
7.6875497838e-05
0.000973115502325
0.0277077840129
0.118410531452
0.250333056051
)
;

boundaryField
{
    emptyPatch
    {
        type            empty;
    }
    minY
    {
        type            fixedValue;
        value           nonuniform List<scalar> 0();
    }
    maxY
    {
        type            inletOutlet;
        inletValue      uniform 1e-05;
        value           nonuniform List<scalar> 
40
(
1.5937148361
0.915758650544
0.447544292998
0.18582489046
0.0887191309061
0.0576021207484
0.0405316718488
0.0240117747859
0.0097971352902
0.00290760720322
0.000749257808433
0.000155772819834
3.98677104692e-05
2.01942559568e-05
1.8169128927e-05
1.85760209339e-05
1.93776084886e-05
2.0510904219e-05
2.23186866486e-05
2.54657105763e-05
3.26154615014e-05
4.93131651733e-05
8.24240976914e-05
0.000137800444867
0.000177105548047
0.000148992846695
9.56033153451e-05
6.85858956384e-05
6.93242207478e-05
7.64779776006e-05
7.54171722169e-05
7.53782664681e-05
7.53916156305e-05
7.54052936927e-05
7.54229634018e-05
7.6875497838e-05
0.000973115502325
0.0277077840129
0.118410531452
0.250333056051
)
;
    }
    water_to_cooler
    {
        type            kqRWallFunction;
        value           nonuniform List<scalar> 
38
(
0.1955841787
0.197004482009
0.198413626599
0.199817185017
0.201218619164
0.202620549424
0.204024675721
0.205431972072
0.206843019357
0.208258183974
0.20967771123
0.21110172093
0.212530151016
0.213962782667
0.21539920262
0.216838877158
0.218281137688
0.21972534338
0.221170939921
0.222617624267
0.22406534988
0.225514474246
0.226965805177
0.228420736777
0.22988119676
0.231349604226
0.232828643353
0.23432104941
0.235829301037
0.237355416688
0.238900785107
0.240466106983
0.242051374464
0.24365585995
0.245278101965
0.246915971844
0.248608592793
0.250333056051
)
;
    }
    water_to_heater
    {
        type            kqRWallFunction;
        value           nonuniform List<scalar> 
59
(
2.36402522575
2.36402522575
2.33644732833
2.30001752966
2.26257354517
2.26257354517
2.22930118545
2.22930118545
2.1949199156
2.1949199156
2.15735453477
2.11880595879
2.07449453361
2.07449453361
2.03191313465
2.03191313465
1.9886153939
1.9886153939
1.95344960467
1.91697646855
1.88556949899
1.88556949899
1.85294422367
1.85294422367
1.83311733887
1.83311733887
1.81032426782
1.7865605608
1.75363063636
1.75363063636
1.71810119507
1.71810119507
1.68849409491
1.68849409491
1.66754395175
1.64653668859
1.63284893596
1.63284893596
1.62166791736
1.62166791736
1.62406292315
1.62406292315
1.62329799001
1.62199917881
1.61134591512
1.61134591512
1.60325071143
1.60325071143
1.59845709052
1.59845709052
1.59649166983
1.58480899059
1.56732165419
1.56732165419
1.54529620002
1.54529620002
1.55159963677
1.55159963677
1.5937148361
)
;
    }
    procBoundary0to1
    {
        type            processor;
        value           nonuniform List<scalar> 
41
(
2.37432394821
0.910332315842
0.243055660781
0.0962318975241
0.0688453876651
0.053353751719
0.035916547048
0.0175594555312
0.0051335154684
0.00132815990372
0.000247798344617
5.31782258199e-05
2.28978323169e-05
1.90423534722e-05
1.84128177874e-05
1.84141199578e-05
1.88820368411e-05
1.99861986177e-05
2.23346191023e-05
2.99391403871e-05
0.00013885581072
8.42450158354e-05
6.83555246601e-05
8.41637126762e-05
7.58210290649e-05
7.53424844629e-05
7.5326303187e-05
7.53258617922e-05
7.53259711996e-05
7.53261665394e-05
7.53267939228e-05
7.56486272359e-05
0.00033874647809
0.014630520083
0.0842719086413
0.194145488646
4.68456956816e-05
7.15916079198e-05
0.000113899218086