/*--------------------------------*- C++ -*----------------------------------*\
| =========                 |                                                 |
| \\      /  F ield         | OpenFOAM: The Open Source CFD Toolbox           |
|  \\    /   O peration     | Version:  2312                                  |
|   \\  /    A nd           | Website:  www.openfoam.com                      |
|    \\/     M anipulation  |                                                 |
\*---------------------------------------------------------------------------*/
FoamFile
{
    version     2.0;
    format      ascii;
    arch        "LSB;label=32;scalar=64";
    class       volScalarField;
    location    "1.5/water";
    object      p;
}
// * * * * * * * * * * * * * * * * * * * * * * * * * * * * * * * * * * * * * //

dimensions      [1 -1 -2 0 0 0 0];

internalField   nonuniform List<scalar> 
23300
(
100730.976751
100730.977048
100730.97905
100730.981965
100730.985923
100730.991083
100730.997639
100731.005726
100731.015493
100731.027008
100731.040349
100731.055483
100731.072402
100731.091016
100731.111232
100731.132835
100731.155596
100731.179227
100731.203531
100731.228332
100731.253718
100731.280133
100731.307556
100731.335398
100731.36328
100731.390876
100731.418095
100731.444822
100731.470997
100731.496534
100731.521425
100731.545652
100731.569278
100731.592358
100731.615032
100731.637422
100731.659719
100731.682078
100731.704704
100731.727761
100731.751463
100731.775993
100731.801583
100731.828421
100731.856734
100731.886687
100731.91846
100731.952154
100731.987865
100732.025592
100732.065317
100732.106912
100732.150216
100732.194878
100732.240401
100732.286351
100732.332458
100732.378333
100732.423574
100732.467701
100732.510245
100732.550686
100732.588533
100732.62326
100732.654388
100732.681418
100732.703911
100732.721423
100732.733588
100732.740053
100732.740566
100732.734916
100732.723026
100732.7049
100732.680714
100732.650757
100732.61549
100732.57541
100732.530918
100732.481561
100732.426268
100732.36486
100732.298863
100732.229637
100732.157435
100732.082117
100732.003752
100731.922479
100731.838461
100731.75184
100731.662863
100731.571909
100731.479562
100731.386535
100731.293672
100731.201837
100731.111893
100731.02459
100730.940548
100730.860191
100730.783839
100730.711765
100730.644188
100730.581145
100730.52265
100730.468746
100730.419391
100730.374361
100730.333323
100730.295922
100730.261832
100730.23074
100730.202359
100730.176429
100730.152724
100730.131039
100730.111198
100730.093041
100730.076432
100730.061249
100730.047388
100730.034753
100730.023265
100730.012852
100730.003451
100729.995007
100729.98747
100729.980796
100729.974945
100729.969879
100729.965563
100729.96196
100729.959031
100729.956737
100729.955032
100729.953876
100729.953245
100729.953168
100729.953776
100729.954801
100722.89211
100722.892539
100722.894525
100722.897432
100722.901453
100722.906766
100722.91357
100722.922019
100722.932271
100722.944419
100722.958532
100722.974513
100722.992272
100723.011718
100723.032702
100723.054956
100723.078137
100723.101955
100723.126437
100723.151886
100723.178553
100723.20666
100723.236002
100723.265808
100723.295641
100723.325252
100723.354523
100723.383347
100723.411671
100723.439439
100723.466647
100723.493263
100723.519266
100723.544574
100723.569108
100723.592772
100723.615536
100723.637421
100723.658569
100723.679194
100723.699613
100723.720159
100723.741193
100723.763018
100723.785917
100723.810092
100723.835715
100723.862882
100723.891666
100723.922059
100723.954032
100723.987477
100724.022114
100724.057547
100724.09366
100724.130252
100724.166953
100724.203376
100724.239139
100724.273828
100724.307037
100724.338335
100724.36732
100724.393571
100724.416712
100724.436366
100724.452212
100724.46395
100724.471352
100724.474232
100724.472501
100724.466139
100724.45525
100724.440032
100724.420816
100724.397994
100724.371972
100724.342918
100724.310405
100724.27277
100724.226939
100724.170366
100724.103535
100724.029017
100723.949704
100723.867965
100723.78531
100723.702496
100723.619721
100723.53687
100723.453789
100723.370409
100723.286838
100723.203333
100723.120284
100723.038132
100722.957342
100722.878353
100722.801599
100722.727523
100722.656754
100722.590122
100722.528238
100722.471023
100722.418113
100722.369159
100722.323908
100722.282114
100722.243573
100722.208133
100722.175613
100722.145781
100722.118416
100722.093311
100722.070281
100722.049154
100722.029775
100722.012003
100721.995717
100721.980804
100721.967168
100721.954722
100721.943393
100721.933111
100721.923822
100721.915473
100721.908019
100721.901422
100721.895646
100721.890659
100721.88643
100721.88293
100721.880124
100721.877975
100721.876437
100721.875452
100721.874952
100721.874942
100721.875587
100721.876393
100714.804491
100714.804974
100714.806804
100714.80958
100714.813488
100714.818701
100714.825412
100714.833783
100714.843982
100714.856117
100714.870137
100714.885906
100714.903427
100714.922608
100714.943338
100714.965511
100714.988923
100715.01336
100715.038926
100715.065738
100715.093815
100715.123124
100715.153527
100715.184632
100715.216091
100715.247635
100715.279091
100715.310289
100715.341066
100715.371175
100715.400324
100715.428171
100715.454441
100715.478961
100715.501763
100715.523007
100715.542959
100715.561874
100715.580022
100715.597651
100715.615051
100715.632502
100715.650303
100715.668706
100715.687951
100715.708209
100715.729636
100715.752318
100715.776327
100715.801671
100715.828348
100715.856166
100715.88483
100715.914245
100715.944322
100715.974785
100716.00537
100716.035769
100716.065683
100716.094771
100716.122709
100716.149144
100716.173752
100716.19619
100716.216158
100716.233352
100716.247519
100716.258419
100716.265878
100716.269746
100716.26995
100716.266458
100716.259315
100716.248601
100716.234444
100716.216931
100716.196049
100716.171476
100716.14238
100716.107158
100716.063614
100716.009989
100715.946021
100715.874062
100715.796451
100715.7149
100715.631567
100715.54753
100715.463515
100715.379876
100715.296759
100715.214233
100715.132412
100715.051457
100714.971604
100714.893123
100714.816317
100714.741489
100714.668962
100714.599076
100714.532224
100714.468736
100714.40899
100714.353476
100714.302217
100714.255134
100714.212362
100714.173538
100714.138039
100714.10539
100714.075311
100714.047588
100714.022039
100713.998498
100713.976815
100713.956852
100713.938489
100713.92161
100713.906113
100713.891902
100713.878893
100713.867009
100713.856185
100713.84636
100713.837485
100713.829514
100713.822409
100713.816134
100713.810661
100713.805963
100713.802013
100713.798785
100713.796249
100713.794369
100713.793093
100713.792351
100713.79205
100713.792215
100713.792923
100713.793539
100706.713639
100706.714259
100706.715963
100706.71862
100706.722401
100706.727463
100706.733985
100706.742126
100706.752069
100706.763845
100706.777443
100706.79291
100706.81031
100706.829602
100706.8507
100706.873458
100706.897701
100706.92322
100706.949979
100706.978007
100707.007327
100707.037873
100707.069517
100707.102021
100707.135117
100707.168461
100707.20164
100707.23411
100707.265308
100707.294733
100707.32211
100707.347367
100707.370599
100707.391941
100707.411597
100707.429803
100707.446852
100707.463018
100707.478581
100707.493783
100707.508882
100707.524111
100707.539717
100707.555905
100707.572877
100707.59078
100707.609752
100707.629871
100707.651206
100707.673762
100707.697524
100707.722173
100707.747561
100707.773717
100707.800448
100707.827523
100707.854722
100707.881783
100707.908447
100707.934419
100707.959415
100707.983124
100708.005256
100708.025503
100708.043591
100708.059238
100708.072204
100708.082252
100708.089197
100708.092864
100708.093136
100708.089911
100708.083142
100708.07278
100708.058799
100708.041112
100708.019544
100707.993693
100707.962869
100707.926016
100707.881948
100707.829791
100707.76956
100707.70244
100707.629762
100707.553485
100707.474881
100707.394602
100707.313805
100707.232842
100707.15206
100707.071727
100706.992074
100706.913331
100706.83576
100706.759631
100706.685236
100706.612865
100706.542829
100706.475439
100706.411012
100706.349835
100706.292148
100706.237976
100706.187758
100706.141676
100706.099427
100706.060953
100706.026281
100705.995199
100705.967111
100705.941389
100705.917687
100705.895842
100705.875713
100705.857157
100705.840056
100705.824308
100705.809826
100705.796528
100705.784344
100705.773206
100705.763058
100705.753848
100705.745531
100705.738067
100705.731425
100705.725573
100705.720487
100705.716142
100705.712517
100705.709587
100705.707324
100705.705692
100705.70464
100705.704091
100705.703962
100705.704274
100705.704989
100705.705473
100698.62029
100698.621055
100698.622635
100698.625197
100698.628909
100698.633919
100698.640416
100698.648547
100698.65842
100698.669992
100698.683485
100698.699046
100698.716582
100698.736018
100698.757285
100698.780266
100698.804858
100698.830947
100698.858489
100698.887455
100698.917837
100698.949543
100698.982388
100699.015985
100699.049773
100699.083023
100699.115041
100699.14529
100699.173495
100699.199537
100699.223436
100699.245283
100699.265268
100699.283607
100699.300558
100699.316371
100699.331325
100699.345666
100699.359653
100699.373503
100699.387447
100699.401679
100699.416404
100699.431782
100699.447976
100699.465096
100699.48325
100699.502492
100699.522872
100699.544394
100699.566831
100699.590005
100699.613951
100699.63852
100699.663551
100699.688838
100699.714183
100699.739345
100699.764087
100699.788136
100699.811233
100699.833085
100699.853423
100699.871954
100699.888418
100699.90254
100699.914085
100699.922812
100699.928526
100699.931035
100699.930196
100699.925868
100699.917957
100699.90636
100699.890991
100699.871712
100699.848327
100699.820497
100699.787732
100699.749382
100699.704807
100699.653605
100699.59591
100699.532368
100699.464051
100699.392255
100699.317819
100699.241831
100699.164833
100699.087075
100699.009302
100698.931694
100698.854554
100698.778179
100698.702858
100698.628873
100698.556523
100698.486095
100698.417887
100698.352186
100698.289277
100698.229412
100698.172801
100698.119605
100698.069968
100698.024314
100697.982817
100697.945114
100697.910951
100697.880183
100697.852711
100697.82829
100697.806363
100697.786335
100697.767886
100697.750886
100697.735232
100697.720815
100697.707543
100697.695341
100697.684148
100697.673906
100697.664568
100697.656091
100697.648437
100697.641573
100697.635471
100697.630107
100697.625458
100697.621505
100697.618229
100697.615607
100697.613613
100697.612213
100697.611355
100697.610962
100697.610964
100697.611367
100697.61205
100697.612439
100690.524681
100690.525631
100690.527171
100690.529769
100690.533581
100690.538709
100690.545415
100690.553685
100690.563528
100690.575203
100690.588861
100690.604484
100690.622042
100690.641467
100690.662708
100690.685685
100690.710354
100690.736666
100690.764611
100690.79414
100690.825138
100690.857275
100690.889997
100690.922558
100690.954251
100690.984526
100691.013042
100691.039579
100691.064066
100691.086529
100691.107114
100691.126001
100691.143419
100691.15959
100691.174763
100691.18916
100691.203027
100691.216568
100691.230001
100691.243502
100691.257261
100691.271429
100691.286168
100691.301598
100691.317846
100691.33499
100691.353112
100691.372239
100691.3924
100691.413565
100691.435489
100691.458024
100691.481213
100691.504898
100691.528929
100691.553109
100691.577253
100691.601127
100691.624512
100691.647146
100691.668784
100691.689147
100691.707978
100691.724998
100691.739955
100691.752583
100691.76265
100691.769918
100691.774193
100691.775275
100691.773014
100691.767256
100691.757891
100691.744796
100691.72787
100691.706968
100691.681919
100691.652456
100691.61825
100691.5789
100691.534069
100691.48359
100691.427629
100691.366683
100691.301531
100691.233009
100691.162004
100691.089325
100691.015307
100690.940659
100690.86566
100690.790438
100690.715661
100690.641489
100690.568227
100690.496185
100690.425664
100690.356947
100690.290331
100690.226089
100690.16449
100690.10577
100690.050138
100689.997765
100689.9488
100689.903362
100689.861884
100689.824472
100689.790755
100689.760505
100689.733529
100689.70958
100689.68846
100689.669859
100689.653207
100689.637984
100689.623964
100689.611063
100689.599202
100689.588297
100689.578284
100689.569112
100689.560741
100689.553135
100689.546266
100689.540107
100689.534638
100689.529838
100689.525693
100689.522185
100689.519299
100689.517016
100689.515312
100689.514153
100689.51349
100689.513246
100689.51336
100689.513829
100689.51448
100689.514808
100682.425733
100682.426861
100682.428388
100682.431077
100682.435159
100682.440711
100682.44771
100682.456294
100682.466662
100682.478812
100682.492794
100682.508592
100682.526192
100682.545545
100682.56663
100682.589421
100682.613934
100682.640162
100682.668062
100682.6974
100682.727722
100682.758359
100682.788649
100682.818032
100682.846098
100682.872528
100682.897167
100682.919971
100682.941023
100682.960448
100682.978431
100682.995158
100683.010848
100683.025693
100683.039903
100683.053655
100683.067147
100683.080537
100683.093999
100683.10767
100683.121702
100683.13621
100683.151324
100683.167133
100683.183735
100683.201186
100683.219546
100683.238826
100683.25904
100683.280084
100683.301772
100683.323986
100683.346728
100683.369843
100683.39319
100683.416579
100683.43983
100683.462721
100683.485039
100683.506534
100683.526971
100683.546081
100683.563619
100683.579314
100683.592925
100683.604193
100683.612895
100683.618798
100683.62171
100683.621435
100683.617822
100683.610715
100683.599998
100683.585546
100683.567257
100683.544993
100683.518615
100683.48792
100683.452695
100683.4127
100683.367772
100683.317875
100683.263199
100683.204147
100683.141309
100683.075356
100683.006982
100682.936779
100682.865333
100682.793174
100682.720401
100682.647598
100682.574991
100682.502672
100682.431313
100682.361066
100682.292229
100682.2251
100682.159964
100682.097082
100682.036711
100681.979073
100681.924375
100681.872784
100681.824453
100681.7795
100681.738015
100681.700455
100681.666846
100681.636727
100681.609976
100681.58642
100681.565802
100681.547819
100681.532204
100681.518568
100681.506349
100681.495156
100681.484865
100681.475424
100681.46677
100681.458842
100681.451602
100681.445018
100681.439068
100681.433735
100681.429004
100681.424862
100681.421299
100681.418304
100681.415865
100681.413968
100681.412591
100681.411704
100681.411256
100681.411172
100681.411401
100681.41194
100681.412578
100681.41287
100674.321233
100674.322566
100674.324337
100674.327507
100674.332133
100674.338292
100674.346099
100674.355512
100674.366607
100674.379396
100674.393882
100674.410023
100674.427787
100674.447129
100674.468056
100674.490583
100674.514749
100674.540471
100674.567475
100674.595237
100674.62318
100674.650759
100674.677519
100674.703071
100674.727184
100674.749745
100674.770777
100674.790346
100674.808593
100674.825663
100674.841734
100674.856963
100674.871531
100674.885585
100674.899292
100674.912786
100674.926222
100674.939719
100674.953418
100674.967422
100674.981855
100674.996802
100675.012369
100675.02862
100675.045634
100675.063445
100675.082099
100675.101592
100675.121932
100675.142922
100675.164467
100675.186504
100675.208947
100675.231651
100675.254481
100675.277253
100675.299795
100675.32189
100675.343334
100675.363884
100675.383314
100675.401366
100675.417802
100675.432362
100675.444812
100675.454902
100675.462417
100675.46713
100675.468855
100675.4674
100675.462616
100675.454347
100675.442482
100675.426894
100675.407486
100675.384137
100675.356736
100675.325136
100675.289206
100675.248814
100675.203906
100675.154522
100675.100867
100675.043283
100674.982253
100674.91832
100674.852054
100674.78399
100674.714631
100674.644385
100674.573679
100674.502941
100674.432171
100674.361915
100674.292397
100674.223683
100674.156451
100674.090835
100674.027106
100673.965528
100673.906345
100673.849766
100673.79599
100673.745182
100673.697489
100673.65303
100673.611903
100673.574168
100673.540264
100673.510168
100673.4834
100673.459864
100673.439404
100673.421801
100673.40675
100673.393916
100673.38298
100673.373477
100673.364916
100673.357069
100673.349893
100673.343342
100673.33737
100673.331942
100673.327038
100673.322644
100673.318753
100673.315359
100673.312458
100673.310044
100673.308111
100673.306649
100673.305641
100673.305058
100673.304854
100673.304951
100673.305312
100673.305937
100673.306584
100673.306855
100666.210228
100666.211813
100666.213923
100666.217686
100666.223121
100666.230163
100666.238867
100666.249249
100666.261316
100666.275018
100666.290299
100666.307056
100666.325215
100666.344713
100666.36556
100666.387762
100666.41125
100666.435723
100666.460754
100666.485863
100666.510609
100666.534568
100666.557455
100666.5791
100666.599473
100666.618596
100666.636571
100666.653503
100666.669537
100666.684797
100666.699434
100666.713567
100666.727338
100666.740855
100666.75425
100666.76762
100666.781089
100666.794744
100666.808699
100666.823031
100666.837839
100666.853188
100666.869161
100666.885803
100666.903177
100666.9213
100666.940204
100666.959875
100666.980305
100667.001308
100667.02279
100667.044676
100667.066873
100667.089239
100667.111641
100667.133901
100667.155852
100667.177282
100667.197993
100667.217751
100667.236336
100667.253497
100667.269007
100667.282611
100667.294084
100667.303184
100667.309702
100667.313417
100667.31415
100667.311711
100667.305957
100667.296736
100667.283936
100667.267437
100667.24715
100667.22297
100667.194815
100667.162581
100667.126201
100667.085614
100667.040838
100666.991959
100666.939189
100666.882832
100666.823302
100666.761053
100666.696578
100666.630344
100666.562806
100666.494369
100666.425426
100666.356294
100666.287335
100666.218945
100666.151064
100666.084217
100666.018629
100665.954322
100665.89197
100665.831673
100665.773654
100665.718127
100665.665282
100665.615273
100665.568245
100665.524309
100665.483558
100665.446044
100665.411932
100665.381523
100665.354708
100665.331068
100665.310519
100665.292908
100665.278043
100665.265657
100665.255405
100665.246937
100665.239867
100665.233701
100665.228112
100665.223019
100665.218403
100665.214227
100665.210467
100665.207107
100665.204144
100665.201576
100665.199406
100665.197634
100665.196261
100665.19528
100665.19468
100665.194436
100665.194502
100665.194803
100665.195317
100665.196047
100665.196722
100665.196985
100658.090975
100658.092793
100658.095236
100658.099522
100658.105683
100658.113699
100658.123565
100658.135232
100658.148637
100658.163649
100658.180119
100658.197851
100658.216692
100658.236526
100658.257316
100658.278955
100658.301216
100658.32376
100658.34623
100658.368234
100658.389463
100658.409709
100658.428908
100658.447053
100658.464216
100658.480481
100658.49597
100658.510787
100658.52506
100658.538888
100658.552391
100658.565657
100658.578796
100658.591886
100658.60503
100658.618297
100658.631786
100658.645559
100658.659707
100658.674286
100658.689377
100658.705026
100658.721299
100658.738226
100658.755856
100658.774193
100658.79326
100658.813031
100658.833493
100658.854481
100658.87589
100658.897622
100658.919585
100658.94164
100658.96366
100658.985469
100659.006905
100659.027762
100659.047848
100659.066934
100659.084807
100659.101223
100659.115962
100659.128774
100659.139444
100659.147732
100659.153439
100659.156347
100659.156282
100659.15306
100659.146541
100659.136575
100659.123057
100659.105871
100659.084941
100659.060174
100659.031515
100658.998898
100658.962299
100658.921708
100658.877192
100658.828863
100658.776938
100658.721695
100658.663501
100658.60275
100658.539876
100658.475296
100658.409432
100658.342665
100658.275365
100658.207869
100658.140512
100658.073572
100658.007369
100657.942289
100657.878214
100657.81564
100657.75478
100657.695603
100657.638763
100657.584311
100657.532417
100657.483242
100657.436925
100657.393569
100657.353266
100657.31608
100657.282042
100657.25141
100657.224349
100657.200629
100657.179929
100657.162167
100657.147205
100657.134859
100657.124897
100657.117
100657.110796
100657.10591
100657.101892
100657.098347
100657.095144
100657.092274
100657.089718
100657.087458
100657.085487
100657.083808
100657.082426
100657.081347
100657.080578
100657.080117
100657.079959
100657.080083
100657.080443
100657.080969
100657.081654
100657.082506
100657.083226
100657.08349
100649.959967
100649.961999
100649.964884
100649.969933
100649.977148
100649.986488
100649.997908
100650.011299
100650.02652
100650.043328
100650.061436
100650.080498
100650.100235
100650.12044
100650.140985
100650.161678
100650.182304
100650.202583
100650.222243
100650.241066
100650.258963
100650.275914
100650.291983
100650.307243
100650.321814
100650.335795
100650.349308
100650.362445
100650.375316
100650.387996
100650.400582
100650.413137
100650.425746
100650.438462
100650.451367
100650.464508
100650.477961
100650.491772
100650.506013
100650.520722
100650.535966
100650.551776
100650.568206
100650.585273
100650.603016
100650.621431
100650.640531
100650.660285
100650.680675
100650.701567
100650.722844
100650.744376
100650.766077
100650.78781
100650.809452
100650.830834
100650.851797
100650.87214
100650.891678
100650.910185
100650.927457
100650.943252
100650.957357
100650.969529
100650.979556
100650.987206
100650.992283
100650.994574
100650.993909
100650.990108
100650.983034
100650.972542
100650.958531
100650.940894
100650.919561
100650.894458
100650.865549
100650.832797
100650.796213
100650.755823
100650.711721
100650.66404
100650.612998
100650.558853
100650.50194
100650.442611
100650.381256
100650.318256
100650.254
100650.188848
100650.12316
100650.05726
100649.991472
100649.926092
100649.861419
100649.7977
100649.735217
100649.674343
100649.614898
100649.55734
100649.501857
100649.448368
100649.397471
100649.349191
100649.303644
100649.26094
100649.221171
100649.184392
100649.150659
100649.119971
100649.092699
100649.068849
100649.048023
100649.030092
100649.014953
100649.002468
100648.992464
100648.984719
100648.978955
100648.974806
100648.971887
100648.969772
100648.968049
100648.966529
100648.965207
100648.96408
100648.963142
100648.962392
100648.961838
100648.961489
100648.961357
100648.961447
100648.961757
100648.962271
100648.962944
100648.963711
100648.964584
100648.965573
100648.966352
100648.966621
100641.81466
100641.81703
100641.820582
100641.826677
100641.835298
100641.846376
100641.859823
100641.875464
100641.893043
100641.912155
100641.932295
100641.952896
100641.973527
100641.993921
100642.013935
100642.033423
100642.052238
100642.070204
100642.087232
100642.103291
100642.11844
100642.132762
100642.146386
100642.159424
100642.172011
100642.184249
100642.196255
100642.208105
100642.219896
100642.231683
100642.243544
100642.255522
100642.267684
100642.280063
100642.292724
100642.305696
100642.319041
100642.332788
100642.346996
100642.361691
100642.37693
100642.39273
100642.40914
100642.426167
100642.443842
100642.462156
100642.481119
100642.500695
100642.520866
100642.541532
100642.562573
100642.583816
100642.605183
100642.626541
100642.647773
100642.668715
100642.689213
100642.709072
100642.72811
100642.746109
100642.762867
100642.778148
100642.791745
100642.803418
100642.81296
100642.820142
100642.824772
100642.826642
100642.825584
100642.821421
100642.81402
100642.803238
100642.788981
100642.771146
100642.749675
100642.724504
100642.695618
100642.662999
100642.626684
100642.586722
100642.543229
100642.496349
100642.446296
100642.393319
100642.337724
100642.279834
100642.220007
100642.158594
100642.09596
100642.032443
100641.968391
100641.904116
100641.839937
100641.776142
100641.713018
100641.650828
100641.589837
100641.530259
100641.472334
100641.416405
100641.362257
100641.310271
100641.260601
100641.213154
100641.168455
100641.126495
100641.087346
100641.051075
100641.017732
100640.987347
100640.959919
100640.935802
100640.914957
100640.896922
100640.881634
100640.868976
100640.858816
100640.850988
100640.845286
100640.841452
100640.83915
100640.837986
100640.837549
100640.837417
100640.837369
100640.837391
100640.837499
100640.837697
100640.837992
100640.838397
100640.838924
100640.839584
100640.84038
100640.841298
100640.842297
100640.843316
100640.844389
100640.845527
100640.846374
100640.846651
100633.653002
100633.655823
100633.660266
100633.667713
100633.678124
100633.6914
100633.707401
100633.725852
100633.746334
100633.76818
100633.790559
100633.812656
100633.833986
100633.854341
100633.873669
100633.891929
100633.909089
100633.925123
100633.940088
100633.954066
100633.967203
100633.979634
100633.99152
100634.002991
100634.014187
100634.025206
100634.036157
100634.047104
100634.058131
100634.069277
100634.080604
100634.092138
100634.103933
100634.116007
100634.128409
100634.141158
100634.154304
100634.167865
100634.181891
100634.196401
100634.211442
100634.227029
100634.243203
100634.259967
100634.277352
100634.295343
100634.313951
100634.33314
100634.352894
100634.373161
100634.393811
100634.41463
100634.435545
100634.456434
100634.477184
100634.497636
100634.517644
100634.537018
100634.555582
100634.573119
100634.589436
100634.604299
100634.617504
100634.628816
100634.638031
100634.644923
100634.649301
100634.65096
100634.649734
100634.645449
100634.637973
100634.627168
100634.612941
100634.595195
100634.57388
100634.548944
100634.520383
100634.488197
100634.452438
100634.413174
100634.370532
100634.324661
100634.275775
100634.224109
100634.169952
100634.113603
100634.055395
100633.995655
100633.934726
100633.87293
100633.8106
100633.748039
100633.685556
100633.62343
100633.561945
100633.501355
100633.441913
100633.383847
100633.327384
100633.272702
100633.219998
100633.169562
100633.121155
100633.075096
100633.031498
100632.99025
100632.951819
100632.916158
100632.8833
100632.853273
100632.826074
100632.801872
100632.780842
100632.762819
100632.74744
100632.734642
100632.724317
100632.71633
100632.710523
100632.706696
100632.704608
100632.70395
100632.704338
100632.705358
100632.706596
100632.707806
100632.708969
100632.710116
100632.711264
100632.712428
100632.713622
100632.714861
100632.716151
100632.717481
100632.718811
100632.720088
100632.72137
100632.722666
100632.72359
100632.723876
100625.473055
100625.476442
100625.482008
100625.491126
100625.503736
100625.519696
100625.538794
100625.560614
100625.584471
100625.6093
100625.633878
100625.657268
100625.679116
100625.699374
100625.718148
100625.735509
100625.751531
100625.766289
100625.779929
100625.792602
100625.804499
100625.815783
100625.826633
100625.837183
100625.847572
100625.857891
100625.86824
100625.878672
100625.889254
100625.900014
100625.910999
100625.922224
100625.933728
100625.945518
100625.957637
100625.970091
100625.982926
100625.996151
100626.009816
100626.023932
100626.038546
100626.053671
100626.069348
100626.085581
100626.1024
100626.119794
100626.137777
100626.156316
100626.175399
100626.195042
100626.215093
100626.235301
100626.255601
100626.27588
100626.296034
100626.315912
100626.335373
100626.354234
100626.372324
100626.389432
100626.405367
100626.4199
100626.432829
100626.443922
100626.452976
100626.459767
100626.464107
100626.465789
100626.46465
100626.460514
100626.453252
100626.442725
100626.428845
100626.411517
100626.390697
100626.366339
100626.33845
100626.307039
100626.272172
100626.233924
100626.192429
100626.14784
100626.100366
100626.050232
100625.997711
100625.943084
100625.886663
100625.828755
100625.769686
100625.709762
100625.649301
100625.588597
100625.527949
100625.467629
100625.407912
100625.349046
100625.291278
100625.234827
100625.17991
100625.126716
100625.075431
100625.026194
100624.97916
100624.934569
100624.892152
100624.852183
100624.814733
100624.779674
100624.747421
100624.717893
100624.691094
100624.667001
100624.645942
100624.627901
100624.612499
100624.59962
100624.589167
100624.581026
100624.575063
100624.571119
100624.569004
100624.568486
100624.56928
100624.571019
100624.57329
100624.575681
100624.57794
100624.580045
100624.58204
100624.583955
100624.585813
100624.587628
100624.589411
100624.591152
100624.592813
100624.594351
100624.595846
100624.597305
100624.598311
100624.598605
100617.272935
100617.277006
100617.28393
100617.295051
100617.310277
100617.329418
100617.352155
100617.377854
100617.405428
100617.433272
100617.459865
100617.484414
100617.506816
100617.527246
100617.545937
100617.563013
100617.578605
100617.592856
100617.605966
100617.618127
100617.629556
100617.640431
100617.650938
100617.661207
100617.671372
100617.681513
100617.691716
100617.702021
100617.712483
100617.723112
100617.733947
100617.744987
100617.756265
100617.767779
100617.779566
100617.791627
100617.804005
100617.816709
100617.829789
100617.843257
100617.857165
100617.871527
100617.88639
100617.901763
100617.917684
100617.934147
100617.951173
100617.968736
100617.986831
100618.005564
100618.024746
100618.044099
100618.06357
100618.083055
100618.10246
100618.121641
100618.140469
100618.158765
100618.176363
100618.193058
100618.208663
100618.222952
100618.235724
100618.246749
100618.255825
100618.262728
100618.267268
100618.269239
100618.268476
100618.264801
100618.258085
100618.248188
100618.23502
100618.21849
100618.198555
100618.175174
100618.148356
100618.118119
100618.084533
100618.047678
100618.007692
100617.964725
100617.91898
100617.870673
100617.820065
100617.767417
100617.713029
100617.657186
100617.6002
100617.542363
100617.48398
100617.425334
100617.366715
100617.308385
100617.250614
100617.19364
100617.137705
100617.083021
100617.0298
100616.978223
100616.928467
100616.880683
100616.835016
100616.791565
100616.750449
100616.71186
100616.675508
100616.64162
100616.610228
100616.58122
100616.554932
100616.531283
100616.510233
100616.492094
100616.476816
100616.463956
100616.453458
100616.445217
100616.439119
100616.43503
100616.432795
100616.432229
100616.433113
100616.435176
100616.438073
100616.441395
100616.444735
100616.447842
100616.450698
100616.453357
100616.455864
100616.458245
100616.460511
100616.462657
100616.464641