/*--------------------------------*- C++ -*----------------------------------*\
| =========                 |                                                 |
| \\      /  F ield         | OpenFOAM: The Open Source CFD Toolbox           |
|  \\    /   O peration     | Version:  2312                                  |
|   \\  /    A nd           | Website:  www.openfoam.com                      |
|    \\/     M anipulation  |                                                 |
\*---------------------------------------------------------------------------*/
FoamFile
{
    version     2.0;
    format      ascii;
    arch        "LSB;label=32;scalar=64";
    class       volScalarField;
    location    "0.61/water";
    object      rhom;
}
// * * * * * * * * * * * * * * * * * * * * * * * * * * * * * * * * * * * * * //

dimensions      [1 -3 0 0 0 0 0];

internalField   nonuniform List<scalar> 
1503
(
915.239188645
949.107506787
985.626584161
996.35280908
999.29486544
999.887090931
999.985440391
999.998929356
999.999979643
999.999999844
999.999999999
1000
1000
1000
1000
1000
1000
1000
1000
1000
694.980819038
872.070283034
947.010708939
981.886607163
994.18836347
998.418708115
999.639675037
999.936927882
999.99378695
999.999867925
999.999999608
999.999999999
1000
1000
1000
1000
1000
1000
1000
1000
693.688407394
829.254392882
916.184603213
964.314332804
986.169637569
995.323722016
998.679660364
999.704001245
999.955927155
999.997589231
999.999989738
999.999999987
1000
1000
1000
1000
1000
1000
1000
1000
693.6887663
789.995289806
877.818219276
937.966636729
972.137643807
989.208602879
996.521306721
999.099623442
999.830993439
999.983696823
999.999748468
999.999999712
1000
1000
1000
1000
1000
1000
1000
1000
702.053839511
767.422931531
838.785897536
901.980327264
948.138375996
976.831205306
991.562340342
997.583759012
999.486256346
999.934192332
999.997430704
999.999995808
999.999999997
1000
1000
1000
1000
1000
1000
1000
715.479289449
759.02467742
809.440838852
864.155489062
914.971869176
954.925099484
980.66494838
993.657909794
998.505465734
999.777808062
999.985976592
999.999915888
999.999999955
1000
1000
1000
1000
1000
1000
1000
716.792813631
753.709788993
791.209319863
833.484360645
879.938210691
924.848407138
961.092438194
984.507657129
995.684554987
999.256773473
999.938466525
999.998837932
999.999999305
1000
1000
1000
1000
1000
1000
1000
717.01133537
750.285891937
781.276093665
812.9105461
850.81839226
893.113947574
934.287632726
967.678868848
988.621937187
997.534741867
999.734181381
999.99048213
999.99998252
999.999999994
1000
1000
1000
1000
1000
1000
715.85608655
748.464262903
772.549011214
797.046856183
827.652050911
864.81798874
905.309375681
943.900626326
974.655839983
992.599273996
998.880876674
999.935392934
999.999258655
999.999999764
1000
1000
1000
1000
1000
1000
717.011404276
747.660812786
764.880213804
783.500611625
808.803517761
841.669082749
878.76398179
917.116998613
953.280986293
981.438119619
995.891777503
999.620619605
999.990062093
999.999986016
999.999999996
1000
1000
1000
1000
1000
715.26690223
748.256365352
760.842111308
775.132904463
796.064564971
824.725264741
857.531251155
892.027074762
927.637203339
962.474889502
988.031156253
998.259249184
999.918067274
999.999284033
999.999999803
1000
1000
1000
1000
1000
717.011135199
750.607881985
761.958102887
775.354643173
793.345769453
816.231433348
842.985523129
871.49673833
902.820867596
938.601528676
973.466605123
994.180392719
999.542562176
999.991406301
999.99999013
999.999999998
1000
1000
1000
1000
715.408169096
755.630292473
767.486859414
780.343494052
796.338666453
815.043045362
834.706446491
856.71048572
883.15971871
916.283443352
954.8072973
986.024088518
998.295590158
999.945886703
999.999761999
999.999999955
1000
1000
1000
1000
717.011044002
763.127852229
776.216814809
790.156518113
803.395710265
816.686316741
830.237759046
847.106091586
869.946663477
899.831466788
937.21467981
974.767814974
995.590062226
999.784354341
999.998074943
999.999999308
1000
1000
1000
1000
716.426264121
770.627860561
784.278486965
797.948762358
808.312101833
817.369447434
827.037395048
840.923450732
861.512281793
888.251983182
922.419490209
962.437994538
991.237758902
999.369897224
999.990557748
999.99998994
999.999999999
1000
1000
1000
717.011461508
774.919565418
786.800533309
798.08648053
807.32193963
815.153826437
823.058772851
835.863896068
854.571243119
877.519559435
907.752684819
948.43585722
984.639417872
998.399124391
999.959307848
999.999859656
999.999999999
1000
1000
1000
722.889901064
774.296748649
784.111764004
792.089481491
799.6536745
807.497593482
816.788010042
829.79265408
845.749553149
863.97629929
889.430737459
929.029178838
972.841684761
995.727391442
999.800524204
999.998032335
999.999999939
1000
1000
1000
724.758127224
763.216356739
770.237681267
774.634038681
782.934071349
794.884897517
808.115498907
821.414355853
834.00604816
847.275382756
866.971898274
901.173946612
949.808064359
987.568753238
998.934547704
999.976886981
999.999966951
1000
1000
1000
714.009349842
736.986447246
742.074225101
748.535549683
762.125902871
780.660947131
798.373497674
813.257260065
826.217223182
837.195042955
847.65490209
868.683193897
912.178040154
966.333328126
994.932571423
999.7812628
999.998171909
999.999999945
1000
1000
689.653471841
712.958308867
715.088760844
724.207686
743.277706606
767.765569846
790.344854615
809.454751477
826.061721778
837.70481552
841.605453666
844.01651909
870.872078132
929.134550226
982.185547644
998.578941275
999.973094357
999.999967577
999.999999999
1000
686.576347387
705.57107256
705.293766393
711.22359727
730.22268384
758.492899783
785.856299613
809.205330342
828.368700306
841.92929852
842.303696028
842.356475755
848.512326329
891.080038717
957.959850755
994.18609628
999.791727738
999.998664329
999.999999944
1000
688.120580967
705.114776817
705.210039336
708.099597839
725.144478569
754.685351157
785.086236248
811.184243268
834.937799801
849.667386456
847.124049039
842.409325488
842.46189945
868.816337811
932.035611842
985.203701816
999.083695479
999.988150077
999.999995322
999.999999999
685.775225987
706.45312547
705.277455018
708.497549698
725.435272522
755.111693243
787.1609221
818.261192454
845.718028157
851.846546524
851.791243307
846.07866082
842.598047907
860.395092922
914.528745351
974.35400838
997.577149448
999.949999267
999.999874028
999.999999984
688.120407103
709.81312151
705.514582646
710.360372316
728.436268415
759.429410272
795.15609164
830.909491696
851.789383271
851.791206225
851.978051117
851.731217707
846.204706735
858.047572767
904.279260065
965.134649442
995.557362366
999.87041757
999.999367545
999.999999844
685.909736223
714.737563306
708.347797946
715.208567467
736.315171273
770.353811091
809.562704665
845.483082111
851.791155547
852.10190922
851.791207062
852.079602015
851.215374132
855.8460205
895.999722951
957.432036622
993.288381271
999.742939511
999.998198697
999.999998886
688.188491911
720.438282732
714.268507534
723.436528001
748.775654012
786.658443267
826.880436088
851.788853259
851.996399734
851.791168633
852.386160274
851.7911964
851.134897605
848.537396401
884.754806414
948.282139705
990.16042734
999.513301888
999.995568315
999.999995064
686.242549315
726.558980885
722.811946774
734.692482624
763.692181038
803.849483362
842.319306334
851.902970114
851.791117458
852.430586393
851.791168232
852.588542896
841.583671664
828.933491748
866.494790379
933.470850796
984.406009474
998.977651447
999.987936587
999.999979539
688.201772988
732.472757305
734.358897983
749.887016963
780.327182185
818.799789515
850.667088227
851.791047884
852.337734255
851.791129027
852.668689017
851.791154502
823.562430848
820.841544859
846.990637954
909.975069169
973.246670653
997.622592685
999.962415179
999.99990871
687.438830173
738.85973842
746.379667212
766.646227028
797.032151912
830.865827903
851.790936648
852.142916724
851.791079212
852.6686507
851.791125908
835.978812309
820.567630808
821.03717267
826.961426679
880.193959441
955.582633701
994.601875442
999.876786198
999.999568313
688.286001146
746.998662892
757.942302236
780.627406709
809.559053545
838.123924157
851.939617891
851.791011495
852.616394481
851.791086221
848.654374369
820.73826581
821.037144351
820.682251457
821.037144917
857.086491343
934.148027979
988.883248168
999.604995009
999.997894016
690.032159752
758.074915213
767.861426925
787.83365495
813.706034914
839.009635706
851.790901892
852.374875769
851.791035199
850.175209944
824.766438559
821.037111077
820.658237448
821.037114963
820.876321944
843.539311503
912.848193845
979.619956427
998.847296238
999.990099714
701.926855587
768.80902522
772.562498593
788.140690161
812.692562593
835.469614587
847.238972056
845.839689955
840.448965422
831.573339203
825.264916592
822.383849798
821.037082142
820.870492803
821.037082314
835.699208793
893.047886974
965.956580074
996.962690113
999.956570419
716.322368477
768.284857101
768.423816323
779.941859587
803.157407637
822.242461613
827.968939992
825.612628721
825.759986239
831.716081809
836.457256671
834.15398402
826.059958664
821.615862148
820.983917203
831.767594009
874.453214499
946.727037054
992.678920972
999.82070272
722.788725926
751.931595784
742.220867176
747.792614157
775.557044079
799.55161862
808.617477381
814.80511483
826.521218757
840.780351839
851.226994254
849.605501305
839.61172777
829.643555774
826.076398087
830.467827185
855.280930772
920.565790305
983.709866287
999.320067977
719.921412533
719.18606597
697.948850457
699.916373774
730.279788615
768.240082356
791.880174609
809.107814923
828.112193501
848.791518416
859.565273805
859.497666753
853.449493199
844.317715965
836.471559143
828.844619934
828.809533666
886.443695157
966.980038355
997.661776345
709.610610738
692.005718154
673.035497574
673.034861964
688.642393537
728.460659753
768.410247879
798.480719247
825.395581718
849.194535444
862.494603917
863.30094835
860.968487034
856.022831547
845.531548723
824.095036201
819.178915233
856.072621552
940.716886368
992.891312453
696.588846527
678.526947108
671.814451327
672.596029684
672.569691803
696.289903636
738.430082226
779.777507273
816.288047033
847.156663893
863.281906918
864.411239377
863.549571302
861.411931095
851.382049896
822.779353676
819.167293425
835.692082178
910.165285284
982.55840942
686.851282555
673.664455759
672.582604793
671.676075957
672.600493616
681.939696673
715.84536649
761.630173872
805.907312821
843.942800523
863.463186467
864.947575849
864.310214257
863.28285806
855.612516201
825.352982358
819.150326802
824.558742837
884.255470457
966.783546151
1000
1000
1000
1000
1000
1000
1000
1000
1000
1000
1000
1000
1000
1000
1000
1000
1000
1000
1000
1000
1000
1000
1000
1000
1000
1000
1000
1000
1000
1000
1000
1000
1000
1000
1000
1000
1000
1000
1000
1000
1000
1000
1000
1000
1000
1000
1000
1000
1000
1000
1000
1000
1000
1000
1000
1000
1000
1000
1000
1000
1000
1000
1000
1000
1000
1000
1000
1000
1000
1000
1000
1000
1000
1000
1000
1000
1000
1000
1000
1000
1000
1000
1000
1000
1000
1000
1000
1000
1000
1000
1000
1000
1000
1000
1000
1000
1000
1000
1000
1000
1000
1000
1000
1000
1000
1000
1000
1000
1000
1000
1000
1000
1000
1000
1000
1000
1000
1000
1000
1000
1000
1000
1000
1000
1000
1000
1000
1000
1000
1000
1000
1000
1000
1000
1000
1000
1000
1000
1000
1000
1000
1000
1000
1000
1000
1000
1000
1000
1000
1000
1000
1000
1000
1000
1000
1000
1000
1000
1000
1000
1000
1000
1000
1000
1000
1000
1000
1000
1000
1000
1000
1000
1000
1000
1000
1000
1000
1000
1000
1000
1000
1000
1000
1000
1000
1000
1000
1000
1000
1000
1000
1000
1000
1000
1000
1000
1000
1000
1000
1000
1000
1000
1000
1000
1000
1000
1000
1000
1000
1000
1000
1000
1000
1000
1000
1000
1000
1000
1000
1000
1000
1000
1000
1000
1000
1000
1000
1000
1000
1000
1000
1000
1000
1000
1000
1000
1000
1000
1000
1000
1000
1000
1000
1000
1000
1000
1000
1000
1000
1000
1000
1000
1000
1000
1000
1000
1000
1000
1000
1000
1000
1000
1000
1000
1000
1000
1000
1000
1000
1000
1000
1000
1000
1000
1000
1000
1000
1000
1000
1000
1000
1000
1000
1000
1000
1000
1000
1000
1000
1000
1000
1000
1000
1000
1000
1000
1000
1000
1000
1000
1000
1000
1000
1000
1000
1000
1000
1000
1000
1000
1000
1000
1000
1000
1000
1000
1000
1000
1000
1000
1000
1000
1000
1000
1000
1000
1000
1000
1000
1000
1000
1000
1000
1000
1000
1000
1000
1000
1000
1000
1000
1000
1000
1000
1000
1000
1000
1000
1000
1000
1000
1000
1000
1000
1000
1000
1000
1000
1000
1000
1000
1000
1000
1000
1000
1000
1000
1000
1000
1000
1000
1000
1000
1000
1000
1000
1000
1000
1000
1000
1000
1000
1000
1000
1000
1000
1000
1000
1000
1000
1000
1000
1000
1000
1000
1000
1000
1000
1000
1000
1000
1000
1000
1000
1000
1000
1000
1000
1000
1000
1000
1000
1000
1000
1000
1000
1000
1000
1000
1000
1000
1000
1000
1000
1000
1000
1000
1000
1000
1000
1000
1000
1000
1000
1000
1000
1000
1000
1000
1000
1000
1000
1000
1000
1000
1000
1000
1000
1000
1000
1000
1000
1000
1000
1000
1000
1000
1000
1000
1000
1000
1000
1000
1000
1000
1000
1000
1000
1000
1000
1000
1000
1000
1000
1000
1000
1000
1000
1000
1000
1000
1000
1000
1000
1000
1000
1000
1000
1000
1000
1000
1000
1000
1000
1000
1000
1000
1000
1000
1000
1000
1000
1000
1000
1000
1000
1000
1000
1000
1000
1000
1000
1000
1000
1000
1000
1000
1000
1000
1000
999.999999999
1000
1000
1000
1000
1000
1000
1000
1000
1000
1000
1000
1000
1000
1000
1000
1000
1000
1000
1000
999.999999995
1000
1000
1000
1000
1000
1000
1000
1000
1000
1000
1000
1000
1000
1000
1000
1000
1000
1000
1000
999.999999958
1000
1000
1000
1000
1000
1000
1000
1000
1000
1000
1000
1000
1000
1000
1000
1000
1000
1000
1000
999.999999668
1000
1000
1000
1000
1000
1000
1000
1000
1000
1000
1000
1000
1000
1000
1000
1000
1000
1000
1000
999.99999825
1000
1000
1000
1000
1000
1000
1000
1000
1000
1000
1000
1000
1000
1000
1000
1000
1000
1000
1000
999.999983841
1000
1000
1000
1000
1000
1000
1000
1000
1000
1000
1000
1000
1000
1000
1000
1000
1000
1000
1000
999.999774001
1000
1000
1000
1000
1000
1000
1000
1000
1000
1000
1000
1000
1000
1000
1000
1000
1000
1000
1000
999.997641435
1000
1000
1000
1000
1000
1000
1000
1000
1000
1000
1000
1000
1000
1000
1000
1000
1000
1000
1000
999.980363421
1000
1000
1000
1000
1000
1000
1000
1000
1000
1000
1000
1000
1000
1000
1000
1000
1000
1000
1000
999.864897875
999.999959158
1000
1000
1000
1000
1000
1000
1000
1000
1000
1000
1000
1000
1000
1000
1000
1000
1000
1000
999.320967871
999.998484978
1000
1000
1000
1000
1000
1000
1000
1000
1000
1000
1000
1000
1000
1000
1000
1000
1000
1000
997.624451141
999.982337688
1000
)
;

boundaryField
{
    emptyPatch
    {
        type            empty;
    }
    minY
    {
        type            calculated;
        value           uniform 1000;
    }
    maxY
    {
        type            calculated;
        value           nonuniform List<scalar> 0();
    }
    maxX
    {
        type            calculated;
        value           nonuniform List<scalar> 
37
(
1000
1000
1000
1000
1000
1000
1000
1000
1000
1000
1000
1000
1000
1000
1000
1000
1000
1000
1000
1000
1000
1000
1000
1000
1000
1000
1000
1000
1000
1000
1000
1000
1000
1000
1000
1000
1000
)
;
    }
    water_to_heater
    {
        type            calculated;
        value           nonuniform List<scalar> 
61
(
915.181251743
694.813657787
694.813709302
693.523849653
693.523870785
693.523328293
693.523335444
701.890105329
715.319164362
716.631846395
716.631841434
716.849941774
716.84993684
715.693902372
715.693897864
716.849899117
715.104540801
716.849870901
716.849868501
715.246108325
715.246106494
716.849841464
716.849839595
716.264653674
716.849805871
722.730022073
722.730019849
724.598604891
724.598602312
713.846063572
713.846060384
689.481626202
686.404468173
687.950019146
687.950015463
685.603584609
685.603580791
687.949993603
687.949989436
685.738130985
688.017988894
686.070929677
686.070925564
688.030973803
688.03096971
687.267407035
687.267402678
688.114893219
689.861082975
701.759101771
701.759097247
716.159152375
716.159147688
722.627407234
722.627401945
719.758649092
709.444105248
696.418111073
696.418103244
686.678070222
686.678059795
)
;
    }
    procBoundary2to3
    {
        type            processor;
        value           nonuniform List<scalar> 
41
(
682.345234719
672.600528374
671.55949256
672.595307634
672.032749614
677.247073101
706.304388949
752.784176626
801.370805154
843.116223698
863.667627845
865.327816906
864.674579573
863.920903305
859.334417643
832.016428445
819.133363573
819.608038518
866.568314593
949.022101778
1000
1000
1000
1000
1000
1000
1000
1000
1000
1000
1000
1000
1000
1000
1000
1000
1000
993.982387059
999.893643093
1000
1000
)
;
    }
}


// ************************************************************************* //
