/*--------------------------------*- C++ -*----------------------------------*\
| =========                 |                                                 |
| \\      /  F ield         | OpenFOAM: The Open Source CFD Toolbox           |
|  \\    /   O peration     | Version:  2312                                  |
|   \\  /    A nd           | Website:  www.openfoam.com                      |
|    \\/     M anipulation  |                                                 |
\*---------------------------------------------------------------------------*/
FoamFile
{
    version     2.0;
    format      ascii;
    arch        "LSB;label=32;scalar=64";
    class       volScalarField;
    location    "0.18/water";
    object      nut.gas;
}
// * * * * * * * * * * * * * * * * * * * * * * * * * * * * * * * * * * * * * //

dimensions      [0 2 -1 0 0 0 0];

internalField   nonuniform List<scalar> 
750
(
1.02727579789e-07
1.02378045163e-07
1.06548609243e-07
1.17982968286e-07
1.2363211406e-07
1.34606772474e-07
1.2276655266e-07
7.37715032094e-08
3.91497147772e-08
2.95143718129e-08
2.75929803814e-07
5.4796001871e-08
6.99012936234e-09
2.20010949666e-09
2.33142655447e-09
3.91835791579e-09
7.80414246508e-09
2.00278061419e-08
4.88341997241e-08
9.61022496816e-08
1.72719001449e-07
2.9590194305e-07
4.88738508018e-07
8.09663895834e-07
1.23050454267e-06
3.21201830515e-06
7.52871384804e-06
8.43056986077e-06
8.7480222397e-06
8.44990276059e-06
2.36149798087e-07
4.28396539795e-08
4.76302871617e-09
1.79138037038e-09
1.59656380871e-09
1.98704133093e-09
3.27309580896e-09
7.13913201975e-09
1.85984017748e-08
4.80745727352e-08
1.166028814e-07
2.43201648593e-07
4.07000560222e-07
6.23959246268e-07
9.81154136059e-07
1.5857726105e-06
3.12237422503e-06
7.80826899699e-06
1.41635905244e-05
1.62109444861e-05
1.81932545544e-07
3.29345462524e-08
4.04788672635e-09
1.47508077079e-09
1.14499851328e-09
1.16391751102e-09
1.19137948554e-09
1.3024284354e-09
2.24738153957e-09
8.76983982652e-09
5.70273047873e-08
2.19422715493e-07
3.95870388514e-07
5.25123240535e-07
7.16818831865e-07
1.13610275967e-06
1.78955013151e-06
2.54100137943e-06
3.32091851795e-06
5.5447998243e-06
1.50426670935e-07
2.91094717185e-08
4.2273637676e-09
1.50667698466e-09
9.38063463561e-10
7.36758966924e-10
6.51677027277e-10
5.26843375696e-10
6.7731342226e-10
3.28998641549e-09
3.9138821968e-08
2.61065115616e-07
3.87800946557e-07
5.1926740251e-07
7.14559954012e-07
1.10715035929e-06
1.72269472438e-06
2.47052480434e-06
3.28800996226e-06
3.95772541902e-06
1.2006236889e-07
2.78882151973e-08
5.67749928819e-09
2.24190855014e-09
1.30151720861e-09
8.90047924414e-10
6.87641746551e-10
5.83198645599e-10
7.46202233566e-10
2.96147749415e-09
3.68479028456e-08
2.76640761582e-07
3.99777993029e-07
5.0540428925e-07
7.24154323213e-07
1.16010659555e-06
1.86572614357e-06
2.76312400355e-06
3.7457719065e-06
4.64132398754e-06
9.31447271694e-08
2.76891232361e-08
8.07153939023e-09
3.42309659176e-09
1.89154877641e-09
1.21823144484e-09
9.3172406107e-10
8.72010737948e-10
1.14960973318e-09
3.73053386209e-09
3.50853750628e-08
2.50163010408e-07
4.00012105944e-07
4.63716758394e-07
6.85868162852e-07
1.1493821142e-06
1.9413705147e-06
2.97015737682e-06
4.05125907925e-06
4.91722930235e-06
7.16260953713e-08
2.59771517617e-08
9.42115778899e-09
4.23496594841e-09
2.31445799166e-09
1.49387099339e-09
1.24590484552e-09
1.36484343297e-09
1.97273483679e-09
5.82580276599e-09
3.5834596338e-08
1.99366489535e-07
3.20251727313e-07
4.03331005208e-07
6.23084958853e-07
1.12713292808e-06
2.00095976396e-06
3.03374072883e-06
3.85413125885e-06
4.53652137355e-06
5.92587352012e-08
2.32461212995e-08
9.19871945264e-09
4.27580776311e-09
2.3908071359e-09
1.74322742804e-09
1.78264876163e-09
2.21594276837e-09
3.57598113675e-09
1.09048670472e-08
4.76776112692e-08
1.51939513512e-07
2.5996473516e-07
3.63402818878e-07
5.96941737677e-07
1.16430105979e-06
2.09256795019e-06
3.05563928569e-06
3.78890844823e-06
4.52639019035e-06
5.24438548444e-08
2.03390058788e-08
8.13645731697e-09
3.95285788595e-09
2.55647212028e-09
2.44826882961e-09
2.78109072024e-09
3.29672466481e-09
6.19432422792e-09
1.91310822817e-08
6.61852154421e-08
1.65298274276e-07
2.61381126578e-07
3.79458084244e-07
6.59651626304e-07
1.31668128726e-06
2.35912872504e-06
3.44533106595e-06
4.26929998497e-06
5.00064495395e-06
4.92549477414e-08
1.85644255361e-08
7.57775879961e-09
4.14488228554e-09
3.51468662637e-09
3.74346395086e-09
3.7066890179e-09
4.43585435947e-09
9.97693131493e-09
3.07521970088e-08
9.5847284761e-08
2.04944070098e-07
3.18334976981e-07
4.93184265788e-07
8.64697250308e-07
1.60176209291e-06
2.81244517119e-06
4.3392213548e-06
5.83464887614e-06
6.8397691021e-06
4.83394318475e-08
1.83067667743e-08
8.28537810664e-09
5.67459888053e-09
5.52953474937e-09
5.16929651032e-09
4.86536065161e-09
7.3342343708e-09
1.71215289217e-08
5.50234900784e-08
1.57113091703e-07
3.02300071478e-07
5.33696367269e-07
7.26183008498e-07
1.26687462995e-06
2.19046239239e-06
3.54015279846e-06
5.2572849889e-06
7.50113744641e-06
9.93331264793e-06
4.87550943202e-08
2.06477629621e-08
1.15605151631e-08
9.39912990078e-09
8.54033646552e-09
7.01293557942e-09
7.48300996775e-09
1.14620668811e-08
2.89798482274e-08
1.00707093327e-07
2.69395749405e-07
5.18472702704e-07
7.779491106e-07
9.52455936888e-07
1.63346881461e-06
2.79181512154e-06
4.40166383161e-06
6.30682453285e-06
8.85966935042e-06
1.22987072391e-05
5.06195762341e-08
2.70722529638e-08
1.82717970227e-08
1.52273667742e-08
1.17845652945e-08
1.00873760909e-08
1.11973548231e-08
1.8556280181e-08
5.47197422118e-08
1.62215921195e-07
4.10730410107e-07
6.3487964275e-07
6.9160841474e-07
1.11139140835e-06
1.90227221784e-06
3.26417260612e-06
4.99539482881e-06
6.91536181025e-06
9.43087098286e-06
1.29954978805e-05
5.50437602653e-08
3.75665683192e-08
2.80948722883e-08
2.06199124331e-08
1.50299075246e-08
1.40410955862e-08
1.74484070749e-08
3.56822753257e-08
1.0943556558e-07
3.11057755979e-07
5.13034852236e-07
6.89628460245e-07
8.01714067035e-07
1.28088550357e-06
2.14827912294e-06
3.56304383067e-06
5.27603060536e-06
7.04306890317e-06
9.32275020421e-06
1.26377439535e-05
5.94072459453e-08
4.73983935212e-08
3.64180475807e-08
2.32063257341e-08
1.82195897554e-08
1.92942219291e-08
3.16942761913e-08
8.61991460444e-08
2.66262086793e-07
5.43170959375e-07
6.59343287564e-07
6.02095426873e-07
9.30874513206e-07
1.45291329517e-06
2.28895220736e-06
3.66890353706e-06
5.33158367664e-06
6.94299485548e-06
9.04259461734e-06
1.22482241242e-05
5.93868447472e-08
5.17867661696e-08
3.63879555915e-08
2.39937060464e-08
2.18655670494e-08
3.0004434548e-08
7.12200363303e-08
2.5033355576e-07
6.5675480424e-07
8.27922505573e-07
5.75739497017e-07
6.58397139276e-07
1.02625562569e-06
1.53306453242e-06
2.29952640544e-06
3.60402762902e-06
5.23317159771e-06
6.75913745521e-06
8.79668373699e-06
1.20605796699e-05
5.24207153904e-08
4.68159004033e-08
2.99388103868e-08
2.60499679833e-08
3.37479235281e-08
6.90201227757e-08
2.36238120319e-07
6.98987815225e-07
8.35960335818e-07
6.91235031173e-07
4.53031017144e-07
7.2169342764e-07
1.10498314435e-06
1.55685675927e-06
2.24298890634e-06
3.45411929918e-06
5.06638003696e-06
6.60128191041e-06
8.70084209219e-06
1.2108536152e-05
4.30851159236e-08
3.50867648484e-08
2.60438559072e-08
3.92556954026e-08
8.45990727843e-08
2.77694181075e-07
7.64370876511e-07
9.09012694055e-07
6.18281849054e-07
3.60932565993e-07
5.5783476555e-07
8.29725596986e-07
1.17954949503e-06
1.57098625669e-06
2.18689994129e-06
3.31458564351e-06
4.92196991725e-06
6.52943422536e-06
8.76560221363e-06
1.23593170848e-05
3.70350557008e-08
2.58393280862e-08
3.58453599473e-08
8.59319714118e-08
2.2322323602e-07
5.41825568121e-07
6.58057170216e-07
4.04082160887e-07
2.86098969016e-07
4.15410469159e-07
7.01522931871e-07
1.00053166618e-06
1.27024890222e-06
1.60474851564e-06
2.17452564564e-06
3.28006995743e-06
4.89217716643e-06
6.58045812663e-06
8.95048883582e-06
1.27241145371e-05
3.03738238992e-08
3.56698410832e-08
9.45254121655e-08
2.25542785451e-07
4.20301340915e-07
4.16132573453e-07
2.55794245793e-07
2.45613383192e-07
3.08180770586e-07
5.27863582297e-07
8.61874989027e-07
1.11952754878e-06
1.36582937903e-06
1.70142457402e-06
2.29003246778e-06
3.40612622223e-06
5.05783880955e-06
6.78337672999e-06
9.22664821238e-06
1.3147800817e-05
3.24590394548e-08
5.46843312626e-08
1.96455655164e-07
3.56988868956e-07
4.01334318833e-07
2.61498715993e-07
2.39799050228e-07
2.57287074338e-07
3.49439326697e-07
6.37871386313e-07
9.47185554661e-07
1.20318059527e-06
1.47348415756e-06
1.86768477942e-06
2.5538928213e-06
3.73008247945e-06
5.36188848605e-06
7.07752383691e-06
9.51762634972e-06
1.35221337525e-05
4.00383615863e-08
8.59251482014e-08
2.80307215028e-07
3.7722509031e-07
2.81468968399e-07
2.55517488103e-07
2.53778088606e-07
2.89677717469e-07
3.91479416779e-07
6.68694766063e-07
9.70296691021e-07
1.25920148309e-06
1.6007328373e-06
2.11505914462e-06
2.94769796009e-06
4.19306861272e-06
5.75258837648e-06
7.39009256049e-06
9.74830403073e-06
1.37488474984e-05
5.07221285786e-08
1.26962335349e-07
3.13086587532e-07
2.87351265464e-07
2.86094865843e-07
2.70254500024e-07
2.87937164932e-07
3.46694635927e-07
4.64466336173e-07
6.99630659868e-07
1.01547903509e-06
1.37127675678e-06
1.84089910327e-06
2.52777869228e-06
3.49687345158e-06
4.74410040973e-06
6.17874088611e-06
7.69935556211e-06
9.94193106993e-06
1.38902021485e-05
5.97342939347e-08
1.51765986015e-07
3.22847667388e-07
3.00339017681e-07
3.11321138592e-07
3.00048603616e-07
3.34494927987e-07
4.26345000938e-07
5.84083773246e-07
8.35556654595e-07
1.20121741818e-06
1.67049672987e-06
2.31251168967e-06
3.16175213604e-06
4.18727065816e-06
5.34583518291e-06
6.59100072741e-06
7.950841688e-06
1.00674868706e-05
1.39222787998e-05
6.33046063531e-08
1.47713774055e-07
3.15745313193e-07
3.16801314222e-07
3.40532798762e-07
3.30737613192e-07
3.78091585033e-07
5.12977524577e-07
7.47068697131e-07
1.09508469613e-06
1.56106929381e-06
2.14453379303e-06
2.92811602166e-06
3.85144740471e-06
4.8403608343e-06
5.85598605992e-06
6.89548338137e-06
8.0784278294e-06
1.00139060816e-05
1.36692109083e-05
5.54768500349e-08
8.99001272916e-08
3.00013319032e-07
3.21117555937e-07
3.63132253559e-07
3.53112059388e-07
4.05898490103e-07
5.7594858875e-07
8.88717610814e-07
1.35894847174e-06
1.95591906488e-06
2.63192509394e-06
3.47851167569e-06
4.39134724553e-06
5.29390490133e-06
6.15543757257e-06
6.99680175239e-06
7.96761134737e-06
9.5721502575e-06
1.27629211196e-05
4.51410408178e-08
6.68533982635e-08
2.71012045002e-07
3.19745525776e-07
3.7670872577e-07
3.63325081006e-07
4.10257760508e-07
5.88548592868e-07
9.38194098887e-07
1.48799243097e-06
2.18851675165e-06
2.93052629376e-06
3.77802039546e-06
4.63472419163e-06
5.42758147066e-06
6.12417915266e-06
6.74690385811e-06
7.41895618193e-06
8.46651912733e-06
1.05562407855e-05
3.94131395116e-08
5.0903745983e-08
2.29149933272e-07
3.13627184876e-07
3.80032272366e-07
3.61628867974e-07
3.89093712583e-07
5.39581586823e-07
8.60439866518e-07
1.40536723844e-06
2.1543638961e-06
2.92509285267e-06
3.74803582272e-06
4.54000202519e-06
5.22779911789e-06
5.77426533349e-06
6.20347669662e-06
6.61493118204e-06
7.17498685196e-06
8.00025402815e-06
3.8429479168e-08
4.54047997167e-08
1.64522681404e-07
2.97072544124e-07
3.68794654267e-07
3.4957615398e-07
3.61141363344e-07
4.72812623554e-07
7.2367175473e-07
1.16789767628e-06
1.85410787071e-06
2.59567403085e-06
3.37122037696e-06
4.10243062594e-06
4.7057808404e-06
5.12574650655e-06
5.37486030186e-06
5.5152540173e-06
5.58817684008e-06
5.66321802127e-06
4.75892295316e-08
4.26521617001e-08
1.17673381326e-07
2.5338720619e-07
3.4730330514e-07
3.36095094904e-07
3.29738388356e-07
3.97489413374e-07
5.69068350369e-07
8.79749156127e-07
1.37655979788e-06
2.03153873176e-06
2.71957959976e-06
3.38016667988e-06
3.93288911307e-06
4.28969666072e-06
4.43344116003e-06
4.35603595038e-06
3.86747241655e-06
3.48699787988e-06
7.24315980237e-08
4.76368737617e-08
7.32631075029e-08
1.90300860505e-07
3.13223097194e-07
3.48674987175e-07
3.13577272173e-07
3.13785924763e-07
3.87723678583e-07
5.58254450865e-07
8.61431502305e-07
1.3436079222e-06
1.95324221073e-06
2.54948850599e-06
3.04982302539e-06
3.39804345801e-06
3.55953641897e-06
3.50241824755e-06
2.93813671807e-06
2.56938334597e-06
9.61589348369e-08
6.66599766851e-08
6.2376408996e-08
1.4772367788e-07
3.23716022459e-07
5.00774338314e-07
3.7483972518e-07
3.1049007488e-07
2.83692037223e-07
3.26599483642e-07
4.5517025029e-07
7.03740403885e-07
1.124855661e-06
1.69690418841e-06
2.1889179428e-06
2.53462771904e-06
2.7569523612e-06
2.75207038648e-06
2.30900619298e-06
2.19948823172e-06
9.64000464965e-08
7.66855034396e-08
6.99950383501e-08
8.73962290398e-08
2.40797422084e-07
8.65506262032e-07
1.04698996845e-06
6.09457145005e-07
3.67224268645e-07
2.77833925512e-07
2.82931574359e-07
3.67918439832e-07
5.57726600121e-07
9.04187150208e-07
1.40159728365e-06
1.77579048195e-06
2.06036138903e-06
2.08833444545e-06
1.87968914673e-06
2.03420299102e-06
9.07315986828e-08
7.60925117694e-08
6.99248304753e-08
8.51892147687e-08
1.68226658598e-07
4.72769638187e-07
3.14896155896e-06
3.60972715498e-06
1.84123103498e-06
6.34448155912e-07
3.32921468318e-07
3.01519949012e-07
3.63057242401e-07
5.23718769375e-07
8.22197870077e-07
1.24851200641e-06
1.60846187996e-06
1.79348563472e-06
1.76325403979e-06
2.06221258664e-06
8.14874764011e-08
7.4673238802e-08
6.86494273778e-08
7.80356467737e-08
1.85052435278e-07
5.10268363427e-07
2.06663042526e-06
4.39465342784e-06
4.79626268191e-06
4.73520673073e-06
2.55907643624e-06
6.55691750419e-07
4.07106145885e-07
4.94352544603e-07
7.1638044066e-07
1.09214373793e-06
1.5435951463e-06
1.85445291602e-06
1.93480111196e-06
2.23501617148e-06
7.69201910298e-08
7.65859183973e-08
7.1050504063e-08
8.34653852037e-08
2.87541000777e-07
7.84454644347e-07
1.26363055631e-06
4.99826270504e-06
4.77523745119e-06
5.32871912418e-06
5.42431090867e-06
4.77526065964e-06
1.89850224341e-06
5.75515639385e-07
8.05718003287e-07
1.22588417967e-06
1.7056942612e-06
2.15362896791e-06
2.49183586681e-06
2.8004515274e-06
8.53122917386e-08
8.34022550342e-08
7.62409186539e-08
9.7611629113e-08
4.20692984046e-07
8.52818638541e-07
1.85120707061e-06
4.96008222655e-06
4.49533759442e-06
5.22138127186e-06
5.66622030137e-06
5.52376575936e-06
4.93358894109e-06
9.67279960186e-07
8.02888400414e-07
1.22943466653e-06
1.72484920791e-06
2.19250798347e-06
2.69450825645e-06
3.32054538626e-06
)
;

boundaryField
{
    emptyPatch
    {
        type            empty;
    }
    minY
    {
        type            calculated;
        value           nonuniform List<scalar> 0();
    }
    maxY
    {
        type            calculated;
        value           nonuniform List<scalar> 
20
(
8.5311911304e-08
8.34018785786e-08
7.62405692444e-08
9.76111764868e-08
4.2069103974e-07
8.52818180231e-07
1.85119321649e-06
4.95994200009e-06
4.49514238851e-06
5.22108879104e-06
5.66583648614e-06
5.52333183069e-06
4.93314545743e-06
9.67177016663e-07
8.02798008861e-07
1.22930907606e-06
1.72471883837e-06
2.19241483033e-06
2.69445952107e-06
3.32052707625e-06
)
;
    }
    maxX
    {
        type            nutkWallFunction;
        blending        stepwise;
        value           uniform 0;
    }
    water_to_heater
    {
        type            nutkWallFunction;
        blending        stepwise;
        value           nonuniform List<scalar> 0();
    }
    procBoundary2to1
    {
        type            processor;
        value           nonuniform List<scalar> 
20
(
3.79585728351e-07
9.78257006544e-08
1.49596909441e-08
3.62828348548e-09
2.73392205291e-09
4.79429235402e-09
9.08441665514e-09
1.97729701864e-08
4.60863133104e-08
9.8133297522e-08
1.97931989703e-07
3.61629694428e-07
5.77512893659e-07
8.30752579356e-07
1.082488983e-06
1.33028373938e-06
1.94070019922e-06
2.82631720663e-06
5.13393558556e-06
4.27948917385e-06
)
;
    }
    procBoundary2to3
    {
        type            processor;
        value           nonuniform List<scalar> 
39
(
3.43224162637e-07
3.00374129475e-07
1.91316794698e-07
1.60428630921e-07
1.38815619195e-07
1.23086286191e-07
1.14105713027e-07
1.08392524067e-07
1.04870099353e-07
1.03222627226e-07
1.02869492611e-07
1.02869492611e-07
1.11281636744e-07
1.12962782051e-07
1.1325848198e-07
1.32053933055e-07
1.55879419689e-07
1.66972966371e-07
1.32912963205e-07
7.94662348968e-08
4.23932109921e-08
2.8487994174e-08
3.53192646179e-08
3.53192646179e-08
4.68117209547e-08
5.63782327186e-08
5.85982392658e-08
4.89220664705e-08
3.82712693167e-08
3.23199137315e-08
3.2966511722e-08
4.75892209691e-08
9.30636665579e-08
1.25940604272e-07
1.30322942168e-07
1.29005642703e-07
1.19656587181e-07
1.06547029101e-07
9.51808303204e-08
)
;
    }
}


// ************************************************************************* //
