/*--------------------------------*- C++ -*----------------------------------*\
| =========                 |                                                 |
| \\      /  F ield         | OpenFOAM: The Open Source CFD Toolbox           |
|  \\    /   O peration     | Version:  2312                                  |
|   \\  /    A nd           | Website:  www.openfoam.com                      |
|    \\/     M anipulation  |                                                 |
\*---------------------------------------------------------------------------*/
FoamFile
{
    version     2.0;
    format      ascii;
    arch        "LSB;label=32;scalar=64";
    class       volScalarField;
    location    "0.18/water";
    object      Tf.gasAndLiquid;
}
// * * * * * * * * * * * * * * * * * * * * * * * * * * * * * * * * * * * * * //

dimensions      [0 0 0 1 0 0 0];

internalField   nonuniform List<scalar> 
750
(
323.143412033
319.397841279
318.533368497
315.026580907
308.681275367
305.05428002
303.724251173
304.400700833
302.991248186
307.052377619
301.731398108
301.020440574
300.689142991
300.498425724
300.384724404
300.322988391
300.289017091
300.268436148
300.246265869
300.221083524
300.197570796
300.177363348
300.160687562
300.146192982
300.134065643
300.123858588
300.115904348
300.110451811
300.106105532
300.10004202
302.087448402
300.959723461
300.596218278
300.476809814
300.419979417
300.408160231
300.395944205
300.3627201
300.32273506
300.277229098
300.234067473
300.20014111
300.175020125
300.159621117
300.145432167
300.132622052
300.121760917
300.114093874
300.108390887
300.102907541
304.459834661
301.241006481
300.651676311
300.537038687
300.528126906
300.565230744
300.542933425
300.497586714
300.432361975
300.353629027
300.278181595
300.222885404
300.189107967
300.168446597
300.152805905
300.138896621
300.12603993
300.115571846
300.107914595
300.101318392
306.271892251
301.71251756
300.95394578
300.889113655
300.902327915
300.906047997
300.749977226
300.613013149
300.501774174
300.407172445
300.320780079
300.251142431
300.207259532
300.179727106
300.159994928
300.144033352
300.130827802
300.120250582
300.111223467
300.102907926
308.670413717
303.108760165
302.042531516
301.694936567
301.527543509
301.330588761
300.935660482
300.689468401
300.54163835
300.434580337
300.345539685
300.272164645
300.22028052
300.188705102
300.166183952
300.148280633
300.133846474
300.122850656
300.114169674
300.106233494
311.060378888
305.217128914
303.277761352
302.546307394
302.165257108
301.704793313
301.102484845
300.757110125
300.571101122
300.452235058
300.361294538
300.287746467
300.231480866
300.198007728
300.174363101
300.15569975
300.140669725
300.129271338
300.120790406
300.113641557
312.328648864
306.370591773
304.144940942
303.192410694
302.565733677
301.819128579
301.121865659
300.76046984
300.568951853
300.450131571
300.363395989
300.294923752
300.240061835
300.206442027
300.183277346
300.165180217
300.150176076
300.138461769
300.130258534
300.123038227
313.034737121
306.9371989
304.533537224
303.340260755
302.382122019
301.514788902
300.979227493
300.701019563
300.538615572
300.431856947
300.353373072
300.291471261
300.241066342
300.208118555
300.186229785
300.169511487
300.155296896
300.143869731
300.135171002
300.127711376
313.565689525
307.186700866
304.531674779
303.053690872
301.925675706
301.232065018
300.870001763
300.661566132
300.525139226
300.425400595
300.34934408
300.289793055
300.240727472
300.204635474
300.181762978
300.164934096
300.15090558
300.139620511
300.131378534
300.124270368
313.953808549
307.299192952
304.282135822
302.581994242
301.602048815
301.096009078
300.815218156
300.639945933
300.511960234
300.414563577
300.339012489
300.280781444
300.23339882
300.194215716
300.167970663
300.150220803
300.136656171
300.126647574
300.119071799
300.112549273
313.103957443
306.053925489
303.244741151
301.937324902
301.289071841
300.935896465
300.724188914
300.572298721
300.458497318
300.370245467
300.301853229
300.248701725
300.202863496
300.166550548
300.143751002
300.127306297
300.113816997
300.103630422
300.096566446
300.090584341
311.847539326
305.364284261
302.810646199
301.689538838
301.137916082
300.830830966
300.630926678
300.49020486
300.38668577
300.308436649
300.250086805
300.198968876
300.157585381
300.13150774
300.114659204
300.098604941
300.082466635
300.068224218
300.057493032
300.050810488
309.941094149
304.631410891
302.527327025
301.535099481
301.020242292
300.727593699
300.534301004
300.403688431
300.310909099
300.244762
300.193509214
300.147623592
300.116326101
300.100381273
300.084838245
300.064917022
300.046161859
300.033973596
300.027039053
300.023048854
309.298738583
304.453135484
302.346216054
301.367954207
300.900885903
300.615810069
300.439222614
300.323583046
300.244881276
300.191229452
300.1424264
300.103622798
300.086351193
300.073896041
300.055697833
300.036287043
300.025001242
300.019068591
300.015674056
300.013486367
307.934562061
303.957754358
302.053185844
301.192067588
300.753391024
300.502068247
300.351781987
300.256138325
300.193697458
300.144196806
300.09630903
300.073494539
300.062752252
300.050051379
300.032824717
300.022366885
300.017195211
300.014279094
300.012349427
300.010932607
305.489108314
302.993485227
301.619506808
300.974240809
300.620321222
300.419925726
300.298085013
300.220410662
300.164209422
300.107102672
300.07004728
300.05711408
300.046978351
300.033873737
300.023658065
300.018447163
300.015652418
300.01385749
300.012521494
300.011427882
303.535709299
302.172876608
301.257690028
300.783536013
300.517134043
300.360272189
300.262246769
300.192808489
300.126621319
300.076085499
300.057083502
300.045247518
300.034854752
300.026184492
300.021234862
300.018405524
300.016604352
300.015296999
300.014247158
300.013291747
302.327932303
301.555651019
300.973224985
300.623139996
300.425946485
300.304784571
300.213419888
300.13603254
300.080615737
300.057859972
300.043076545
300.033300107
300.02754399
300.024145511
300.021798738
300.020033052
300.018699631
300.017637867
300.016739034
300.015827607
301.633019763
301.144708771
300.761444815
300.52042007
300.37146521
300.250889569
300.154041382
300.092444079
300.063605523
300.045846279
300.034841405
300.030087382
300.027363045
300.025364251
300.02372559
300.022397143
300.021332008
300.020425682
300.019609631
300.018696629
301.410153111
300.864822237
300.567672081
300.399409823
300.250698583
300.151599012
300.098615674
300.069720166
300.051646586
300.041039551
300.035069968
300.031646023
300.029321141
300.027601168
300.026272896
300.025199291
300.024295834
300.023487025
300.022706308
300.021756373
302.218077494
300.905419606
300.551118706
300.312016402
300.183784256
300.125773737
300.089591547
300.067374512
300.053545727
300.044202562
300.038499787
300.034884105
300.032416389
300.030713926
300.029491563
300.028528926
300.02768307
300.026893148
300.026091778
300.025068428
301.776280708
300.771981767
300.416020805
300.249110305
300.171528681
300.122893599
300.09177113
300.072014046
300.058797124
300.049485195
300.043263816
300.039115983
300.036364351
300.034540778
300.033289946
300.032318825
300.031457287
300.030624908
300.029758278
300.028626804
301.153943339
300.576880662
300.345207595
300.242912028
300.175308828
300.128916212
300.098476357
300.078766908
300.065355032
300.055637001
300.048683131
300.043964507
300.040865981
300.038857434
300.037498601
300.03644409
300.035503244
300.034587346
300.033624314
300.032363414
301.21079341
300.571292636
300.350949709
300.25461418
300.187183204
300.139617853
300.10758615
300.086489856
300.07209437
300.06165065
300.054061421
300.04888553
300.045491441
300.043293561
300.041780448
300.040595475
300.039547608
300.038539865
300.037474643
300.036072528
301.465914232
300.625995429
300.364338134
300.266461597
300.198446374
300.149345568
300.115489446
300.092877618
300.077506068
300.066514106
300.058641253
300.053221858
300.04963001
300.047231164
300.045519163
300.044174826
300.043016797
300.041929131
300.040773522
300.039230372
301.436053462
300.604181989
300.368164603
300.271206285
300.204476967
300.155391932
300.120780342
300.097271534
300.081220239
300.069825875
300.061762355
300.056165634
300.052300518
300.049563802
300.047528809
300.045931621
300.04460601
300.043419043
300.042177388
300.040486596
301.524884261
300.608556227
300.369886108
300.270596759
300.205788674
300.157901802
300.123658653
300.099941701
300.083468021
300.071660669
300.063208026
300.057124
300.052627776
300.049211319
300.046536197
300.044393508
300.042642075
300.041163353
300.03976089
300.037947249
301.59775017
300.62160718
300.373078595
300.270564466
300.207085201
300.160396406
300.126772286
300.103034986
300.086157527
300.073741601
300.064515072
300.057573076
300.052162922
300.047807443
300.044213145
300.041224497
300.038746388
300.036674565
300.03494554
300.033042891
301.277124691
300.536979645
300.358070859
300.268371575
300.207582084
300.162615524
300.130030583
300.106699552
300.089859741
300.077283696
300.067592511
300.059928986
300.05371476
300.048413509
300.043710426
300.039514643
300.035722608
300.03224834
300.029387105
300.026913709
301.340559147
300.572537093
300.356646063
300.27106165
300.212690958
300.168133988
300.135244563
300.11137998
300.094051399
300.081249061
300.071456105
300.063531426
300.056920694
300.051186701
300.045983721
300.041256328
300.037051242
300.033372572
300.030767999
300.028155429
302.390352091
300.860241147
300.420491192
300.300960785
300.236961932
300.187979848
300.149883065
300.121624614
300.10094576
300.085808382
300.074609718
300.066125185
300.059293887
300.053474505
300.04824338
300.043407888
300.03924161
300.035764113
300.033738483
300.031282143
304.761588354
301.925651079
300.732757841
300.417193897
300.291562821
300.227588102
300.179623281
300.14220892
300.114303681
300.09387149
300.079025408
300.068201446
300.060191353
300.053859324
300.048316461
300.043214781
300.038888433
300.035774208
300.033823835
300.031273903
306.597054252
303.93307157
301.614768204
300.709855785
300.445175148
300.307557249
300.226128908
300.174782008
300.135607171
300.106937856
300.086233456
300.071491477
300.061088653
300.053628156
300.047620385
300.042534976
300.038181584
300.035404513
300.03334224
300.03074958
307.622696905
305.339311138
303.346984003
301.343083196
300.660225462
300.45295255
300.349520297
300.227572815
300.167694775
300.126429609
300.097393562
300.076871619
300.062584364
300.052782272
300.045613267
300.040427708
300.036362507
300.033680491
300.03168292
300.029290295
307.94811268
305.688626721
304.453454829
302.191658135
300.974417939
300.551245016
300.49870298
300.337209205
300.226470431
300.157963285
300.112707277
300.084358275
300.064837139
300.051708764
300.042888354
300.037712143
300.034075972
300.031418344
300.029507329
300.027343596
307.634663407
305.492705714
304.33583787
302.63196776
301.019927397
300.609310251
300.550946587
300.432498591
300.271712604
300.186258454
300.131056214
300.091726536
300.064892717
300.049492691
300.039777346
300.034556387
300.031220268
300.028777507
300.026957662
300.024967573
307.068331098
305.117479531
304.079659573
302.462383053
301.048823418
300.641859112
300.588554195
300.45828388
300.286376596
300.189682666
300.130378513
300.091871145
300.061579202
300.045390326
300.036135656
300.030983576
300.027644925
300.02533147
300.023520382
300.021546812
)
;

boundaryField
{
    emptyPatch
    {
        type            empty;
    }
    minY
    {
        type            calculated;
        value           nonuniform List<scalar> 0();
    }
    maxY
    {
        type            calculated;
        value           nonuniform List<scalar> 
20
(
307.068330205
305.11747906
304.079659275
302.462382846
301.048823294
300.64185909
300.58855406
300.458283678
300.286376582
300.189682662
300.13037851
300.091871146
300.061579247
300.045390353
300.036135664
300.030983579
300.027644927
300.025331472
300.023520383
300.021546812
)
;
    }
    maxX
    {
        type            calculated;
        value           nonuniform List<scalar> 
37
(
300
300
300
300
300
300
300
300
300
300
300
300
300
300
300
300
300
300
300
300
300
300
300
300
300
300
300
300
300
300
300
300
300
300
300
300
300
)
;
    }
    water_to_heater
    {
        type            calculated;
        value           nonuniform List<scalar> 0();
    }
    procBoundary2to1
    {
        type            processor;
        value           nonuniform List<scalar> 
20
(
302.204225982
301.352060088
300.881416846
300.591090379
300.407347477
300.296346344
300.231523921
300.204312348
300.1858524
300.167380113
300.151400146
300.138981718
300.129606358
300.121519099
300.114061838
300.107329453
300.101835003
300.097469248
300.094570454
300.088696721
)
;
    }
    procBoundary2to3
    {
        type            processor;
        value           nonuniform List<scalar> 
39
(
301.991343155
303.662621981
311.821228069
315.333538293
318.233074746
320.699679497
322.293089449
323.324861105
324.200592509
324.906762458
324.756037419
324.756037419
325.336771948
321.445843674
320.571764772
316.592654424
309.382452014
305.406856213
304.520776749
305.817893524
303.791288165
308.486345165
305.773204745
305.773204745
303.224219233
302.581148898
303.552185643
303.568841708
304.017397169
304.541318246
303.854239588
302.598142409
304.837147122
309.222107786
312.040594265
313.61749131
314.086766865
313.635885792
312.814308898
)
;
    }
}


// ************************************************************************* //
