/*--------------------------------*- C++ -*----------------------------------*\
| =========                 |                                                 |
| \\      /  F ield         | OpenFOAM: The Open Source CFD Toolbox           |
|  \\    /   O peration     | Version:  2312                                  |
|   \\  /    A nd           | Website:  www.openfoam.com                      |
|    \\/     M anipulation  |                                                 |
\*---------------------------------------------------------------------------*/
FoamFile
{
    version     2.0;
    format      ascii;
    arch        "LSB;label=32;scalar=64";
    class       volScalarField;
    location    "0.215/water";
    object      k.gas;
}
// * * * * * * * * * * * * * * * * * * * * * * * * * * * * * * * * * * * * * //

dimensions      [0 2 -2 0 0 0 0];

internalField   nonuniform List<scalar> 
1497
(
0.0384065104781
0.0248035212965
0.0167609152145
0.0116893748379
0.00831624583594
0.00589132816818
0.00395040671345
0.00231518505116
0.00111023615232
0.000463372655815
0.000226116763848
0.000183245421201
0.000222471458797
4.65740713104
2.17280564807
0.974938265299
0.450282630255
0.229828423358
0.13061853386
0.0799590565097
0.0502759229989
0.032678532859
0.0217479448675
0.0147149214208
0.0101077797016
0.00699453640158
0.00467855631607
0.00279219347664
0.001382127005
0.000599058774348
0.000282816393837
0.000184086694219
0.000207847852368
5.24613499728
2.21728995621
1.01066118615
0.497901097163
0.271625536615
0.164385702477
0.106197346717
0.0683386295232
0.0449654257414
0.02984942946
0.0198435236443
0.0132481545601
0.00890353109408
0.00587003867222
0.00354751861453
0.00182335097826
0.000817660663143
0.000376625318062
0.000216283351585
0.000189812602396
5.25953224708
2.24342873813
1.06235740062
0.554853537085
0.321276461652
0.204616553714
0.138516965945
0.0935897515149
0.0616432551572
0.0408847630596
0.027004343332
0.0177675552569
0.0116791338387
0.00756698207342
0.00459874258927
0.00246293957481
0.00115866299434
0.000532436345749
0.000280434416135
0.000196908123068
4.96787900999
2.18174712072
1.08099139617
0.595115751559
0.361202710981
0.238121917906
0.165550602328
0.115840748897
0.0786720883516
0.052883145598
0.0351470009528
0.0230917346359
0.0150419234904
0.00963537707728
0.00586889512485
0.00324745289624
0.0016057044944
0.000754922706875
0.000382000131523
0.000242062511697
4.41823279719
2.00891627649
1.04410715099
0.602224817174
0.380107240353
0.258052030234
0.183538296712
0.13185299011
0.092045752634
0.0629776132342
0.0423307302772
0.0279739016598
0.0182404276323
0.0116647684068
0.00714314167231
0.00404271694919
0.00208036131397
0.00101372165547
0.000515838494391
0.000314315868263
3.62136265254
1.73698613668
0.942141542721
0.565894353147
0.370588120465
0.25939377672
0.188992159666
0.138831353621
0.0992044757431
0.0690692532112
0.0470048819573
0.0313276457007
0.0205481013939
0.0132244167031
0.00818799268311
0.00472490539686
0.00251447972794
0.00127762790748
0.000673514486966
0.000414452664792
2.85359423621
1.41728764551
0.791950344126
0.493209771252
0.335607770117
0.243083237292
0.181945224058
0.1365232457
0.0994557309804
0.0703287361397
0.0484140382308
0.0325595359073
0.021547226614
0.0140343270812
0.00882269197335
0.00519515801355
0.00285679861248
0.00152328957849
0.000849215934957
0.000545840046787
2.40056462925
1.13900879725
0.634425345297
0.405268490649
0.286348548672
0.215073311944
0.165579543719
0.126734698654
0.0937830972831
0.067205021564
0.04673206972
0.0317204630813
0.0212361322589
0.0140466135889
0.00898759139985
0.00541182259381
0.00308838163681
0.00174545923529
0.00104591330679
0.000716306791499
2.23384578854
0.970343963373
0.504287488332
0.3209167541
0.234065098094
0.182128736709
0.143940772099
0.111932338764
0.0839506006164
0.0608577337507
0.0427144911323
0.0292997642818
0.0199097659894
0.0134134462139
0.00875204027126
0.00541082860027
0.00323411822211
0.00196175589075
0.00127738130621
0.000937378309128
2.29914036005
0.88288991345
0.40461775191
0.249682596971
0.186919121258
0.149964191461
0.120930802434
0.0949911916639
0.0720700691793
0.0527015500509
0.0373362948881
0.025976409526
0.0180128730387
0.0124017556539
0.00826595686737
0.00528421582493
0.00335100664096
0.00220503858157
0.00156214644082
0.00121910918709
2.66656340956
0.873817081408
0.352550275156
0.202230502157
0.15033075474
0.122451876321
0.0997485471732
0.0787443645907
0.0600253549437
0.0441675865005
0.0316733719125
0.0225017295367
0.0160108027797
0.0112765214805
0.00769116164638
0.00514187379801
0.00350329619685
0.00250674712783
0.00191208375502
0.00155916533366
3.42452997578
1.01569587505
0.365492495381
0.18192700301
0.126791568598
0.101196306889
0.0818370743766
0.0644843700183
0.0492009696913
0.0365051734004
0.0266849941424
0.0194943756848
0.0142320984558
0.0102130377167
0.00717030551298
0.00508146756471
0.00373774371318
0.00288011740951
0.00231929045127
0.00193540680912
4.35009095833
1.25172912811
0.435466767507
0.188570379112
0.115371124682
0.0867154331456
0.0683709045126
0.0533318799725
0.0407281487321
0.0306435467284
0.0229670937537
0.0172130243227
0.0127784667394
0.00931870788881
0.00682144078995
0.00515947611896
0.00406327566909
0.00330666559551
0.00274979562338
0.00230157070932
5.06985875944
1.51046633205
0.549089777368
0.222872860899
0.11685845421
0.0792675427399
0.059722406661
0.045844994759
0.0351085514418
0.026840875065
0.0205008087408
0.0155614153065
0.0116359548594
0.00870079149014
0.00669453551281
0.00536669853316
0.00444046635777
0.00372989317662
0.00313256640273
0.00258991636238
5.43976592386
1.74912620837
0.677854988015
0.275924020188
0.129156350539
0.0779210521285
0.0554017037307
0.0417072054162
0.0319615846884
0.0246143447761
0.0188776977308
0.0143503077387
0.0108503597091
0.00837077182382
0.00673253497435
0.00562269749408
0.00478446348126
0.00407163082016
0.0034201080637
0.00278879117579
5.47161812759
1.89107633863
0.772354247906
0.320625528386
0.14260205083
0.0795918342824
0.0540130540367
0.0399724123336
0.0305061238753
0.0233793822201
0.0178277462855
0.0135653945813
0.0103763121581
0.00823772410384
0.00684400145839
0.00585473707727
0.00504956983454
0.00431551605623
0.00360840292595
0.00288643302802
5.11491182438
1.86336200362
0.783983945265
0.331289831604
0.148568079224
0.0818943426476
0.0547383081747
0.0401303305131
0.0303383497769
0.0229542503104
0.0173080869707
0.0130881038698
0.0101000754099
0.0082224716475
0.00696565505822
0.00602340715946
0.00521230007631
0.00444337680607
0.00367678735128
0.00286842296869
4.1668195274
1.64789137902
0.71845942107
0.319106147487
0.151892164753
0.0866201281072
0.0581031172064
0.0422644607616
0.0315001450893
0.0233316857123
0.0171846714711
0.0127862314225
0.00998940230872
0.00823933175216
0.00702824378926
0.00608289777158
0.00524659114357
0.00444377139562
0.00362117997218
0.00273963593694
3.22003762032
1.43199151499
0.664552250774
0.316944263747
0.163064370064
0.0962274012459
0.0647098629675
0.0468083069663
0.0342109818488
0.0244295648755
0.017320203114
0.012690123384
0.0099521556185
0.00820943995434
0.00698287572236
0.00601192612348
0.00515051013069
0.00431966170446
0.00345377971635
0.0025193101099
2.85421721698
1.40886618502
0.695535313939
0.351205016014
0.186587045419
0.111094130225
0.0752896251659
0.0545394956602
0.0388572381582
0.0263483110403
0.0179141210322
0.0129141949277
0.00997949597028
0.00812401331322
0.00683418809372
0.00582886304446
0.00494821257313
0.00409751331151
0.00320412067931
0.00223956930165
3.194205848
1.65880299786
0.827613612633
0.406188125894
0.209770364246
0.125418434842
0.0869144978495
0.0637293688979
0.044965976485
0.0297619942476
0.0196444001856
0.013627681696
0.0101551760202
0.00804043361119
0.00663763362072
0.00559014929022
0.00469186412583
0.00382730456021
0.0029161441339
0.00194222004924
4.06771377
2.04714234211
0.902690666055
0.393622801186
0.20054609276
0.125797365255
0.0916081082083
0.0699450484925
0.0508673644512
0.0342110953353
0.0220332578037
0.014651062957
0.0104948284192
0.00802628415299
0.00646698864153
0.00536512263163
0.00444774011788
0.00356682973371
0.00263715662391
0.00166445382462
5.20730566069
2.0184920558
0.768163424361
0.331555899758
0.179740435467
0.122139447604
0.093957654809
0.0743552211267
0.0554967433417
0.0375258408077
0.0233128024779
0.0151084284027
0.0106789853799
0.00805969918906
0.00637940612553
0.00521557865808
0.00427008355533
0.00336097867607
0.00240064993184
0.00142491933745
6.23977047942
1.94671757595
0.675377230073
0.293554542131
0.172034941168
0.123769216697
0.0967120387149
0.0754854694923
0.0555094246456
0.0376708665805
0.0230725746601
0.014821601456
0.0105216362146
0.00801178822536
0.00635610769256
0.00515617848328
0.00417155988872
0.00321760954755
0.00221184233116
0.00122498697653
7.26253084956
2.05106483488
0.655622315453
0.290989938238
0.182180976814
0.13174235825
0.0950764983424
0.0702487094139
0.0499212149139
0.0340912172295
0.0216190528772
0.0141731072441
0.0102353125735
0.00791437006179
0.006343678161
0.00514416722587
0.00411801173991
0.003107585488
0.0020502734138
0.00105558627878
8.60026735599
2.41279660322
0.760058503961
0.340982891322
0.218144076681
0.153527761975
0.0916866017105
0.0615589276315
0.0433063617387
0.0299614414412
0.0197947972151
0.0134764521472
0.0099677016519
0.00782473624457
0.00632711355534
0.00513118303098
0.00406015755026
0.0029900395683
0.00188902050249
0.000905533334375
9.86248343867
2.96350422472
0.986058325515
0.440879367316
0.273382558299
0.186528402507
0.0976695292257
0.0602252048804
0.0407431943488
0.0278752868766
0.0188562939253
0.0132168525832
0.00990074842066
0.00780738946065
0.00631459104344
0.00509338645834
0.00396574278271
0.00283758396721
0.0017130854038
0.000768319890041
10.7738246607
3.57262342304
1.32018699262
0.601895796915
0.354058591209
0.235517549359
0.124504190925
0.0721605312071
0.0464110033611
0.0307006046974
0.0204949745936
0.0141718987584
0.0103719922773
0.00800525171557
0.00636671910127
0.00504502443518
0.00383192882329
0.00264486550697
0.00152277102288
0.000645932827554
11.2034590701
4.10133203954
1.68954939592
0.813322207611
0.465908894375
0.300227270769
0.173470387791
0.102358400678
0.0639829443013
0.0409820829311
0.0263795295642
0.0172998580972
0.0118794751852
0.00866433326768
0.00659656197672
0.00504032534209
0.00368803131511
0.002431160952
0.00132717050012
0.000538882765134
11.2141552975
4.45763324237
2.01314695926
1.03241014352
0.597458633929
0.380181938759
0.235155934148
0.145562376424
0.091905927358
0.0584750660225
0.036921268548
0.023212031058
0.0149028839665
0.0100591457812
0.00714487827384
0.00515988868334
0.00358557988815
0.00223498561366
0.00115070653547
0.00045078908714
10.8415870806
4.63274973488
2.25095016764
1.2220695551
0.727077896434
0.46623391804
0.304328643287
0.194954341009
0.125536549846
0.0806353979257
0.050973384044
0.0315950148577
0.0194884327914
0.0123207654872
0.00812224543895
0.0054789221311
0.00357498028709
0.00208973821321
0.0010101049183
0.000383082605269
10.1754498193
4.59238694882
2.35294824564
1.33351356377
0.816004151414
0.531259742135
0.357289950373
0.239093417103
0.158013416325
0.103286567
0.0661409213827
0.0412066921947
0.0251174673631
0.0153072252739
0.00953007416501
0.00602575139268
0.00368061530634
0.00200889597272
0.000907197939128
0.000337001903687
9.33243585029
4.37493490973
2.32254342613
1.35803897545
0.852120057863
0.565382370215
0.389014934365
0.26943318375
0.182942677841
0.122073085683
0.0795363912178
0.0502433606553
0.0307961935719
0.0185555616353
0.0111958781918
0.0067464898534
0.00388496746105
0.00198150698161
0.000835951608117
0.000311628114591
8.45238817273
4.03182505347
2.1846200645
1.30415304471
0.834528379948
0.563495186069
0.395064340473
0.280794048153
0.196463779757
0.133757056808
0.0887502400094
0.0570159175308
0.0354051637828
0.021429670318
0.0128017691661
0.00749998954021
0.00412421880825
0.00197713399792
0.000785161885262
0.000304936930903
7.64501867482
3.64230770393
1.98284217743
1.19591021345
0.77583525074
0.532009136711
0.379494117244
0.27533845362
0.197361180986
0.137087042037
0.0926188701231
0.0605372791223
0.0381845601982
0.0233888670209
0.0140054735486
0.00809358023311
0.00429737388205
0.00194998797501
0.000739142332467
0.000317059879141
7.00258697705
3.25545341541
1.74766956117
1.05260652996
0.688167250453
0.478194857602
0.346615066556
0.25586532733
0.18673845694
0.132385757793
0.0911553284363
0.0606033154886
0.0388376163094
0.0241234975979
0.0145478820079
0.00834075095069
0.00429276469146
0.00185056680598
0.000686107685799
0.000354682071444
6.57127571466
2.88905695887
1.49201332376
0.886033143009
0.580896593703
0.408716914869
0.301010145676
0.225678822111
0.167248357272
0.121248398269
0.0850589797547
0.0574602984512
0.0373888653588
0.0235456325173
0.0142941911554
0.00811230334047
0.00402760558803
0.00165160801865
0.000632539637094
0.000436383872049
0.000234799592327
0.000234265162645
0.000231094030103
0.000227903196925
0.000214932258264
0.000195865675646
0.000170944311223
0.000143466890101
0.000104067028565
6.46650058162e-05
6.62845201851e-05
0.000167207022946
0.000480636630826
0.00113601755287
0.00661851878105
0.00910350614783
0.010531533241
0.0129733085553
0.0205260615082
0.0443115718805
0.000230973965058
0.00024585452951
0.0002538700536
0.000259682520102
0.000254635042296
0.000237564083092
0.00020976224298
0.000171899155595
0.000127972265274
0.000100069049907
0.000109789862424
8.44251174627e-05
0.000258741393543
0.000700390694037
0.00118480839234
0.00532137503589
0.0101132178772
0.0125090925172
0.0197051438225
0.0457299682051
0.000224598207472
0.000255484678915
0.000277960918212
0.00029454011715
0.000297397953249
0.000283055221781
0.000251787727568
0.000199096968705
0.000146534318857
0.000131956544247
0.000114459031565
9.82453627712e-05
0.000211188806763
0.000620656813986
0.000868133327817
0.00142784378661
0.00556804860932
0.0120677181151
0.0187684276815
0.0448596791926
0.000225412062315
0.000267012771353
0.000307140285468
0.000336120683908
0.000346305086409
0.000331245400771
0.000286304710726
0.000210389850697
0.000152738834251
0.000136763470988
0.00012104174512
0.000113224282229
0.000297568243538
0.000704118184108
0.000954418309599
0.00117017573416
0.00215875249747
0.00917244582574
0.0182005789144
0.0424966955566
0.000227887743211
0.000289431970025
0.000348116564431
0.000390670945233
0.000404606326413
0.000377896931257
0.000304768764948
0.000204161478388
0.000149264183922
0.000136014039396
0.000130352245201
0.000137050149372
0.000438904885926
0.000866475306256
0.00105365285323
0.00120582097506
0.0019016919879
0.00559278958422
0.0177055364241
0.0399018079983
0.000264747489802
0.000326985396042
0.000409832266787
0.000463885650598
0.00047168793734
0.000416106867174
0.000301705648178
0.000185376353997
0.00014278458896
0.000139514309173
0.000141899986096
0.000171906627503
0.000614151771567
0.00101593695686
0.00113828428742
0.00140563211292
0.00196357471321
0.00442419552527
0.0173564372356
0.037452862834
0.000338893385112
0.000384302367664
0.000499312296631
0.000556964326282
0.000540590459671
0.000434174889217
0.000275043447953
0.000161095671048
0.000139220597533
0.000149041535208
0.000157602354847
0.000213882000543
0.000792040385455
0.00110650011003
0.00119585691889
0.00171107293275
0.00208700099166
0.00444015786058
0.0173772219263
0.0352978677769
0.000449888495643
0.000487558208852
0.000619055852744
0.00066393192823
0.000597553414703
0.000421531235139
0.000230131203338
0.000139376986658
0.000142733770355
0.000164352544224
0.000177203045071
0.000269899584907
0.000971949475487
0.00116000184927
0.00123796166003
0.00184832805344
0.00226209330402
0.00508661901022
0.0175090989499
0.0334798246031
0.00060524331104
0.000639266676658
0.000764847880942
0.000768636781327
0.000621815158948
0.000372823019126
0.000177237132774
0.000126121890977
0.000153712283402
0.000182572215051
0.000196267454431
0.000351140392933
0.00112882718117
0.00119638998084
0.0014585440109
0.00197033080447
0.00250387319622
0.00630651803752
0.0176606763728
0.0319872733199
0.000812768520199
0.00083522040831
0.00091815082331
0.000840861246734
0.000591568511215
0.000295817636965
0.00012868097963
0.000124307513981
0.000170483442761
0.00020107859566
0.000211579154196
0.000458135859997
0.00121411510408
0.00122086361213
0.00174577311372
0.00217864323886
0.00281896618387
0.0078909394004
0.017796124708
0.0307892306733
0.00107218284882
0.00106127446397
0.0010434582012
0.000850192595393
0.000505359879813
0.000214467763923
9.34751671577e-05
0.000134022056527
0.000192341253815
0.000216380154206
0.000223798719921
0.000582184580957
0.0012318453373
0.00124009221256
0.00184715063035
0.00247438287374
0.00319803809576
0.00935990857907
0.0179328762692
0.0298585953762
0.00136781105027
0.00127456001881
0.00110844784892
0.000792163477829
0.0003915216713
0.000148041739656
7.45450641958e-05
0.000152469641675
0.000216947983277
0.000224472825387
0.000235257452387
0.000716072136881
0.00122661727766
0.0013489331773
0.00194775180933
0.00282770408646
0.00361109221112
0.0103231515145
0.0180877649116
0.0291771921544
0.00166535108977
0.00142274117599
0.00111053355602
0.000691117252381
0.000279908711846
9.70950525814e-05
7.30505121414e-05
0.000177007169788
0.000234979073767
0.0002234298186
0.000246496368699
0.000848537121993
0.00121207056966
0.00164045285265
0.00210093195873
0.00320044130703
0.0039934072925
0.0109276666407
0.0182616589775
0.0287275909663
0.00189921035036
0.00149785088461
0.00106140732042
0.000558756258209
0.000174191685327
7.00682217853e-05
8.9290871313e-05
0.000205278426229
0.000237021353469
0.00021581750888
0.000260347203586
0.000917780206219
0.00118788620266
0.00177677001796
0.00229172892334
0.0035812050882
0.00432198868743
0.0112002090985
0.0184411709692
0.0284810948519
0.00205537513443
0.00150463216585
0.000941803951648
0.00040391504126
0.000108303156874
5.63986359578e-05
0.000116712731124
0.000227179097774
0.00022514617205
0.00020391617687
0.000274453252842
0.000939685280558
0.00117434434947
0.0018239141981
0.00249450030889
0.00400326043736
0.00462493465161
0.0111013427741
0.0186012871868
0.0283845007784
0.00213013799855
0.00143764858822
0.000776515865741
0.000266809311297
7.39679015297e-05
5.47603693022e-05
0.000153008851844
0.000230898009172
0.000206856154757
0.000187680603492
0.000290153942957
0.000929186118202
0.00126098223532
0.00186107279446
0.002712424243
0.00453693601064
0.00500743284703
0.0106392598007
0.0187091112361
0.0283737467237
0.00210707933859
0.00128720456278
0.00058298017938
0.000176731473934
5.79875432645e-05
6.11056089781e-05
0.000187970926262
0.000220728764091
0.000187381976721
0.000168356420299
0.000310771704018
0.000912432243066
0.00140221229023
0.00190909365103
0.00298928211553
0.00523828941246
0.00566441445411
0.0101415060999
0.018729670837
0.0284060748486
0.00198036118078
0.00107537201032
0.000413931142951
0.000115379558508
5.14211692035e-05
7.79183274148e-05
0.000211384531149
0.000205202265812
0.000168835773021
0.000150957142852
0.000350854282752
0.000891612558132
0.00148182020204
0.0019852131905
0.00342115110949
0.00608962505834
0.00682002574877
0.00998604169181
0.0186724102514
0.0284774093716
0.00176460442401
0.000849536006461
0.000291332075774
7.96147985679e-05
4.94712180342e-05
0.000100973605351
0.000224048999891
0.000189355871565
0.00015115520429
0.000141167356247
0.000409529763084
0.000857669737658
0.00148208148791
0.0021575617617
0.00418912249876
0.00713169839995
0.00839941860383
0.0105066627122
0.0186655016731
0.0286156830298
0.00149947147309
0.000648151724836
0.000202095806846
6.20268508213e-05
5.25121490115e-05
0.000126362491415
0.000227410951331
0.000175591296965
0.000132709121155
0.000137804566962
0.000465632743229
0.000878455577144
0.0014655761503
0.00260489226191
0.00547562047657
0.00837883525512
0.00997091277289
0.0121778714577
0.0188636663507
0.0288519448327
0.00122774956822
0.000480544004703
0.000140055433562
5.47170778194e-05
6.05368835098e-05
0.00015268223217
0.000223461814946
0.000164493162597
0.000113715795185
0.000132897966735
0.000496870560289
0.00097848384436
0.00156381415226
0.00360991506795
0.00717413993736
0.00976533123634
0.0115582495499
0.0145649088543
0.0191103406501
0.0291850650954
0.000981257069656
0.000350124718574
9.96792020441e-05
5.29041625009e-05
7.10896247464e-05
0.000179873366142
0.00021719739918
0.00015593585197
9.91523310063e-05
0.000130371796202
0.000494289193386
0.000961562272197
0.0019642541153
0.00533909269869
0.00900248260046
0.0113531197171
0.0134905430415
0.0161540017065
0.0192126208904
0.029589226486
0.000775298258043
0.000253764969139
7.54025382691e-05
5.36677877981e-05
8.35598384905e-05
0.000203150604016
0.000213295751819
0.000149799985022
9.34940273105e-05
0.000134227357943
0.000457112572608
0.000948514411047
0.00304480967335
0.00760730948832
0.0108643921432
0.0131359510244
0.0149940999698
0.0163942933654
0.0193025043749
0.0300501083724
0.000608975780715
0.000183808912918
6.16134562026e-05
5.53597690917e-05
9.78874346791e-05
0.000220016580492
0.000211675386233
0.0001465017507
9.47034376933e-05
0.000137611923528
0.000424768911224
0.00111316449456
0.00521008810348
0.00967781732309
0.0123505599081
0.0140984427002
0.0152182229072
0.0164141757151
0.0194075288325
0.0305580171888
0.00047532954225
0.000134343759822
5.44378339114e-05
5.84049786334e-05
0.000114358596007
0.000225744141715
0.000207610175032
0.000146239982245
9.78913446795e-05
0.000128199518188
0.000413641097088
0.00168503754541
0.00730257089146
0.0105253940896
0.0126741556288
0.0141406299888
0.0152029635201
0.0164378365108
0.0195191429293
0.0310819230045
0.000368367117991
0.000101810120792
5.25401001442e-05
6.50401543742e-05
0.000129592170334
0.000217929583614
0.000198715090098
0.00014808234108
0.000102244874671
0.000108479914156
0.000360272281698
0.00165811909513
0.00763911525873
0.010485493215
0.0125943106971
0.0140909393615
0.0151952435182
0.0164721002305
0.0196271306951
0.0315669640183
0.000288883819991
8.35570721394e-05
5.56937358275e-05
7.720464414e-05
0.000138531499187
0.000201680026829
0.000188107000067
0.00015090774144
0.000109145194463
9.38143502153e-05
0.000307915296223
0.00127855256926
0.00739673793443
0.0103579410334
0.0125114913361
0.0140600050681
0.015207364265
0.0165195626356
0.0197260395623
0.031957652608
0.000233727214258
7.67285093605e-05
6.37382038353e-05
9.62661689059e-05
0.000143050300601
0.000185642538851
0.000179388907627
0.000154300610229
0.000117750938603
8.98492689613e-05
0.00030530497284
0.000887600797536
0.00678216213952
0.0102497113181
0.012450817352
0.0140524415319
0.0152413194673
0.0165818061934
0.0198136277141
0.0322132670644
0.000196498731398
7.87104848235e-05
7.69058733346e-05
0.00011961701507
0.000145834095687
0.000173722874047
0.000173425839971
0.000157925783779
0.000126193459719
9.22803448339e-05
0.000306734534314
0.000738283691756
0.00541964909175
0.0101649624236
0.0124168063067
0.0140705754164
0.0152988396731
0.0166607065562
0.0198896057809
0.032306619757
0.000171937916732
8.78568249692e-05
9.41231212117e-05
0.000134030495571
0.000147183033001
0.000166143522521
0.00017016772128
0.000161508963899
0.000133480583062
9.72391000211e-05
0.000308207634034
0.00069721477795
0.00352326972068
0.0100648864813
0.012420737723
0.0141211672231
0.0153841197318
0.0167598878259
0.019957075864
0.0322221831072
0.000156566683802
0.000103269812627
0.000119660785995
0.000145424932388
0.000148853321725
0.000162658131812
0.000169996594523
0.000165373499506
0.000139312360431
0.000103963546388
0.000323605489955
0.000574005318594
0.00213603034318
0.00979647084291
0.0124834368989
0.0142163871286
0.0155029214988
0.0168829693531
0.0200238100257
0.031964056781
0.000151680680129
0.000125611754932
0.000159077322538
0.000155849196784
0.000151508392686
0.00016304262814
0.000172954003208
0.000170043004524
0.000143821693773
0.000110378220273
0.000361661005667
0.000589745062805
0.00157149862544
0.00914518694183
0.0126163182452
0.0143609062417
0.015654473001
0.0170266160896
0.0200923056866
0.0315750744706
0.000158466799696
0.00015624444474
0.000207581302383
0.000165963931801
0.000155601808012
0.000167132514434
0.000178832415748
0.000175988659303
0.000147819519283
0.000117655314555
0.00041742961818
0.000649158107893
0.00143648314529
0.00813826036683
0.0127885117245
0.0145413721089
0.0158276854226
0.0171832266946
0.0201645582357
0.0311082829744
0.000178880333999
0.0001974863166
0.000250153877933
0.000175003912615
0.000161452409301
0.000174019057559
0.000187347823401
0.000183447024374
0.000151628623439
0.000126939279143
0.000487850986558
0.000711144599707
0.00144698588252
0.00705551468161
0.0129179634946
0.0147392797243
0.0160091487105
0.0173436938346
0.0202402414577
0.0306129518774
0.000216783488559
0.000254123017443
0.000271080099735
0.000181724491692
0.000167832530625
0.000182916631723
0.000198244385978
0.000192259648415
0.000155057033028
0.000139616490685
0.000563560866393
0.000769069531611
0.00151691905203
0.00626116744456
0.0129175174702
0.0149437793086
0.016190949299
0.0175018383897
0.0203188242772
0.030128162956
0.000277397984189
0.000358562624031
0.000274654165026
0.000185120087794
0.00017461821121
0.000193760261084
0.000211596866681
0.000202320676911
0.0001582671087
0.000157954650226
0.000636583208464
0.000854970785107
0.00163030029381
0.00608752952698
0.0129091738906
0.0151462215815
0.0163674495194
0.0176529550835
0.020400071659
0.0296865346553
0.000365253330278
0.00046179706932
0.000274038536582
0.000186355426784
0.000181837896885
0.00020651029337
0.000227528645463
0.000213730168689
0.000161898203618
0.000185676903742
0.000690570391281
0.00102367359569
0.00181389449285
0.00645268837776
0.0130954973999
0.0153444359301
0.0165332430941
0.0177928142292
0.020483512568
0.0293170075656
0.000509588281137
0.000462372759036
0.000267492459717
0.000184772883035
)
;

boundaryField
{
    emptyPatch
    {
        type            empty;
    }
    minY
    {
        type            fixedValue;
        value           nonuniform List<scalar> 0();
    }
    maxY
    {
        type            inletOutlet;
        inletValue      nonuniform List<scalar> 0();
        value           nonuniform List<scalar> 0();
    }
    water_to_cooler
    {
        type            kqRWallFunction;
        value           nonuniform List<scalar> 
37
(
0.0443115718805
0.0457299682051
0.0448596791926
0.0424966955566
0.0399018079983
0.037452862834
0.0352978677769
0.0334798246031
0.0319872733199
0.0307892306733
0.0298585953762
0.0291771921544
0.0287275909663
0.0284810948519
0.0283845007784
0.0283737467237
0.0284060748486
0.0284774093716
0.0286156830298
0.0288519448327
0.0291850650954
0.029589226486
0.0300501083724
0.0305580171888
0.0310819230045
0.0315669640183
0.031957652608
0.0322132670644
0.032306619757
0.0322221831072
0.031964056781
0.0315750744706
0.0311082829744
0.0306129518774
0.030128162956
0.0296865346553
0.0293170075656
)
;
    }
    water_to_heater
    {
        type            kqRWallFunction;
        value           nonuniform List<scalar> 
60
(
4.65740713104
4.65740713104
5.24613499728
5.24613499728
5.25953224708
5.25953224708
4.96787900999
4.41823279719
3.62136265254
3.62136265254
2.85359423621
2.85359423621
2.40056462925
2.40056462925
2.23384578854
2.29914036005
2.66656340956
2.66656340956
3.42452997578
3.42452997578
4.35009095833
4.35009095833
5.06985875944
5.43976592386
5.47161812759
5.47161812759
5.11491182438
5.11491182438
4.1668195274
4.1668195274
3.22003762032
2.85421721698
3.194205848
3.194205848
4.06771377
4.06771377
5.20730566069
5.20730566069
6.23977047942
7.26253084956
8.60026735599
8.60026735599
9.86248343867
9.86248343867
10.7738246607
10.7738246607
11.2034590701
11.2141552975
10.8415870806
10.8415870806
10.1754498193
10.1754498193
9.33243585029
9.33243585029
8.45238817273
7.64501867482
7.00258697705
7.00258697705
6.57127571466
6.57127571466
)
;
    }
    procBoundary1to0
    {
        type            processor;
        value           nonuniform List<scalar> 
41
(
6.35668355543
2.5451839437
1.24686533193
0.721901597257
0.47214573241
0.334692111614
0.250161554552
0.190965002107
0.144097589239
0.106107527371
0.075517994871
0.0517388600904
0.0341615221814
0.0217792726386
0.0132477494293
0.00736664325897
0.00348461234595
0.00137461431462
0.000616252755569
0.000580867722154
0.000188423296372
0.000220729436058
0.000245920000722
0.00022671834134
0.000167058212106
0.000222789650181
0.000717436011193
0.00117302690352
0.00211457723987
0.00722023642471
0.0134279649114
0.0155321628579
0.0166824728271
0.0179165626409
0.0205658185742
0.0290411303477
0.000719279406315
0.000451003573017
0.000255064530737
0.000188423296372
0.000180009044542
)
;
    }
    procBoundary1to3
    {
        type            processor;
        value           nonuniform List<scalar> 
41
(
0.0320933939296
0.0208450900638
0.014376708235
0.0103149212382
0.0075121688333
0.00536357296547
0.00355768595512
0.00203241492823
0.000935071992913
0.000371819105575
0.000196541715934
0.000193875529224
0.000234286573076
3.55475302258
1.86650070696
0.894068799651
0.423038417292
0.206874852305
0.109406510006
0.0628933354204
0.0628933354204
0.000229028435044
0.000217910109164
0.000206767949921
0.000195949441045
0.000174490585869
0.000147843126384
0.00010851951832
7.89961037275e-05
7.31860854634e-05
7.21520530256e-05
0.000131195266853
0.00032778148869
0.00165863017381
0.00642446840199
0.00832025725338
0.00956632577969
0.010853830751
0.0133541334466
0.0206382953835
0.040611363346
)
;
    }
}


// ************************************************************************* //
