/*--------------------------------*- C++ -*----------------------------------*\
| =========                 |                                                 |
| \\      /  F ield         | OpenFOAM: The Open Source CFD Toolbox           |
|  \\    /   O peration     | Version:  2312                                  |
|   \\  /    A nd           | Website:  www.openfoam.com                      |
|    \\/     M anipulation  |                                                 |
\*---------------------------------------------------------------------------*/
FoamFile
{
    version     2.0;
    format      ascii;
    arch        "LSB;label=32;scalar=64";
    class       volScalarField;
    location    "0.03/water";
    object      p_rgh;
}
// * * * * * * * * * * * * * * * * * * * * * * * * * * * * * * * * * * * * * //

dimensions      [1 -1 -2 0 0 0 0];

internalField   nonuniform List<scalar> 
1503
(
100710.001107
100706.476978
100706.414484
100706.298646
100706.377899
100706.534784
100706.748148
100707.023992
100707.365867
100707.762529
100708.199312
100708.663619
100709.145479
100709.637933
100710.136528
100710.637829
100711.138657
100711.635995
100712.126995
100712.608923
100690.41279
100695.440058
100699.378195
100702.193529
100703.922578
100705.108989
100705.921499
100706.576035
100707.175109
100707.750431
100708.313864
100708.86663
100709.406026
100709.930705
100710.441766
100710.941456
100711.431613
100711.91291
100712.385018
100712.847061
100682.231569
100689.270482
100695.761501
100700.302683
100703.027443
100704.884598
100706.101097
100706.945983
100707.642913
100708.280044
100708.879958
100709.447742
100709.988515
100710.504844
100710.998302
100711.472471
100711.93154
100712.378725
100712.815435
100713.24136
100676.015859
100684.850163
100694.029281
100700.151211
100703.612748
100705.891663
100707.350239
100708.251129
100708.913343
100709.498266
100710.032626
100710.516585
100710.969389
100711.40303
100711.819739
100712.221217
100712.610535
100712.991999
100713.368423
100713.739137
100670.374963
100680.157068
100691.271307
100699.191739
100703.679186
100706.55621
100708.48394
100709.717259
100710.54
100711.146454
100711.595393
100711.944828
100712.258095
100712.561637
100712.860713
100713.156662
100713.450405
100713.743563
100714.038863
100714.337368
100667.106216
100677.953493
100688.959162
100697.336647
100702.328791
100705.573693
100708.266491
100710.641863
100712.238079
100713.010143
100713.34563
100713.530644
100713.68035
100713.832427
100713.996838
100714.175348
100714.36755
100714.572229
100714.788283
100715.015119
100666.33624
100676.989921
100687.041241
100693.971516
100697.865726
100700.771866
100704.922795
100710.27787
100713.713133
100714.731747
100714.937893
100714.976975
100714.985876
100715.006484
100715.055012
100715.134877
100715.244573
100715.380951
100715.540046
100715.717693
100665.777827
100676.06132
100683.819737
100687.330981
100688.588141
100690.986256
100697.992687
100708.443041
100714.356578
100715.650846
100715.845615
100715.868599
100715.849941
100715.832288
100715.841726
100715.887321
100715.96892
100716.083203
100716.22534
100716.389871
100662.011622
100671.478711
100675.790374
100675.193396
100674.400819
100677.531066
100688.898803
100704.873762
100713.273308
100715.105151
100715.592153
100715.850701
100716.011938
100716.124513
100716.228463
100716.344919
100716.481796
100716.640439
100716.818607
100717.012598
100653.356121
100661.977648
100662.578188
100659.25317
100657.706052
100662.993316
100678.418255
100698.874932
100710.086312
100713.024774
100714.162888
100714.919564
100715.478485
100715.90307
100716.246998
100716.546628
100716.824228
100717.092651
100717.356906
100717.617892
100644.520963
100652.489107
100649.491536
100642.935295
100641.865926
100648.778788
100666.74181
100690.463127
100705.217452
100709.981175
100712.030253
100713.436704
100714.526682
100715.385671
100716.073745
100716.63882
100717.11917
100717.543451
100717.927511
100718.278593
100636.995717
100643.306018
100638.329172
100629.45347
100628.393318
100635.470435
100654.255968
100680.319272
100699.196715
100706.524784
100709.685622
100711.802208
100713.472423
100714.819393
100715.903218
100716.77776
100717.494984
100718.099741
100718.62094
100719.072393
100632.244215
100637.573467
100630.988523
100620.55446
100618.482095
100624.680463
100643.00907
100670.53853
100693.07137
100703.22095
100707.560276
100710.337825
100712.547071
100714.367965
100715.852826
100717.052898
100718.024993
100718.822145
100719.485889
100720.041197
100627.590549
100632.552072
100625.063653
100613.882907
100611.056914
100616.884211
100635.042708
100663.613354
100688.471292
100700.843442
100706.158545
100709.380995
100711.943884
100714.123202
100715.95883
100717.479039
100718.720118
100719.719711
100720.52338
100721.176137
100624.119776
100629.680696
100620.760826
100608.499848
100606.045684
100611.328708
100629.903979
100659.977817
100686.393233
100699.992644
100705.854006
100709.258811
100711.923061
100714.241967
100716.291361
100718.077538
100719.579122
100720.781389
100721.715007
100722.442008
100620.483146
100626.335049
100616.89686
100603.60306
100601.32743
100606.189019
100625.532304
100657.700129
100686.053656
100700.439942
100706.512467
100709.942606
100712.59751
100714.926073
100717.046493
100718.979414
100720.660368
100722.017156
100723.050926
100723.814297
100617.504242
100624.668191
100614.621718
100599.892972
100596.796578
100601.456727
100621.618834
100656.023445
100686.458165
100701.76715
100707.873018
100711.229592
100713.840896
100716.188483
100718.357665
100720.339472
100722.066418
100723.469181
100724.537234
100725.297754
100614.994762
100622.095098
100613.966876
100597.531041
100592.290685
100597.12792
100618.408367
100655.035801
100687.325263
100703.416455
100709.688282
100712.977128
100715.549106
100717.899031
100720.111229
100722.101826
100723.794823
100725.151443
100726.17866
100726.912062
100611.447734
100619.356681
100613.560618
100595.769419
100587.96334
100593.094784
100615.873932
100655.065017
100689.044165
100705.447289
100711.704521
100714.995909
100717.567328
100719.922556
100722.095042
100724.060177
100725.703339
100726.989417
100727.942085
100728.644745
100608.598158
100616.566683
100613.100961
100593.785672
100583.938427
100589.646643
100614.723809
100656.960416
100692.056364
100708.062654
100713.938447
100717.104375
100719.66257
100722.021324
100724.177099
100726.046898
100727.634091
100728.857375
100729.740868
100730.417329
100606.892041
100613.942503
100612.699697
100592.299839
100580.398967
100586.954076
100615.109215
100660.724752
100696.220072
100711.15527
100716.412519
100719.333843
100721.800506
100724.10571
100726.202117
100728.014151
100729.4866
100730.642487
100731.469812
100732.119547
100606.648151
100611.094876
100611.283909
100592.480921
100577.339963
100584.51971
100615.90787
100665.167326
100700.774025
100714.337231
100718.958582
100721.648128
100723.994267
100726.182476
100728.139749
100729.827565
100731.223423
100732.275856
100733.031444
100733.652696
100604.817074
100608.576032
100607.992786
100594.207481
100575.049932
100582.266329
100616.391806
100669.221056
100704.949097
100717.23638
100721.33152
100723.849671
100726.085024
100728.125659
100729.904059
100731.427073
100732.706646
100733.682711
100734.371316
100734.941092
100603.636737
100604.791103
100605.700226
100595.500755
100573.693294
100580.665662
100617.198706
100673.191454
100708.725758
100719.796909
100723.418392
100725.760267
100727.863961
100729.739759
100731.337595
100732.698621
100733.849627
100734.7277
100735.345724
100735.874284
100603.608208
100601.162651
100601.195098
100598.052901
100573.551013
100580.549377
100619.693433
100678.10546
100712.435178
100722.062338
100725.16624
100727.263479
100729.164803
100730.832715
100732.241002
100733.45016
100734.482525
100735.267435
100735.830563
100736.3405
100600.991881
100596.4083
100598.672998
100597.701667
100575.993367
100583.097894
100625.743061
100685.059244
100716.167781
100723.89479
100726.37994
100728.123936
100729.714621
100731.104565
100732.298908
100733.366483
100734.313371
100735.056149
100735.630925
100736.186649
100596.821842
100592.022078
100592.535906
100594.750851
100582.167548
100591.157882
100638.633902
100695.007412
100719.388998
100724.667171
100726.377108
100727.635195
100728.823324
100729.914298
100730.935241
100731.944873
100732.924268
100733.770282
100734.508739
100735.255734
100587.549071
100583.369854
100587.080084
100586.688721
100589.080101
100604.949348
100658.597085
100704.353526
100718.892787
100721.950577
100723.035029
100723.970226
100724.989126
100726.081432
100727.260213
100728.549537
100729.892071
100731.150342
100732.318933
100733.485692
100568.973439
100566.481497
100566.050259
100570.603221
100568.702046
100607.716547
100663.532251
100697.152651
100707.594774
100710.877903
100712.743619
100714.538464
100716.46984
100718.518279
100720.660931
100722.879231
100725.105947
100727.202494
100729.148542
100731.012706
100511.374665
100490.93788
100488.190967
100482.526123
100500.320774
100554.764136
100617.425731
100659.483036
100679.039386
100688.245689
100694.134976
100699.00535
100703.477554
100707.689501
100711.68534
100715.513766
100719.163592
100722.528397
100725.563455
100728.349977
100409.568859
100396.453122
100392.401584
100392.680663
100419.231667
100460.903488
100521.792231
100587.178697
100633.545397
100659.913122
100674.31813
100683.567162
100690.872625
100697.336338
100703.259627
100708.754258
100713.863504
100718.520121
100722.653685
100726.34816
100363.336148
100365.047025
100364.670387
100367.382166
100378.379549
100398.234982
100437.511873
100501.56162
100567.465049
100619.65793
100654.040688
100672.610088
100683.318829
100691.348686
100698.417847
100704.935774
100710.993005
100716.54358
100721.475508
100725.826038
100365.022594
100365.700183
100365.725039
100367.037268
100372.768031
100385.846372
100410.436079
100453.770199
100511.944514
100572.800019
100627.072747
100663.028142
100680.845417
100690.67173
100698.184836
100704.972622
100711.332958
100717.238696
100722.545459
100727.20736
100367.64685
100371.085861
100372.374714
100375.627561
100380.805431
100392.082268
100413.322054
100445.391263
100492.111201
100549.642737
100609.278927
100656.826513
100682.706134
100694.690943
100702.202157
100708.659937
100714.784633
100720.56767
100725.839912
100730.481804
100369.554342
100384.050785
100391.792842
100400.095983
100404.80931
100411.495753
100424.874046
100451.019017
100492.243976
100548.277193
100609.869849
100660.746321
100689.602441
100702.312822
100709.353894
100715.150342
100720.717073
100726.057359
100730.98308
100735.33878
100377.393851
100404.444662
100423.717616
100440.098525
100445.516877
100445.796378
100448.297027
100462.048673
100497.759004
100554.305377
100618.323966
100670.507946
100699.324034
100711.429886
100717.804731
100722.994818
100728.013261
100732.853907
100737.327248
100741.276935
100391.279796
100426.491451
100461.958309
100490.913129
100496.987975
100488.084811
100474.63907
100478.816324
100506.96108
100563.905202
100631.622627
100684.609928
100711.267811
100721.508847
100726.853251
100731.363655
100735.831272
100740.172287
100744.193312
100747.73679
100397.705902
100445.525652
100500.49012
100545.146113
100549.053179
100526.738584
100493.863594
100493.040012
100517.143556
100575.913113
100647.89378
100700.82496
100723.880931
100731.782175
100736.094652
100739.99114
100743.926518
100747.752218
100751.297428
100754.419539
100713.067821
100713.484706
100713.856948
100714.191805
100714.49545
100714.773251
100715.029938
100715.269751
100715.496569
100715.714037
100715.925726
100716.13536
100716.347149
100716.566186
100716.798368
100717.0476
100717.311614
100717.596608
100717.975145
100721.732767
100713.286627
100713.686138
100714.043154
100714.36419
100714.654766
100714.919544
100715.162399
100715.386555
100715.594703
100715.789156
100715.972124
100716.146121
100716.314369
100716.480581
100716.646654
100716.808564
100716.959067
100717.100533
100717.254063
100717.268804
100713.644677
100714.009164
100714.332838
100714.621304
100714.879051
100715.109758
100715.316279
100715.500876
100715.665389
100715.811462
100715.940854
100716.055809
100716.159101
100716.25291
100716.335939
100716.402022
100716.446118
100716.475108
100716.506645
100716.419312
100714.091763
100714.410005
100714.690989
100714.939106
100715.157763
100715.349832
100715.517698
100715.663246
100715.788207
100715.894266
100715.983257
100716.057428
100716.119442
100716.171431
100716.212923
100716.240806
100716.255241
100716.269846
100716.297299
100716.233873
100714.628273
100714.894751
100715.131393
100715.34025
100715.523415
100715.682876
100715.820425
100715.937674
100716.036222
100716.117625
100716.183467
100716.235631
100716.276448
100716.308312
100716.332174
100716.346539
100716.351499
100716.359695
100716.377389
100716.334687
100715.244772
100715.462178
100715.659412
100715.835605
100715.991088
100716.126705
100716.243509
100716.342688
100716.425533
100716.493395
100716.547598
100716.58957
100716.62104
100716.644058
100716.660365
100716.669795
100716.671999
100716.677534
100716.690909
100716.669571
100715.90497
100716.088073
100716.258468
100716.413385
100716.55167
100716.673236
100716.778577
100716.868511
100716.944038
100717.006252
100717.056298
100717.09537
100717.124772
100717.14604
100717.160955
100717.170471
100717.17416
100717.179073
100717.188973
100717.180364
100716.566468
100716.740534
100716.903527
100717.052703
100717.186631
100717.304944
100717.407985
100717.496499
100717.571449
100717.633913
100717.685017
100717.725893
100717.757663
100717.781484
100717.79874
100717.810837
100717.81779
100717.822857
100717.829314
100717.826972
100717.212951
100717.40523
100717.581797
100717.741351
100717.883568
100718.008739
100718.117648
100718.211373
100718.291128
100718.358173
100718.413756
100718.459083
100718.495307
100718.523522
100718.544864
100718.560707
100718.571481
100718.57787
100718.581378
100718.580992
100717.869591
100718.100472
100718.306027
100718.487646
100718.647006
100718.785829
100718.905853
100719.008831
100719.096468
100719.170378
100719.232065
100719.282915
100719.324198
100719.357076
100719.382633
100719.402118
100719.416122
100719.424405
100719.426452
100719.426083
100718.595426
100718.872584
100719.111988
100719.319064
100719.497873
100719.651838
100719.783884
100719.89658
100719.992216
100720.072832
100720.140238
100720.19604
100720.241664
100720.278377
100720.307315
100720.329661
100720.345972
100720.355477
100720.356817
100720.355959
100719.457152
100719.776776
100720.04388
100720.270607
100720.463893
100720.628728
100720.769095
100720.888278
100720.989066
100721.073854
100721.144708
100721.203416
100721.251528
100721.290398
100721.321214
100721.345135
100721.362646
100721.372633
100721.373312
100721.371953
100720.495405
100720.852352
100721.136209
100721.370637
100721.567785
100721.734601
100721.875896
100721.995397
100722.096157
100722.180749
100722.251354
100722.309833
100722.357779
100722.396565
100722.427382
100722.451357
100722.468876
100722.478536
100722.478363
100722.476596
100721.701634
100722.100024
100722.39705
100722.629139
100722.818279
100722.97603
100723.108867
100723.220902
100723.315181
100723.394216
100723.460119
100723.514678
100723.559414
100723.595624
100723.624428
100723.646876
100723.66321
100723.671736
100723.670359
100723.668186
100723.025207
100723.47281
100723.794804
100724.028007
100724.204484
100724.344612
100724.459708
100724.556316
100724.637518
100724.705535
100724.762228
100724.809162
100724.847665
100724.878863
100724.903725
100724.923162
100724.937221
100724.943878
100724.940917
100724.938251
100724.414979
100724.899224
100725.258903
100725.512379
100725.689446
100725.815682
100725.90763
100725.981918
100726.044221
100726.096397
100726.139896
100726.17594
100726.205559
100726.229624
100726.248879
100726.264041
100726.274907
100726.279094
100726.274215
100726.27093
100725.868452
100726.345254
100726.716678
100726.996377
100727.202621
100727.34469
100727.421314
100727.468975
100727.507898
100727.540495
100727.567706
100727.59032
100727.608995
100727.624284
100727.636652
100727.646577
100727.653568
100727.654856
100727.647838
100727.643803
100727.447269
100727.858749
100728.155673
100728.408801
100728.652453
100728.862634
100728.959969
100728.982862
100728.99545
100729.005952
100729.01479
100729.022266
100729.02862
100729.03404
100729.038677
100729.042737
100729.045414
100729.043562
100729.034305
100729.029409
100729.183908
100729.492841
100729.624953
100729.758541
100729.987189
100730.293199
100730.473637
100730.485554
100730.470519
100730.457579
100730.446962
100730.438438
100730.431795
100730.426829
100730.423352
100730.421276
100730.419474
100730.414439
100730.402992
100730.397153
100730.966951
100731.176868
100731.135443
100731.111567
100731.246119
100731.602482
100731.909918
100731.936708
100731.894968
100731.858455
100731.828384
100731.803944
100731.78443
100731.769225
100731.757781
100731.749707
100731.74356
100731.735523
100731.722088
100731.715269
100732.652278
100732.773937
100732.60583
100732.461714
100732.480953
100732.814462
100733.231158
100733.294308
100733.229426
100733.170955
100733.122948
100733.083966
100733.052792
100733.028377
100733.009823
100732.996435
100732.986484
100732.975914
100732.96089
100732.95312
100734.152196
100734.189186
100733.929299
100733.708258
100733.649862
100733.945449
100734.420858
100734.517533
100734.434829
100734.358658
100734.296455
100734.246155
100734.206043
100734.174675
100734.150825
100734.133537
100734.120854
100734.108584
100734.092604
100734.084009
100735.390926
100735.346177
100735.020358
100734.751679
100734.660162
100734.952624
100735.457856
100735.56979
100735.476371
100735.390219
100735.32043
100735.264396
100735.219991
100735.185455
100735.159327
100735.140465
100735.126784
100735.114095
100735.09807
100735.088907
100736.280086
100736.170592
100735.810007
100735.523954
100735.437905
100735.762841
100736.298052
100736.421124
100736.329043
100736.244686
100736.177252
100736.123783
100736.081915
100736.049737
100736.025697
100736.0086
100735.996381
100735.985026
100735.97015
100735.960828
100736.721806
100736.593153
100736.242123
100735.978952
100735.935607
100736.317656
100736.902975
100737.056438
100736.984399
100736.917813
100736.866109
100736.826281
100736.796003
100736.773456
100736.757221
100736.746242
100736.738664
100736.730848
100736.718566
100736.709663
100736.615848
100736.550655
100736.273735
100736.087778
100736.12877
100736.601644
100737.269966
100737.485004
100737.457462
100737.428678
100737.409269
100737.396657
100737.388964
100737.384819
100737.38323
100737.383545
100737.384347
100737.3826
100737.374512
100737.366756
100735.878459
100736.001417
100735.889961
100735.852909
100736.030849
100736.635572
100737.428008
100737.748852
100737.795449
100737.82737
100737.858859
100737.888487
100737.915398
100737.93914
100737.959537
100737.976658
100737.989785
100737.996695
100737.994373
100737.98859
100734.505488
100734.98145
100735.150466
100735.347227
100735.720711
100736.494984
100737.457008
100737.936527
100738.088317
100738.203088
100738.303112
100738.388986
100738.461553
100738.521798
100738.570779
100738.609613
100738.63852
100738.65626
100738.660933
100738.657917
100732.673101
100733.681975
100734.244803
100734.752426
100735.369213
100736.339158
100737.504454
100738.19029
100738.473371
100738.686526
100738.867096
100739.018524
100739.143929
100739.246172
100739.327871
100739.391444
100739.438197
100739.467921
100739.4801
100739.480427
100730.820361
100732.491741
100733.515384
100734.368826
100735.243226
100736.406059
100737.777688
100738.697301
100739.126328
100739.440482
100739.703063
100739.920852
100740.099483
100740.243856
100740.358254
100740.446471
100740.510872
100740.552158
100740.571302
100740.57514
100729.607499
100731.943822
100733.405634
100734.567979
100735.661995
100736.972094
100738.511142
100739.660573
100740.234728
100740.635929
100740.968508
100741.242772
100741.466586
100741.646643
100741.788679
100741.897685
100741.97685
100742.027465
100742.051876
100742.058856
100729.660543
100732.526624
100734.319034
100735.682805
100736.908279
100738.283519
100739.914109
100741.254269
100741.957478
100742.417481
100742.795744
100743.106898
100743.360238
100743.563618
100743.723716
100743.846304
100743.934972
100743.991136
100744.018169
100744.027407
100731.314556
100734.492304
100736.471095
100737.896534
100739.142264
100740.490414
100742.120894
100743.583485
100744.387142
100744.870766
100745.263479
100745.586452
100745.849347
100746.060329
100746.226348
100746.353405
100746.44499
100746.502122
100746.528711
100746.53898
100734.568674
100737.818274
100739.8394
100741.200202
100742.367877
100743.61199
100745.16263
100746.667437
100747.532231
100748.005647
100748.381994
100748.691967
100748.944598
100749.147561
100749.307421
100749.429881
100749.517859
100749.571534
100749.594821
100749.604825
100739.17876
100742.291768
100744.222488
100745.428355
100746.449685
100747.542012
100748.967574
100750.446301
100751.325679
100751.761641
100752.097349
100752.374602
100752.60112
100752.783501
100752.927448
100753.037967
100753.117067
100753.163803
100753.181648
100753.190284
100744.759271
100747.606213
100749.338994
100750.336438
100751.17364
100752.101794
100753.391483
100754.802584
100755.65148
100756.030511
100756.310672
100756.542907
100756.733299
100756.887083
100757.008846
100757.102667
100757.169485
100757.207128
100757.218331
100757.224893
100750.864617
100753.417313
100754.902068
100755.680986
100756.325798
100757.094248
100758.259058
100759.588949
100760.373501
100760.683657
100760.902315
100761.084443
100761.234437
100761.356121
100761.452905
100761.527875
100761.580882
100761.608584
100761.612832
100761.616677
100757.189834
100759.452243
100760.691922
)
;

boundaryField
{
    emptyPatch
    {
        type            empty;
    }
    minY
    {
        type            zeroGradient;
    }
    maxY
    {
        type            prghTotalPressure;
        U               U.gas;
        p0              nonuniform List<scalar> 0();
        value           nonuniform List<scalar> 0();
    }
    water_to_cooler
    {
        type            fixedFluxPressure;
        gradient        uniform 0;
        value           nonuniform List<scalar> 
37
(
100721.732767
100717.268804
100716.419312
100716.233873
100716.334687
100716.669571
100717.180364
100717.826972
100718.580992
100719.426083
100720.355959
100721.371953
100722.476596
100723.668186
100724.938251
100726.27093
100727.643803
100729.029409
100730.397153
100731.715269
100732.95312
100734.084009
100735.088907
100735.960828
100736.709663
100737.366756
100737.98859
100738.657917
100739.480427
100740.57514
100742.058856
100744.027407
100746.53898
100749.604825
100753.190284
100757.224893
100761.616677
)
;
    }
    water_to_heater
    {
        type            fixedFluxPressure;
        gradient        uniform 0;
        value           nonuniform List<scalar> 
61
(
100710.001107
100690.41279
100690.41279
100682.231569
100682.231569
100676.015859
100676.015859
100670.374963
100667.106216
100666.33624
100666.33624
100665.777827
100665.777827
100662.011622
100662.011622
100653.356121
100644.520963
100636.995717
100636.995717
100632.244215
100632.244215
100627.590549
100627.590549
100624.119776
100620.483146
100617.504242
100617.504242
100614.994762
100614.994762
100611.447734
100611.447734
100608.598158
100606.892041
100606.648151
100606.648151
100604.817074
100604.817074
100603.636737
100603.636737
100603.608208
100600.991881
100596.821842
100596.821842
100587.549071
100587.549071
100568.973439
100568.973439
100511.374665
100409.568859
100363.336148
100363.336148
100365.022594
100365.022594
100367.64685
100367.64685
100369.554342
100377.393851
100391.279796
100391.279796
100397.705902
100397.705902
)
;
    }
    procBoundary2to3
    {
        type            processor;
        value           nonuniform List<scalar> 
41
(
100400.255638
100460.302262
100529.910431
100587.815123
100590.128727
100558.093976
100508.835563
100501.823478
100523.07392
100582.922916
100660.039397
100713.860204
100734.677539
100741.197665
100744.89156
100748.360818
100751.868935
100755.259084
100758.386357
100761.128019
100761.256208
100761.720835
100762.338663
100763.395987
100764.647016
100765.355499
100765.593754
100765.751736
100765.884195
100765.99397
100766.083583
100766.155336
100766.211364
100766.250507
100766.268402
100766.265996
100766.267288
100763.573621
100765.554266
100761.256208
100766.538654
)
;
    }
}


// ************************************************************************* //
