/*--------------------------------*- C++ -*----------------------------------*\
| =========                 |                                                 |
| \\      /  F ield         | OpenFOAM: The Open Source CFD Toolbox           |
|  \\    /   O peration     | Version:  2312                                  |
|   \\  /    A nd           | Website:  www.openfoam.com                      |
|    \\/     M anipulation  |                                                 |
\*---------------------------------------------------------------------------*/
FoamFile
{
    version     2.0;
    format      ascii;
    arch        "LSB;label=32;scalar=64";
    class       surfaceScalarField;
    location    "0.1/water";
    object      phi;
}
// * * * * * * * * * * * * * * * * * * * * * * * * * * * * * * * * * * * * * //

dimensions      [0 3 -1 0 0 0 0];

oriented        oriented;

internalField   nonuniform List<scalar> 
2928
(
8.05863477569e-08
2.02074477561e-07
5.45366463041e-08
1.51451535708e-07
4.01747652501e-08
1.48066194659e-07
3.10499110143e-08
1.49763960629e-07
2.47428290615e-08
1.53933519715e-07
2.03431077355e-08
1.59323177959e-07
1.72352914276e-08
1.65685820107e-07
1.49379356064e-08
1.72907951565e-07
1.30463434616e-08
1.80931631672e-07
1.134365108e-08
1.89588685815e-07
9.76792574757e-09
1.98744705588e-07
8.31952319161e-09
2.0835904111e-07
7.00866661187e-09
2.18444447574e-07
5.83987914186e-09
2.29030437871e-07
4.80886136876e-09
2.40150762345e-07
3.90386461337e-09
2.51839082318e-07
3.10829237143e-09
2.64127707681e-07
2.40322565475e-09
2.77047818291e-07
1.76897556683e-09
2.90630434146e-07
3.04908794654e-07
1.18438749199e-09
1.18652367544e-07
2.5751002394e-07
8.0636138118e-08
1.81369749703e-07
6.22629974909e-08
1.64867877879e-07
4.98845391312e-08
1.61926688247e-07
4.0539547149e-08
1.63255466318e-07
3.35212439945e-08
1.66340636406e-07
2.8200852293e-08
1.71006536387e-07
2.41467876827e-08
1.76962141202e-07
2.10662607603e-08
1.840121726e-07
1.85817164998e-08
1.92073239665e-07
1.64010181085e-08
2.00925401599e-07
1.43784471731e-08
2.103816176e-07
1.24642564667e-08
2.2035863629e-07
1.06528462557e-08
2.30841851372e-07
8.95282594403e-09
2.41850780722e-07
7.3719972946e-09
2.53419912767e-07
5.91081231771e-09
2.65588890791e-07
4.56069433078e-09
2.78397936994e-07
3.30431103658e-09
2.918868155e-07
3.06097240057e-07
2.11586576568e-09
1.24259276656e-07
3.00792090294e-07
8.04313679783e-08
2.14840016009e-07
5.95362111436e-08
1.83637336307e-07
4.73733187991e-08
1.73761666755e-07
3.89375622185e-08
1.71658068421e-07
3.28765449445e-08
1.72402825491e-07
2.86317598744e-08
1.75253091185e-07
2.54333450126e-08
1.80161154412e-07
2.28287781113e-08
1.86616842218e-07
2.06231039952e-08
1.94278932756e-07
1.8638741981e-08
2.02909759149e-07
1.67535403981e-08
2.12266826058e-07
1.49026776769e-08
2.22209495891e-07
1.30634331295e-08
2.3268110023e-07
1.12389142421e-08
2.43675297431e-07
9.44375910354e-09
2.55215070345e-07
7.69314633391e-09
2.67339501744e-07
5.99579610299e-09
2.80095288392e-07
4.35036377738e-09
2.93532245879e-07
3.07703094651e-07
2.74450966659e-09
1.43556702185e-07
3.19653730215e-07
9.60372878136e-08
2.48371162948e-07
6.90646535271e-08
2.07231109966e-07
5.20574134125e-08
1.90170722347e-07
4.04541674292e-08
1.83197432998e-07
3.23712840462e-08
1.80490378448e-07
2.71527349393e-08
1.80476766228e-07
2.39679488067e-08
1.83347766551e-07
2.17736114989e-08
1.88811581152e-07
2.00014243254e-08
1.96051181417e-07
1.83894776659e-08
2.04521705436e-07
1.68138962176e-08
2.13842417102e-07
1.52161450044e-08
2.238072457e-07
1.35699571079e-08
2.34327293782e-07
1.18700787524e-08
2.45375174199e-07
1.01252016692e-08
2.56959950671e-07
8.35049755006e-09
2.69114204212e-07
6.5606552274e-09
2.81885132179e-07
4.76469459021e-09
2.95328204657e-07
3.09504134152e-07
2.9636557169e-09
1.54592352335e-07
3.24429044476e-07
1.13034942003e-07
2.73308716278e-07
8.23234503592e-08
2.33079935516e-07
6.08529689879e-08
2.10588250803e-07
4.51919073427e-08
1.98716700901e-07
3.40000785273e-08
1.91688589696e-07
2.66256638075e-08
1.87862948431e-07
2.24552264938e-08
1.87522855026e-07
2.01398923469e-08
1.91128069027e-07
1.85426701558e-08
1.9764859205e-07
1.71589467438e-08
2.05905432282e-07
1.58009794474e-08
2.15200395141e-07
1.44020466602e-08
2.2520617437e-07
1.29348917713e-08
2.35794455392e-07
1.13893952701e-08
2.46920667967e-07
9.76687284565e-09
2.58582477058e-07
8.07619314397e-09
2.70804881797e-07
6.32939686121e-09
2.83631930578e-07
4.53744713561e-09
2.97120152137e-07
3.11333725317e-07
2.7078571426e-09
1.6135244698e-07
3.20916241707e-07
1.29044899561e-07
2.87765445234e-07
9.94532760969e-08
2.56651816364e-07
7.54916024343e-08
2.32986552484e-07
5.59048939306e-08
2.18035269214e-07
4.04246541917e-08
2.07170982681e-07
2.9265628848e-08
1.99045972838e-07
2.24957503095e-08
1.94303950395e-07
1.90627057338e-08
1.94564271127e-07
1.7161038044e-08
1.99550841391e-07
1.57379083741e-08
2.07328608409e-07
1.4414925209e-08
2.16523393755e-07
1.30808930826e-08
2.2654020509e-07
1.16975827172e-08
2.37177774534e-07
1.02485175588e-08
2.48369731359e-07
8.72786129277e-09
2.60103138575e-07
7.13687119794e-09
2.72395870055e-07
5.48133720457e-09
2.85287467272e-07
3.76888058907e-09
2.98832606686e-07
3.13095330017e-07
2.00727741848e-09
1.60307107176e-07
3.18742421175e-07
1.3545186208e-07
2.95053348098e-07
1.12133708385e-07
2.73532651927e-07
8.91731042897e-08
2.54043972541e-07
6.85115084547e-08
2.38310561857e-07
5.01060646386e-08
2.25572455729e-07
3.50369751491e-08
2.14158975177e-07
2.45275697816e-08
2.04838633956e-07
1.8782487141e-08
2.00317868472e-07
1.59805818535e-08
2.02354573934e-07
1.4263523307e-08
2.09045865795e-07
1.28293720088e-08
2.17957569054e-07
1.14547856549e-08
2.27914787972e-07
1.00767680033e-08
2.38555802748e-07
8.66916739223e-09
2.49777329404e-07
7.2188630977e-09
2.61553449292e-07
5.71977458966e-09
2.73894956458e-07
4.17065422925e-09
2.86836591362e-07
2.57351735823e-09
3.00429741148e-07
3.1473619348e-07
9.3265628106e-10
1.57295028982e-07
3.20533500683e-07
1.35801726624e-07
2.9995695317e-07
1.17719404526e-07
2.8542496587e-07
9.82805747593e-08
2.71541946452e-07
7.8694835705e-08
2.57468817878e-07
5.96868069467e-08
2.44582477744e-07
4.21575141413e-08
2.31759835056e-07
2.79788493053e-08
2.19067001816e-07
1.89717352773e-08
2.09346035467e-07
1.4570191456e-08
2.06761778265e-07
1.23776001299e-08
2.11239273579e-07
1.08097243867e-08
2.19525510354e-07
9.38763608797e-09
2.29336876587e-07
8.0113297513e-09
2.39932121989e-07
6.64629632756e-09
2.51142361351e-07
5.27400948827e-09
2.62925743939e-07
3.88269278639e-09
2.75286271277e-07
2.46475278289e-09
2.88254535664e-07
1.01638311738e-09
3.0187810853e-07
3.16214196297e-07
-4.61616953574e-10
1.58432632747e-07
3.21184027044e-07
1.3959547026e-07
3.02456341429e-07
1.23462463766e-07
2.95411050223e-07
1.05930550923e-07
2.87109371047e-07
8.69200628206e-08
2.76032092395e-07
6.80776365218e-08
2.63437098189e-07
4.95280744299e-08
2.50410587526e-07
3.25655589608e-08
2.36111851987e-07
1.97885307485e-08
2.22166981946e-07
1.27789470362e-08
2.13786816437e-07
9.72601284074e-09
2.1429515383e-07
8.04289929047e-09
2.21208865586e-07
6.64901813986e-09
2.30730756709e-07
5.34484643097e-09
2.41236308159e-07
4.08499914041e-09
2.52402204982e-07
2.84712424888e-09
2.64163627641e-07
1.61552112357e-09
2.76517871483e-07
3.78211438061e-10
2.89491850664e-07
-8.72672541726e-10
3.03128989445e-07
3.17482326011e-07
-2.14079855493e-09
1.58984513264e-07
3.21124311234e-07
1.41731150897e-07
3.03528076548e-07
1.26891333435e-07
3.04092152806e-07
1.1026817809e-07
3.01732888082e-07
9.18364477743e-08
2.94001218012e-07
7.33386329465e-08
2.81956693028e-07
5.50121956617e-08
2.68865315124e-07
3.69193855059e-08
2.54322128098e-07
2.10438581504e-08
2.38118716198e-07
1.06556544647e-08
2.24209833241e-07
6.08947631053e-09
2.18870292701e-07
4.30012828126e-09
2.22999157913e-07
3.09335235442e-09
2.31937555787e-07
2.00117893971e-09
2.42328499474e-07
9.60417411668e-10
2.53442964305e-07
-5.00103213251e-11
2.65174066094e-07
-1.04477056496e-09
2.77512629084e-07
-2.0369615142e-09
2.9048404773e-07
-3.03707097485e-09
3.04129095987e-07
3.18495619941e-07
-4.05036072176e-09
1.57862238088e-07
3.22343671576e-07
1.40178225629e-07
3.05396690775e-07
1.26117600903e-07
3.12074224603e-07
1.10441663767e-07
3.15405017801e-07
9.2907164886e-08
3.1106922356e-07
7.5029365899e-08
2.99867549538e-07
5.76673657816e-08
2.86379769025e-07
3.99637342423e-08
2.72176658044e-07
2.26243315576e-08
2.55571692221e-07
8.97670356944e-09
2.37922234565e-07
2.01611511604e-09
2.25853095417e-07
-1.50987517314e-10
2.25169460979e-07
-1.04450052488e-09
2.32831189233e-07
-1.79015300513e-09
2.43074173217e-07
-2.50854456325e-09
2.54161352376e-07
-3.21493107462e-09
2.65880464887e-07
-3.91712609122e-09
2.7821482083e-07
-4.62378074008e-09
2.91190709874e-07
-5.34240927989e-09
3.04847720952e-07
3.19229626386e-07
-6.07641034052e-09
1.55243199773e-07
3.267592895e-07
1.35236487165e-07
3.10026129271e-07
1.21325999521e-07
3.20080789132e-07
1.07413178776e-07
3.27364979112e-07
9.22645151016e-08
3.25766199608e-07
7.64010198779e-08
3.15778185411e-07
6.02571243804e-08
3.02697356185e-07
4.34081060056e-08
2.89207037541e-07
2.57220741993e-08
2.73409916528e-07
9.55234863049e-09
2.54195476607e-07
-7.16528252525e-10
2.36167939035e-07
-4.21259605697e-09
2.28674791002e-07
-4.99346787784e-09
2.33612626524e-07
-5.42209353591e-09
2.43502830738e-07
-5.8355999263e-09
2.5457485712e-07
-6.25647940932e-09
2.66301358772e-07
-6.68574968579e-09
2.78644088221e-07
-7.12636455014e-09
2.91631333074e-07
-7.58157216896e-09
3.05302925187e-07
3.19699576718e-07
-8.05151663138e-09
1.50883131918e-07
3.3623459993e-07
1.27131188647e-07
3.19179886551e-07
1.1224866115e-07
3.29585248664e-07
1.0062293777e-07
3.37257121441e-07
8.97787073237e-08
3.36230358645e-07
7.76958915043e-08
3.27932783392e-07
6.35711968679e-08
3.1701462328e-07
4.78338067498e-08
3.05152035709e-07
3.05748706687e-08
2.90857673905e-07
1.31487001507e-08
2.71768384447e-07
-4.48488442627e-10
2.49846234119e-07
-6.61239056684e-09
2.34861376816e-07
-7.95134118807e-09
2.34953768578e-07
-8.28717745367e-09
2.43838751404e-07
-8.54232004014e-09
2.54829996715e-07
-8.79582650292e-09
2.66554881245e-07
-9.04911068359e-09
2.78897368589e-07
-9.30272510138e-09
2.91884957202e-07
-9.55823339932e-09
3.05558429225e-07
3.19956009721e-07
-9.81465928514e-09
1.49325372242e-07
3.46998343654e-07
1.21949484762e-07
3.31838865871e-07
1.05052489867e-07
3.4129807389e-07
9.45024889529e-08
3.46232283339e-07
8.69463905508e-08
3.4347064271e-07
7.84807745204e-08
3.36489764846e-07
6.69668404831e-08
3.28733242064e-07
5.242621491e-08
3.19919890988e-07
3.59130656133e-08
3.07590648325e-07
1.8533554598e-08
2.89335919668e-07
2.89519255044e-09
2.65607840437e-07
-6.66157364836e-09
2.44464560098e-07
-9.60999855731e-09
2.37909240936e-07
-1.02044119219e-08
2.44433541836e-07
-1.04752526335e-08
2.55100841087e-07
-1.06972665082e-08
2.66776913647e-07
-1.08860141317e-08
2.79086112842e-07
-1.10430396045e-08
2.92041993316e-07
-1.11714164563e-08
3.05686802007e-07
3.20056767874e-07
-1.12721670022e-08
1.48091294329e-07
3.58624337348e-07
1.18862883818e-07
3.45878712232e-07
1.0161681448e-07
3.53250480668e-07
9.18602153489e-08
3.54431454921e-07
8.57106937124e-08
3.49325896893e-07
7.92002664289e-08
3.43097458447e-07
6.96360646974e-08
3.38506302818e-07
5.63347602755e-08
3.33461115778e-07
4.04880366513e-08
3.23681082711e-07
2.38873810379e-08
3.06159200959e-07
7.97306450601e-09
2.81686250261e-07
-4.39198422634e-09
2.56908586239e-07
-1.0050406093e-08
2.43585944082e-07
-1.14180403256e-08
2.45802849123e-07
-1.18230128669e-08
2.55505860953e-07
-1.20834080262e-08
2.67037329632e-07
-1.22683841457e-08
2.79271085084e-07
-1.23809908927e-08
2.92154612312e-07
-1.24264149321e-08
3.05732221217e-07
3.2003929733e-07
-1.24089353936e-08
1.4633324057e-07
3.72073993599e-07
1.17070453994e-07
3.59522367518e-07
1.01534881513e-07
3.63253033709e-07
9.30759700814e-08
3.6124444547e-07
8.73891961491e-08
3.54696558926e-07
8.13344215434e-08
3.4924206985e-07
7.24449439327e-08
3.4760346604e-07
5.98307942455e-08
3.46323817614e-07
4.45934970544e-08
3.39181084802e-07
2.90465872037e-08
3.21955781987e-07
1.39760162301e-08
2.96954161488e-07
-9.68087436035e-12
2.71008658876e-07
-9.17450557003e-09
2.52789548636e-07
-1.22249680933e-08
2.48859443132e-07
-1.28962093078e-08
2.56177451028e-07
-1.3187033501e-08
2.67328181697e-07
-1.33598286181e-08
2.79443877134e-07
-1.34249281638e-08
2.92219725182e-07
-1.33892779476e-08
3.0569656654e-07
3.19909961311e-07
-1.32599324054e-08
1.44517926106e-07
3.87837280018e-07
1.16061091236e-07
3.72009334305e-07
1.02891911738e-07
3.70636140492e-07
9.57827441788e-08
3.66584391045e-07
9.02507676213e-08
3.59867152547e-07
8.37534788575e-08
3.55813223392e-07
7.45532919666e-08
3.5700785143e-07
6.23409459235e-08
3.58791822202e-07
4.85556682738e-08
3.53243908985e-07
3.49899911855e-08
3.35789763058e-07
2.11402569463e-08
3.11023884863e-07
6.23322290218e-09
2.86062625786e-07
-6.6960878259e-09
2.6578832601e-07
-1.27356009556e-08
2.54916967583e-07
-1.39817735409e-08
2.57425395811e-07
-1.42397072062e-08
2.67586181897e-07
-1.4330091322e-08
2.79534258193e-07
-1.42942998566e-08
2.9218394891e-07
-1.41412196765e-08
3.0554348127e-07
3.19647743341e-07
-1.38789906714e-08
1.43642278101e-07
4.04783069625e-07
1.16234786407e-07
3.83476931092e-07
1.03844563385e-07
3.7732447335e-07
9.70273550929e-08
3.71644849042e-07
9.12189945553e-08
3.6530629436e-07
8.40294244227e-08
3.63070842547e-07
7.43070577024e-08
3.66935195805e-07
6.29482593666e-08
3.70412462465e-07
5.14882432498e-08
3.64987885545e-07
4.04501685569e-08
3.47098940059e-07
2.80676550667e-08
3.23636134262e-07
1.28163827535e-08
3.01488396754e-07
-3.2070815596e-09
2.81920756056e-07
-1.30694414758e-08
2.64821858783e-07
-1.53109524678e-08
2.59673420016e-07
-1.5409919273e-08
2.67685400708e-07
-1.52924384812e-08
2.79416776545e-07
-1.50691072295e-08
2.91960634242e-07
-1.47424660084e-08
3.05216835544e-07
3.19220327282e-07
-1.43150383353e-08
1.47611311552e-07
4.17099281904e-07
1.21802777498e-07
3.92732758175e-07
1.07871797509e-07
3.8537111173e-07
9.94271644623e-08
3.78309899313e-07
9.21335472126e-08
3.72229570979e-07
8.37154467185e-08
3.71558414862e-07
7.37059660648e-08
3.77154449981e-07
6.37652870744e-08
3.80618701036e-07
5.46227975683e-08
3.74413415774e-07
4.55645822032e-08
3.56424521515e-07
3.42648838924e-08
3.35167869257e-07
1.86324646264e-08
3.17319566915e-07
4.50949204947e-10
3.00257646433e-07
-1.29029778396e-08
2.78257939343e-07
-1.65479695974e-08
2.63335824858e-07
-1.65114557908e-08
2.67649714765e-07
-1.61494078606e-08
2.79054732313e-07
-1.57114481644e-08
2.915226935e-07
-1.51948638002e-08
3.04700246217e-07
3.18621247301e-07
-1.45957705035e-08
1.49070571546e-07
4.27619845474e-07
1.24518468209e-07
4.00162511982e-07
1.10217212888e-07
3.93541073222e-07
1.00212970198e-07
3.8647837681e-07
9.13314556691e-08
3.80739887516e-07
8.19315662351e-08
3.81035782305e-07
7.25412720915e-08
3.86761945237e-07
6.43616203194e-08
3.89065126015e-07
5.75255413642e-08
3.81527942716e-07
5.02101120619e-08
3.63997897982e-07
3.9031051611e-08
3.46577384214e-07
2.24781793259e-08
3.34095943728e-07
3.23614631854e-09
3.19706497469e-07
-1.18946942667e-08
2.93520737641e-07
-1.70933902957e-08
2.68568980358e-07
-1.72359694726e-08
2.67794315826e-07
-1.67508508992e-08
2.78569631466e-07
-1.61694076259e-08
2.90941270872e-07
-1.55078209522e-08
3.04038655264e-07
3.17880931647e-07
-1.476749137e-08
1.5182441846e-07
4.3544007195e-07
1.28303675798e-07
4.06076314635e-07
1.13721383377e-07
4.01751174821e-07
1.01803278387e-07
3.96483733146e-07
9.08991285924e-08
3.91269421095e-07
8.08153852249e-08
3.91208343419e-07
7.25296869241e-08
3.9527178869e-07
6.62681788811e-08
3.95592551719e-07
6.16219483378e-08
3.86442133436e-07
5.47327734844e-08
3.71130723131e-07
4.24866010275e-08
3.59055487665e-07
2.38084334571e-08
3.5302658041e-07
4.45647783065e-09
3.3931503724e-07
-1.03032337109e-08
3.08459181976e-07
-1.70925968454e-08
2.75412116549e-07
-1.78324547511e-08
2.68538287184e-07
-1.72920560994e-08
2.78029292429e-07
-1.65983481452e-08
2.90247586196e-07
-1.5815951512e-08
3.03256253779e-07
3.17018097965e-07
-1.49531021004e-08
1.56885148439e-07
4.38731815539e-07
1.34099751651e-07
4.10920494114e-07
1.18730906859e-07
4.10496864638e-07
1.05253794974e-07
4.07938175122e-07
9.28888599068e-08
4.03230636103e-07
8.26262453483e-08
4.01557334819e-07
7.54110010404e-08
4.02708841142e-07
7.10296126651e-08
4.00230904882e-07
6.75078933965e-08
3.90214743236e-07
5.96799621323e-08
3.79192258934e-07
4.60648769378e-08
3.72913614012e-07
2.63527952168e-08
3.7303123483e-07
8.12830113207e-09
3.57840648032e-07
-6.36161657578e-09
3.23163286784e-07
-1.6052411737e-08
2.85177878765e-07
-1.84568266196e-08
2.70951304553e-07
-1.80047071569e-08
2.7757743813e-07
-1.71932618074e-08
2.89436167889e-07
-1.62808549745e-08
3.02343842931e-07
3.16026288295e-07
-1.52890289097e-08
1.56528748464e-07
4.42389183292e-07
1.34998395218e-07
4.15189877034e-07
1.20434717403e-07
4.18749631598e-07
1.0741362564e-07
4.19028529952e-07
9.55241106602e-08
4.1474447389e-07
8.61646360546e-08
4.11015166701e-07
8.00307984227e-08
4.09066081712e-07
7.65620504359e-08
4.03946640845e-07
7.20825752723e-08
3.94929644059e-07
6.29018660962e-08
3.88604984479e-07
4.71829485442e-08
3.88892791166e-07
3.1648040879e-08
3.88890993132e-07
1.63129062174e-08
3.7350242649e-07
1.12956956621e-09
3.38588644835e-07
-1.30036856508e-08
2.99415909403e-07
-1.89480476361e-08
2.76915855632e-07
-1.89979524261e-08
2.77628706572e-07
-1.80357271748e-08
2.88473994462e-07
-1.69648409807e-08
3.01272952664e-07
3.1489233349e-07
-1.58308676419e-08
1.58473217617e-07
4.44544533602e-07
1.38034655543e-07
4.18385222986e-07
1.2524697311e-07
4.25252751501e-07
1.13053050691e-07
4.29290797398e-07
1.01776806652e-07
4.25636599694e-07
9.30617854074e-08
4.19819668312e-07
8.72241223309e-08
4.15116241457e-07
8.28523748697e-08
4.08549498109e-07
7.6148914352e-08
4.01858263493e-07
6.5201541327e-08
3.99785459931e-07
4.89891597838e-08
4.05390050962e-07
3.77600329141e-08
4.00444750336e-07
2.59041538311e-08
3.8569148151e-07
1.0691877714e-08
3.54067652998e-07
-7.3902810035e-09
3.17646416406e-07
-1.85813411792e-08
2.88154555309e-07
-2.00665843812e-08
2.79120021261e-07
-1.89772771405e-08
2.87384898004e-07
-1.77532267382e-08
3.00048900342e-07
3.13646125355e-07
-1.6506999161e-08
1.58374400795e-07
4.46243223354e-07
1.39204873124e-07
4.20369006246e-07
1.28752548353e-07
4.29465392074e-07
1.18744256524e-07
4.37378740548e-07
1.08817636408e-07
4.35180476269e-07
1.00683046368e-07
4.2804321564e-07
9.4569368455e-08
4.21437069239e-07
8.84173577329e-08
4.14924550396e-07
7.9788637035e-08
4.10709163801e-07
6.73560041079e-08
4.12461232646e-07
5.42531529997e-08
4.18793655674e-07
4.38472698539e-08
4.11172467075e-07
3.40871097802e-08
3.95781056797e-07
1.9864234369e-08
3.68576050912e-07
3.15093414717e-10
3.37396379698e-07
-1.57321942503e-08
3.04298645033e-07
-2.00904470262e-08
2.83498020937e-07
-1.94036824664e-08
2.8669906583e-07
-1.83113101311e-08
2.98956531156e-07
3.12488243332e-07
-1.71534061849e-08
1.59288864668e-07
4.47782275337e-07
1.41280792074e-07
4.21084174332e-07
1.30963895457e-07
4.33422773694e-07
1.2266077016e-07
4.43705014336e-07
1.14294608638e-07
4.43130488979e-07
1.06534547092e-07
4.35873405069e-07
9.95732834566e-08
4.28592365421e-07
9.17203868359e-08
4.22992714431e-07
8.07990761183e-08
4.21852915252e-07
6.79662547722e-08
4.25548061645e-07
5.74437481161e-08
4.29616621599e-07
4.7707746251e-08
4.21225684006e-07
3.9227550292e-08
4.04584005729e-07
2.57848069695e-08
3.82313592243e-07
6.66668161635e-09
3.56760846743e-07
-1.11793578516e-08
3.22299402371e-07
-1.87224888222e-08
2.91085313556e-07
-1.92799986989e-08
2.87259534062e-07
-1.87542062563e-08
2.98430765098e-07
3.11663583295e-07
-1.79295231719e-08
1.58554965135e-07
4.49673204495e-07
1.4120712324e-07
4.21254399757e-07
1.31563790319e-07
4.36681210973e-07
1.24599234773e-07
4.48670002237e-07
1.17410466874e-07
4.4989306679e-07
1.09779362615e-07
4.43571163473e-07
1.01782461641e-07
4.36781030713e-07
9.23601612985e-08
4.32629991173e-07
7.9867469416e-08
4.34578393049e-07
6.76537343248e-08
4.38024583332e-07
5.83311290432e-08
4.39235215286e-07
5.02555650986e-08
4.29612074058e-07
4.21280581946e-08
4.13017269439e-07
2.72588647347e-08
3.97474256541e-07
7.6881476512e-09
3.76603561842e-07
-9.82788952408e-09
3.40010966436e-07
-1.88954007745e-08
3.00222069801e-07
-2.05190151989e-08
2.88889510552e-07
-2.03574182958e-08
2.98269253984e-07
3.10964615483e-07
-1.96584246226e-08
1.55316261278e-07
4.55950634925e-07
1.37232466112e-07
4.23129689582e-07
1.28599575867e-07
4.39399899337e-07
1.2301026373e-07
4.5239318313e-07
1.17008856025e-07
4.55489387616e-07
1.09748346101e-07
4.50894880008e-07
1.00990652285e-07
4.45725758933e-07
9.02201305576e-08
4.43616051589e-07
7.84192825519e-08
4.46619454605e-07
6.79135695863e-08
4.48793237766e-07
6.06225065866e-08
4.46810859186e-07
5.52730023437e-08
4.35249503985e-07
4.56213801931e-08
4.2294962251e-07
2.71108925992e-08
4.16271044631e-07
4.64076975155e-09
3.99360047045e-07
-1.38247505735e-08
3.5869420779e-07
-2.35156299288e-08
3.09999615859e-07
-2.51022597085e-08
2.90486405654e-07
-2.43171921011e-08
2.97484386532e-07
3.09654662991e-07
-2.30072120647e-08
1.55682097568e-07
4.61349392958e-07
1.37017663881e-07
4.25795888786e-07
1.27459651624e-07
4.43276084546e-07
1.21309046245e-07
4.56803372474e-07
1.15529427754e-07
4.60903571597e-07
1.08615867913e-07
4.5787797094e-07
9.9846445825e-08
4.54683324867e-07
8.95274514604e-08
4.54155227569e-07
8.03041749753e-08
4.56083463027e-07
7.30363550973e-08
4.56317112422e-07
6.93417602004e-08
4.50766788833e-07
6.43307115792e-08
4.40510256212e-07
5.28098393775e-08
4.34723738218e-07
3.02007913355e-08
4.39166244415e-07
3.88699739172e-09
4.25984445456e-07
-1.77621852377e-08
3.80583532915e-07
-3.05186604163e-08
3.2285953668e-07
-3.20301545619e-08
2.92013365106e-07
-2.97772383644e-08
2.95231897333e-07
3.07115248597e-07
-2.72377922958e-08
1.56914206896e-07
4.65145675663e-07
1.37495404493e-07
4.28845683546e-07
1.26961911501e-07
4.48045337265e-07
1.19343805859e-07
4.62699699013e-07
1.1269528557e-07
4.67205277545e-07
1.05981076652e-07
4.64667414937e-07
9.84196348501e-08
4.62435185694e-07
9.07164443796e-08
4.62080239535e-07
8.48570695658e-08
4.62177527229e-07
8.21238041415e-08
4.59289630396e-07
8.07612047188e-08
4.52356123696e-07
7.44441371162e-08
4.47050823579e-07
5.79397793948e-08
4.51477230583e-07
3.97356058948e-08
4.57720482402e-07
1.80951862494e-08
4.47981475676e-07
-1.05056263844e-08
4.09465148292e-07
-3.22953438286e-08
3.44787593087e-07
-3.69411042328e-08
2.9668669902e-07
-3.37711845124e-08
2.92063086955e-07
3.03601757259e-07
-3.02576560435e-08
1.59814767692e-07
4.65620482106e-07
1.38826222628e-07
4.32976329669e-07
1.26719512922e-07
4.54123243323e-07
1.16595534444e-07
4.71018249204e-07
1.07993337866e-07
4.75446463556e-07
1.00869187071e-07
4.71864748327e-07
9.4579539051e-08
4.68913461542e-07
8.95509874052e-08
4.67326694222e-07
8.70987397017e-08
4.64855813174e-07
8.71895886612e-08
4.59417806235e-07
8.42264091646e-08
4.55527174378e-07
7.54939826049e-08
4.5600572882e-07
5.67978892184e-08
4.70500094042e-07
4.60503033251e-08
4.68802007521e-07
3.46467408652e-08
4.5972950713e-07
7.75098967658e-09
4.36699975075e-07
-2.24273163962e-08
3.75175564319e-07
-3.52688391005e-08
3.09585912908e-07
-3.35485730597e-08
2.90346265197e-07
3.00286542479e-07
-3.02332993588e-08
1.60812384356e-07
4.65471142034e-07
1.37987573698e-07
4.3916041031e-07
1.22856318253e-07
4.63173682491e-07
1.08946610125e-07
4.83079749953e-07
9.78812461146e-08
4.8614738264e-07
9.02535652216e-08
4.79568277265e-07
8.51200240686e-08
4.74233946862e-07
8.25397882488e-08
4.7011792737e-07
8.27981903649e-08
4.64807002489e-07
8.18277156288e-08
4.6058405762e-07
7.72993972053e-08
4.60258285474e-07
6.27014520343e-08
4.70850278556e-07
5.21239782973e-08
4.81369030282e-07
4.48306744729e-08
4.76409700424e-07
3.69947791918e-08
4.67905715651e-07
2.20521644555e-08
4.5199114668e-07
-7.74703130965e-09
4.0526137734e-07
-2.82170721452e-08
3.30167933062e-07
-2.98434026679e-08
2.91983017539e-07
2.97969114234e-07
-2.75258272774e-08
1.57357663752e-07
4.68992325915e-07
1.32190261818e-07
4.48657680699e-07
1.12137637739e-07
4.77639356571e-07
9.35025732173e-08
5.00048738696e-07
7.99464412163e-08
4.99403242489e-07
7.23669966335e-08
4.87241058899e-07
6.88097897294e-08
4.77975683978e-07
6.85360471169e-08
4.70588369277e-07
6.96560903533e-08
4.6387311588e-07
6.67659125778e-08
4.63657928778e-07
6.19546313788e-08
4.6526387836e-07
4.63594847196e-08
4.86690678235e-07
4.08686724067e-08
4.8716675296e-07
3.64133289224e-08
4.81186378042e-07
3.1602499834e-08
4.73042003831e-07
2.49327378634e-08
4.59012596861e-07
2.23377008473e-09
4.28290001756e-07
-1.95681129511e-08
3.52145085295e-07
-2.49124389565e-08
2.97352499535e-07
2.96793149209e-07
-2.37359851308e-08
1.58760188792e-07
4.70062035616e-07
1.30697515446e-07
4.60813514594e-07
1.05048398562e-07
4.97781622105e-07
8.07690241578e-08
5.22776476509e-07
6.34057552839e-08
5.165217021e-07
5.49651998015e-08
4.95788770395e-07
5.16088094356e-08
4.81511283321e-07
5.08852963754e-08
4.71492866344e-07
4.98587691671e-08
4.650684525e-07
4.63515636111e-08
4.67342390117e-07
3.77762544815e-08
4.74031310745e-07
2.92013231154e-08
4.95559433004e-07
2.58480715622e-08
4.90812067458e-07
2.388027369e-08
4.83453133123e-07
2.17193480232e-08
4.75526892539e-07
1.80251560614e-08
4.63033665871e-07
6.16575705715e-09
4.40497203089e-07
-1.13255297389e-08
3.69859108731e-07
-1.96806010021e-08
3.0575448584e-07
2.96963827747e-07
-1.98497799057e-08
1.60425675265e-07
4.68859685668e-07
1.31903796435e-07
4.72949723319e-07
1.06286752078e-07
5.17607449015e-07
7.99447068604e-08
5.47469563097e-07
5.82738374709e-08
5.37926616338e-07
4.65706190475e-08
5.07592572093e-07
4.14667399207e-08
4.86787259852e-07
3.81714002415e-08
4.74960634326e-07
3.33610852055e-08
4.70041682772e-07
2.67793588757e-08
4.7409668043e-07
1.41844028528e-08
4.86840697121e-07
1.11941274729e-08
4.98812477337e-07
1.03837552093e-08
4.91897665563e-07
1.06560433712e-08
4.83481155226e-07
1.05568242208e-08
4.75930414807e-07
8.92850925211e-09
4.64991555555e-07
4.59819580051e-09
4.45157770863e-07
-6.26211301054e-09
3.80973884397e-07
-1.52759725409e-08
3.14840278393e-07
2.98353983103e-07
-1.66623406316e-08
1.59879831142e-07
4.68544052847e-07
1.35388712628e-07
4.80769044166e-07
1.15718647495e-07
5.31046505633e-07
9.27943836789e-08
5.68453490851e-07
6.91701476558e-08
5.6116067057e-07
5.23501717211e-08
5.24475188215e-07
4.29153846625e-08
4.96381018825e-07
3.5209041714e-08
4.82833910837e-07
2.46796204123e-08
4.80736034362e-07
1.1729964989e-08
4.87229312162e-07
-1.71065623482e-10
4.98970474915e-07
-1.41099185079e-09
5.00313652768e-07
8.19375191787e-10
4.89948289231e-07
3.63821734948e-09
4.80948301656e-07
4.55194219425e-09
4.75322768079e-07
4.22087214653e-09
4.65631288384e-07
2.15213672002e-09
4.4756385632e-07
-4.15898159082e-09
3.87543723644e-07
-1.21496135918e-08
3.22922513508e-07
3.00741124271e-07
-1.45292737875e-08
1.5708490977e-07
4.72004843069e-07
1.36350810099e-07
4.84788411561e-07
1.23237194762e-07
5.37580439483e-07
1.07244529399e-07
5.82197526565e-07
8.74137359896e-08
5.8043927888e-07
6.85545262772e-08
5.43339281555e-07
5.37820624417e-08
5.11297809831e-07
3.97537913763e-08
4.97030671853e-07
2.27876581883e-08
4.97884631937e-07
5.49532907284e-09
5.04730450599e-07
-4.53104011945e-09
5.09237273623e-07
-6.07911426872e-09
5.0211579851e-07
-1.86365058828e-09
4.85989109217e-07
3.3809176608e-09
4.75980100527e-07
4.72971967646e-09
4.74266616071e-07
3.325905114e-09
4.67348497878e-07
1.26153003934e-09
4.49940062793e-07
-3.40231321947e-09
3.92467431733e-07
-1.05353315498e-08
3.30160364271e-07
3.03904816659e-07
-1.36869880053e-08
1.55282973301e-07
1.34497683352e-07
1.23048744617e-07
1.11315743979e-07
9.69446825775e-08
8.04615176794e-08
6.3409903255e-08
4.54330919893e-08
2.70103110359e-08
1.09673294525e-08
8.7830954446e-10
-3.0640333377e-09
-2.87051346549e-09
4.86763157943e-10
3.84208178009e-09
2.57069383442e-09
1.0310745618e-09
-4.01266623721e-09
-1.1198939273e-08
-1.47215926507e-08
6.47242570187e-10
3.04861348527e-07
1.51584922707e-10
2.90491844029e-07
-3.2466139958e-10
2.76818994045e-07
-7.97505757498e-10
2.63804981656e-07
-1.27998889045e-09
2.51416563635e-07
-1.78342721145e-09
2.39623184706e-07
-2.31764110923e-09
2.28395857975e-07
-2.89069317849e-09
2.17706645079e-07
-3.5083909745e-09
2.07528328378e-07
-4.1736980063e-09
1.97834289956e-07
-4.88642424974e-09
1.88598709686e-07
-5.64365975051e-09
1.7979727856e-07
-6.44174876748e-09
1.71408669314e-07
-7.28078232773e-09
1.6341702392e-07
-8.17238334372e-09
1.55815185922e-07
-9.14478494524e-09
1.486019625e-07
-1.02052681754e-08
1.41739432731e-07
-1.10609342483e-08
1.34911248942e-07
-9.98915093397e-09
1.26672270482e-07
1.11740531514e-07
1.01316547618e-09
3.05964046494e-07
1.22397610338e-12
2.91503785321e-07
-9.6019064825e-10
2.7778040604e-07
-1.89971713831e-09
2.64744507635e-07
-2.8380143044e-09
2.52354858059e-07
-3.78965567518e-09
2.40574825402e-07
-4.76392930798e-09
2.29370128957e-07
-5.76520808415e-09
2.18707923037e-07
-6.79354307961e-09
2.08556660953e-07
-7.84593490793e-09
1.98886680838e-07
-8.91877994709e-09
1.89671552586e-07
-1.00116809337e-08
1.80890178406e-07
-1.11325543125e-08
1.72529540708e-07
-1.23031882394e-08
1.64587656496e-07
-1.35609716142e-08
1.57072967421e-07
-1.49320125995e-08
1.49973001967e-07
-1.6230322721e-08
1.4303774139e-07
-1.63764737985e-08
1.3505739853e-07
-1.23351565064e-08
1.22630951626e-07
9.940537496e-08
1.22836411613e-09
3.07480189814e-07
-1.66146236872e-10
2.92898295663e-07
-1.47803685472e-09
2.79092293978e-07
-2.73546876887e-09
2.66001939226e-07
-3.95753100122e-09
2.53576917472e-07
-5.15574567429e-09
2.4177303958e-07
-6.33542911766e-09
2.30549809702e-07
-7.49713362785e-09
2.19869626913e-07
-8.63853621238e-09
2.09698061114e-07
-9.7567773185e-09
2.00004921181e-07
-1.08510084126e-08
1.90765781583e-07
-1.19243658775e-08
1.81963534903e-07
-1.29842314843e-08
1.73589404407e-07
-1.40382658096e-08
1.65641689614e-07
-1.50768491392e-08
1.5811154899e-07
-1.59927859436e-08
1.50888937373e-07
-1.62799923627e-08
1.43324946451e-07