/*--------------------------------*- C++ -*----------------------------------*\
| =========                 |                                                 |
| \\      /  F ield         | OpenFOAM: The Open Source CFD Toolbox           |
|  \\    /   O peration     | Version:  2312                                  |
|   \\  /    A nd           | Website:  www.openfoam.com                      |
|    \\/     M anipulation  |                                                 |
\*---------------------------------------------------------------------------*/
FoamFile
{
    version     2.0;
    format      ascii;
    arch        "LSB;label=32;scalar=64";
    class       volVectorField;
    location    "0.365/water";
    object      U.gas;
}
// * * * * * * * * * * * * * * * * * * * * * * * * * * * * * * * * * * * * * //

dimensions      [0 1 -1 0 0 0 0];

internalField   nonuniform List<vector> 
1496
(
(0.00321576422144 1.24404925485 0)
(0.0158640906501 1.30687539127 0)
(0.0314022170715 1.29162156644 0)
(0.0444036651628 1.28308403678 0)
(0.0576783663019 1.24678260506 0)
(0.0709132080032 1.18088138529 0)
(0.0846863942184 1.08830629352 0)
(0.0982417780854 0.990931137491 0)
(0.111134932012 0.905238894806 0)
(0.122900445706 0.840957143021 0)
(0.131605038572 0.796561209024 0)
(0.136539760044 0.760556607769 0)
(0.141919595419 0.726918754396 0)
(0.152127397057 0.691170293155 0)
(0.167565936745 0.648911111169 0)
(0.185805663618 0.599724567695 0)
(0.200745134504 0.549267638837 0)
(0.187943595359 0.493771353952 0)
(0.144791160083 0.428704045197 0)
(0.108262348155 0.376251223984 0)
(-0.00163478544288 1.58155385318 0)
(0.00613245569469 1.23814721518 0)
(0.0217849060877 1.22394077989 0)
(0.0351473485588 1.22094855563 0)
(0.0494632373166 1.19719912313 0)
(0.0641194390096 1.14276082265 0)
(0.0787533360268 1.06492659282 0)
(0.0925581980447 0.982888361085 0)
(0.105141111939 0.911802185952 0)
(0.115604615483 0.860610109535 0)
(0.122218819871 0.823738470612 0)
(0.126585450043 0.791797041526 0)
(0.133971219496 0.760009207097 0)
(0.147083600295 0.723302372164 0)
(0.164944031538 0.67867537639 0)
(0.184043033998 0.628723228698 0)
(0.187875040264 0.577457403949 0)
(0.15314721694 0.509670440076 0)
(0.102930227216 0.442926215609 0)
(0.0735994847775 0.393819399838 0)
(0.00660833872708 1.93101702861 0)
(0.0105708012758 1.23741268355 0)
(0.0136770715764 1.16828140404 0)
(0.0265595721919 1.16771187942 0)
(0.0415263818708 1.15231484603 0)
(0.0572433820949 1.10997782841 0)
(0.0724455470998 1.04781903203 0)
(0.0862632579531 0.982052467579 0)
(0.0983034394626 0.92677292316 0)
(0.107121849711 0.888446639265 0)
(0.112106420019 0.859128458538 0)
(0.117454517511 0.831881934973 0)
(0.127852444366 0.801772846124 0)
(0.14420183512 0.763980356197 0)
(0.164300108571 0.717974096598 0)
(0.179865073266 0.668871290569 0)
(0.157720056184 0.605747641128 0)
(0.0971430563016 0.527071371843 0)
(0.0485935256585 0.465648995509 0)
(0.0280918246965 0.415932931268 0)
(0.0196833329466 2.23842858761 0)
(0.0236828258047 1.31708464822 0)
(0.0102483754205 1.13632861112 0)
(0.0189400972248 1.12493078934 0)
(0.0336463035801 1.11601196937 0)
(0.0502179586427 1.0860294207 0)
(0.0660283847476 1.04008218356 0)
(0.080072925381 0.991565970787 0)
(0.0916003803454 0.953119658796 0)
(0.0989793666682 0.926896952117 0)
(0.103841523545 0.905407533892 0)
(0.111890032941 0.883413859415 0)
(0.126335628694 0.854937247382 0)
(0.146196015344 0.816287861912 0)
(0.167318187033 0.769965046199 0)
(0.156300005677 0.712433476608 0)
(0.0916512108441 0.630565553186 0)
(0.0227067465569 0.558582068582 0)
(-0.0147978402225 0.50219266059 0)
(-0.0318156074747 0.446298917203 0)
(0.027774876707 2.46665128188 0)
(0.0366989552472 1.43849007373 0)
(0.0141601287998 1.14082395769 0)
(0.0147214133731 1.09813334398 0)
(0.0271033555156 1.09224738995 0)
(0.0439581064694 1.07473402243 0)
(0.0607143859156 1.04542661928 0)
(0.0756999208247 1.01506757043 0)
(0.0865871815564 0.993210702189 0)
(0.0930200466767 0.97855140604 0)
(0.100343419479 0.966428663108 0)
(0.113242293297 0.950495769703 0)
(0.131953372173 0.924152991425 0)
(0.153627534252 0.884969325809 0)
(0.152369260136 0.832502549603 0)
(0.0921292694133 0.752229369362 0)
(0.00788059179843 0.671348449044 0)
(-0.0491332464331 0.613082404665 0)
(-0.0841383535645 0.554378525175 0)
(-0.10949981317 0.489914597183 0)
(0.0371640819956 2.56215986661 0)
(0.0613235426732 1.55156652833 0)
(0.0382535916519 1.18396116853 0)
(0.0269565582104 1.0978324422 0)
(0.031728810558 1.08940645734 0)
(0.0464356443812 1.0826236843 0)
(0.0634345010782 1.06932224629 0)
(0.0773772398839 1.05659506659 0)
(0.0866803123936 1.04999902801 0)
(0.0951695436349 1.0492020553 0)
(0.10785488011 1.04963345925 0)
(0.125882349557 1.04223094593 0)
(0.146628190608 1.02044673315 0)
(0.152846001152 0.976778896149 0)
(0.101291943494 0.897136000951 0)
(0.00859341211055 0.805771954852 0)
(-0.0634011682906 0.737377727728 0)
(-0.112365570949 0.682433635186 0)
(-0.155025875609 0.61885058915 0)
(-0.194546127464 0.54907213041 0)
(0.0430541174666 2.48682118421 0)
(0.085882519662 1.61505284024 0)
(0.0761802066186 1.24386256147 0)
(0.0623704702196 1.12800895531 0)
(0.0600790144312 1.11331633095 0)
(0.0687752075207 1.11373201098 0)
(0.0819674365594 1.11407502876 0)
(0.0936365308318 1.1180992118 0)
(0.104601279407 1.13016486565 0)
(0.11886635396 1.1510554326 0)
(0.13774460153 1.17164587755 0)
(0.158375112733 1.18025311169 0)
(0.163859688927 1.16257854079 0)
(0.113447624349 1.08800694512 0)
(0.0151544664206 0.971680784296 0)
(-0.0670869917857 0.877728592355 0)
(-0.119931580105 0.808531357734 0)
(-0.16438555996 0.750885148367 0)
(-0.210439291853 0.685754739731 0)
(-0.261542390553 0.617240344476 0)
(0.0482418015933 2.27355021412 0)
(0.110497315302 1.59943176091 0)
(0.122429157866 1.28908292249 0)
(0.120219727809 1.17646332367 0)
(0.120744535026 1.15787619564 0)
(0.126352520121 1.16250384154 0)
(0.138618666727 1.17540240519 0)
(0.154569886286 1.19976535306 0)
(0.174563490375 1.24188878558 0)
(0.196825465969 1.29654807477 0)
(0.21218545788 1.34074836165 0)
(0.195970519508 1.35744735459 0)
(0.119295306787 1.32969292821 0)
(0.00313343116965 1.21552855529 0)
(-0.0894192494791 1.05850032554 0)
(-0.140969141291 0.942128496769 0)
(-0.175078259501 0.860430108804 0)
(-0.203601226509 0.797523236168 0)
(-0.236012212696 0.735224249753 0)
(-0.28293194873 0.673518811704 0)
(0.0519736996543 1.94195031936 0)
(0.136308973335 1.51671511854 0)
(0.178816066117 1.310964136 0)
(0.199003321493 1.22773053308 0)
(0.214615710261 1.20997150789 0)
(0.231113803929 1.2176153639 0)
(0.257738933265 1.24456421054 0)
(0.291127902282 1.29496874476 0)
(0.310567318425 1.36458591858 0)
(0.288221122623 1.42954753537 0)
(0.220385814706 1.47914948496 0)
(0.117781193534 1.50611072537 0)
(-0.000270363941343 1.48501045932 0)
(-0.103316925236 1.34902679271 0)
(-0.169890656672 1.1348089447 0)
(-0.204888311878 0.980306169118 0)
(-0.222771582294 0.879141629686 0)
(-0.232014997186 0.80946402124 0)
(-0.241614859847 0.75166915727 0)
(-0.261626887137 0.699817771521 0)
(0.0520400375251 1.6356785217 0)
(0.1611105468 1.43331043012 0)
(0.238142757914 1.32574538309 0)
(0.277621123781 1.27402453031 0)
(0.313222998613 1.25931686011 0)
(0.353838858738 1.27260314387 0)
(0.390885754488 1.31132066798 0)
(0.371250918334 1.36427513491 0)
(0.28098720704 1.44009718329 0)
(0.174391514035 1.51504665914 0)
(0.08500144634 1.57455471768 0)
(0.0099901910446 1.6159211008 0)
(-0.0511945997959 1.60439334106 0)
(-0.104419853069 1.46370001637 0)
(-0.159164190963 1.20331134985 0)
(-0.20568824641 1.00193178711 0)
(-0.228409706462 0.872721756131 0)
(-0.231831497135 0.794092452007 0)
(-0.228814869928 0.738873706051 0)
(-0.228399532769 0.696427802191 0)
(0.0559848999753 1.51090393696 0)
(0.188950698576 1.4082787303 0)
(0.285907337634 1.35616353705 0)
(0.331051537678 1.3204823487 0)
(0.381618724196 1.30995088216 0)
(0.396814267471 1.32506284612 0)
(0.322158203638 1.36412347706 0)
(0.196011647306 1.43198316343 0)
(0.0982251376499 1.52050620234 0)
(0.0400683616944 1.60338994972 0)
(0.00324635473308 1.66280064822 0)
(-0.0208619939646 1.69120963677 0)
(-0.0368188733877 1.66372845983 0)
(-0.0527342023866 1.53128456486 0)
(-0.0878082706821 1.28270829374 0)
(-0.138051180025 1.03600698076 0)
(-0.174270346207 0.864220743553 0)
(-0.188654990938 0.772088350154 0)
(-0.189184135386 0.714850013548 0)
(-0.184457440602 0.67659180492 0)
(0.0814282640864 1.53982897114 0)
(0.221309162189 1.48551454183 0)
(0.295042639466 1.43144000717 0)
(0.317675143334 1.39138063721 0)
(0.295979448974 1.38391878713 0)
(0.205716643295 1.40988671695 0)
(0.0945974506031 1.46445575792 0)
(0.0188782376092 1.54901947993 0)
(-0.0190833847001 1.62023061497 0)
(-0.0388457104332 1.66772590232 0)
(-0.0504266725724 1.69465097236 0)
(-0.0549143725795 1.6956318746 0)
(-0.0533487491325 1.6527187202 0)
(-0.0515321921056 1.53148527433 0)
(-0.0575609769848 1.32653835393 0)
(-0.0769653837445 1.07469489836 0)
(-0.102142128151 0.869553755482 0)
(-0.121173337892 0.762713356144 0)
(-0.131265043327 0.698543237834 0)
(-0.133205933987 0.657868604714 0)
(0.102939906155 1.69213396288 0)
(0.184547218723 1.71199747354 0)
(0.136413134655 1.60465210926 0)
(0.0761092267479 1.54430977776 0)
(0.00381060635671 1.53701649884 0)
(-0.0679468670675 1.57115452418 0)
(-0.119747962771 1.62231241091 0)
(-0.147800437177 1.66326092999 0)
(-0.161289150311 1.67299437809 0)
(-0.164905641536 1.67080702808 0)
(-0.158595454608 1.65858743514 0)
(-0.142293888715 1.63002473147 0)
(-0.118390784956 1.57127332575 0)
(-0.0921694878984 1.46189138624 0)
(-0.0694927864837 1.2915640015 0)
(-0.0564961973436 1.0777646346 0)
(-0.0582714050913 0.881110970102 0)
(-0.0700215616015 0.768600594455 0)
(-0.0817279187103 0.696857990398 0)
(-0.0889609806024 0.649460923455 0)
(0.0636115346371 1.87046279385 0)
(0.0146825265118 2.15336109537 0)
(-0.145272426518 1.87464458784 0)
(-0.232345083625 1.76442668303 0)
(-0.294726895016 1.73340139469 0)
(-0.329429436111 1.74388507211 0)
(-0.347284174437 1.75024665284 0)
(-0.353173645441 1.73212593385 0)
(-0.348193881924 1.69113566694 0)
(-0.331445414084 1.63962716798 0)
(-0.301436071475 1.58354238981 0)
(-0.260644782854 1.52237647764 0)
(-0.213079164119 1.44779784415 0)
(-0.163107000257 1.34618096187 0)
(-0.116089927276 1.20671075739 0)
(-0.0796978656041 1.03843317605 0)
(-0.061829420523 0.8781524441 0)
(-0.0594032011363 0.773572060892 0)
(-0.0628915073034 0.699953623239 0)
(-0.0669539672262 0.646804557015 0)
(0.0130529745998 1.96109457819 0)
(-0.0158963645397 2.52514416955 0)
(-0.118115978275 2.22661706413 0)
(-0.240385235316 2.06226031571 0)
(-0.34233951465 1.91732302467 0)
(-0.400542619354 1.83924131545 0)
(-0.427755417041 1.80040806571 0)
(-0.440438193765 1.74715560419 0)
(-0.44137260115 1.6725347532 0)
(-0.426873779038 1.5834705473 0)
(-0.394667515026 1.49141254147 0)
(-0.347283249343 1.40288269842 0)
(-0.290250270649 1.31538337331 0)
(-0.230219767347 1.21893349468 0)
(-0.174506627154 1.10362120756 0)
(-0.129914890095 0.972705380769 0)
(-0.100532317576 0.848999451491 0)
(-0.0839078020255 0.760295118743 0)
(-0.074590266472 0.692176307445 0)
(-0.0691481081666 0.638385449451 0)
(0.0125024762584 1.90967291271 0)
(0.0311027316546 2.57628607022 0)
(0.0258684004082 2.45118373192 0)
(-0.0032127878992 2.28274225464 0)
(-0.0505470800313 2.0835170922 0)
(-0.115070535503 1.94211719191 0)
(-0.183361521934 1.85997971688 0)
(-0.246488565234 1.77281768941 0)
(-0.29676840485 1.64778993182 0)
(-0.329701416455 1.52003020026 0)
(-0.344363616023 1.40037728791 0)
(-0.335643631407 1.28690701512 0)
(-0.30299753581 1.18399075655 0)
(-0.256176828601 1.08968722098 0)
(-0.208528290226 0.991788842377 0)
(-0.168362139561 0.889197608361 0)
(-0.137591109663 0.794845570137 0)
(-0.114216510517 0.723805914019 0)
(-0.0958508391593 0.66617086267 0)
(-0.0814487777187 0.6169057513 0)
(0.020640888935 1.73027116217 0)
(0.0584333290627 2.45255106957 0)
(0.0803280115792 2.44134051543 0)
(0.0846292291868 2.30764913566 0)
(0.0780353986062 2.16036658445 0)
(0.0607868465502 2.0349732484 0)
(0.035376235534 1.93556160318 0)
(0.00286304360133 1.82952813924 0)
(-0.0415029703142 1.68471504815 0)
(-0.0982453749297 1.53339949953 0)
(-0.155933072751 1.37346910977 0)
(-0.200206411212 1.21466383259 0)
(-0.2201454729 1.08044582632 0)
(-0.213409811138 0.976925461097 0)
(-0.190420085614 0.886870397718 0)
(-0.16434749413 0.803043507898 0)
(-0.140981884661 0.729367098524 0)
(-0.120427056825 0.672892086911 0)
(-0.101599873784 0.62679210576 0)
(-0.0845405005593 0.584782682843 0)
(0.016671555814 1.52859573698 0)
(0.0482514164779 2.27345862393 0)
(0.0725342044815 2.35134141562 0)
(0.0885104475606 2.25811908363 0)
(0.0987189977899 2.14216724099 0)
(0.102508479708 2.04057097167 0)
(0.0999557506637 1.95400441208 0)
(0.0911588175912 1.86249894064 0)
(0.0745157590969 1.74747495784 0)
(0.048361424374 1.60611682538 0)
(0.00953029802152 1.43390032538 0)
(-0.0436568554242 1.24902718921 0)
(-0.0932858787199 1.05369452622 0)
(-0.119878787519 0.914001092089 0)
(-0.125192213916 0.815571339632 0)
(-0.118680343344 0.737454754001 0)
(-0.107819845738 0.673539933989 0)
(-0.0955100631192 0.62468059169 0)
(-0.0823675364978 0.586652114447 0)
(-0.0689681904935 0.551209726863 0)
(0.0109351546908 1.37814213577 0)
(0.0322911736626 2.11613912806 0)
(0.0508577647396 2.24064511278 0)
(0.0663634938168 2.17648601682 0)
(0.0793496900769 2.08842980174 0)
(0.0884919437586 2.01337145288 0)
(0.0935988346693 1.94693584468 0)
(0.0948937140081 1.87376513102 0)
(0.0918432899215 1.77927295984 0)
(0.0832262833762 1.65681072773 0)
(0.0678916091482 1.50722259767 0)
(0.0444878639449 1.33481031122 0)
(0.00510910761079 1.12532846072 0)
(-0.0318265404689 0.912057842359 0)
(-0.0482503000023 0.788820803965 0)
(-0.0545214199262 0.703943622853 0)
(-0.055111285816 0.639935245093 0)
(-0.0522612437397 0.592058151767 0)
(-0.0466890679122 0.556687164004 0)
(-0.0392759575118 0.525003667474 0)
(0.0060867904856 1.29078383691 0)
(0.0182049902711 2.00602242198 0)
(0.0302832802517 2.14630170714 0)
(0.0430313336221 2.09543053174 0)
(0.0550673174454 2.0291476851 0)
(0.0640502647119 1.97631089478 0)
(0.0699604393668 1.92808557615 0)
(0.0735397793597 1.86975891119 0)
(0.0753640873743 1.78994784569 0)
(0.0749427317415 1.68323358128 0)
(0.0706365177722 1.54967047739 0)
(0.060358825826 1.39321302731 0)
(0.0429361070772 1.21656574833 0)
(0.0238396832614 0.947447570549 0)
(0.010143362845 0.796901583254 0)
(0.00200154729497 0.699513448125 0)
(-0.00266952389095 0.62963654696 0)
(-0.00503922476475 0.578352922884 0)
(-0.00534309877039 0.541300318738 0)
(-0.00379091210163 0.510319051947 0)
(0.00331562089728 1.25024998882 0)
(0.00955846345111 1.94165950496 0)
(0.0168920377623 2.07630925093 0)
(0.0266502971716 2.02800664401 0)
(0.0360720240979 1.97916076268 0)
(0.0428424543289 1.94448510457 0)
(0.0471721415703 1.91061465242 0)
(0.0501048021874 1.86165616177 0)
(0.0531850634558 1.78781436128 0)
(0.0570185676339 1.6884166571 0)
(0.0602972273455 1.56609393635 0)
(0.0609377809941 1.42349181216 0)
(0.058424475529 1.25664937237 0)
(0.0533361879628 0.980788726163 0)
(0.047187391231 0.817823176902 0)
(0.0419353198127 0.711479992673 0)
(0.0380624106138 0.635622800328 0)
(0.0350989270062 0.57987343607 0)
(0.0325661344181 0.539403511586 0)
(0.0304780289629 0.506923518336 0)
(0.0018405019494 1.23556263945 0)
(0.00563142535257 1.90571713495 0)
(0.0114589516629 2.02481205708 0)
(0.019395804029 1.97690168095 0)
(0.0262720224832 1.9425220512 0)
(0.0306842602991 1.9225505964 0)
(0.0328005560855 1.90033535282 0)
(0.0333567434861 1.85771665677 0)
(0.0340059946449 1.78461031 0)
(0.0365366444067 1.68489993474 0)
(0.0409957045444 1.56642506616 0)
(0.0453674850066 1.43142678513 0)
(0.0577793281518 1.23911133291 0)
(0.0697992259006 0.993050394128 0)
(0.0705981896747 0.834907547278 0)
(0.0690630472312 0.726669593921 0)
(0.0674443301823 0.648060547664 0)
(0.065825947492 0.589602102352 0)
(0.0634080196219 0.546532928056 0)
(0.0598881836534 0.51193214011 0)
(0.00204725816702 1.2279120649 0)
(0.00688092478716 1.87624888508 0)
(0.0138075888458 1.98054576686 0)
(0.0213900529505 1.93685351245 0)
(0.0271867308516 1.91458358958 0)
(0.0308521156068 1.90651118792 0)
(0.0324381305942 1.89425689839 0)
(0.0321829721665 1.85763480171 0)
(0.0311610058292 1.78453673042 0)
(0.0317257975135 1.6801766699 0)
(0.0364600121544 1.55757800458 0)
(0.0476935117869 1.41747566657 0)
(0.0654695783524 1.19032122777 0)
(0.079950849945 0.989361126252 0)
(0.0858011934418 0.844446236974 0)
(0.0881369237353 0.739715178812 0)
(0.0894560798519 0.661792939843 0)
(0.0900271401102 0.603089939095 0)
(0.0885759130412 0.559060871401 0)
(0.0844329820576 0.522473717069 0)
(0.00272633772951 1.21402285327 0)
(0.0101027055754 1.83607250195 0)
(0.0198498257298 1.93271434255 0)
(0.0287306373941 1.89876161649 0)
(0.0353644214294 1.88689898034 0)
(0.0401861092764 1.88846146786 0)
(0.0432272929066 1.88469739507 0)
(0.0443758540265 1.85454315319 0)
(0.0440198061297 1.78297248158 0)
(0.0438543832386 1.67348715441 0)
(0.0470787627085 1.54096129537 0)
(0.0598028036397 1.37749183743 0)
(0.0768633639459 1.15600945151 0)
(0.0891999821043 0.981236632817 0)
(0.0975046827457 0.849471535577 0)
(0.103231188072 0.750825728085 0)
(0.107730471304 0.676095077447 0)
(0.110455011584 0.619227616349 0)
(0.109452916808 0.575048685811 0)
(0.104424453642 0.53655982677 0)
(0.00401376066399 1.18642447192 0)
(0.0142709515635 1.77755277806 0)
(0.0267128246391 1.87392542342 0)
(0.0375569841571 1.8544067143 0)
(0.0460343699258 1.85234775813 0)
(0.0529309516595 1.86226790933 0)
(0.0583434445689 1.8658480496 0)
(0.0621018505646 1.84264196594 0)
(0.0642456554856 1.77465118408 0)
(0.0659274944918 1.66256337328 0)
(0.0696848588671 1.52068155548 0)
(0.078596916015 1.33717858719 0)
(0.0901866550883 1.13617612032 0)
(0.100569253224 0.975241976391 0)
(0.109695840367 0.85347739402 0)
(0.117769557772 0.761293240682 0)
(0.124620931895 0.691117603919 0)
(0.128096726287 0.637077162712 0)
(0.126269614632 0.592465737738 0)
(0.120124204547 0.55239727691 0)
(0.00490567387788 1.14469130949 0)
(0.0172032526602 1.70154075958 0)
(0.0317664044021 1.8020565763 0)
(0.0445303386074 1.79993965333 0)
(0.0549063207413 1.80816674501 0)
(0.0637248820856 1.82620455022 0)
(0.0712297104032 1.83635944946 0)
(0.0774198594385 1.82005003767 0)
(0.0821819731431 1.75709683439 0)
(0.0862888401142 1.64500716805 0)
(0.0914910613009 1.49746371043 0)
(0.0982909774419 1.31244759754 0)
(0.106122519738 1.12375203358 0)
(0.114786780097 0.97226034674 0)
(0.123994442422 0.857934050316 0)
(0.133292779494 0.771736489873 0)
(0.140767516123 0.706552673805 0)
(0.143160376149 0.654764442615 0)
(0.139885325583 0.609647761083 0)
(0.132856865335 0.568734765948 0)
(0.00541047666374 1.09348247155 0)
(0.0188408316271 1.6129446514 0)
(0.0345241693965 1.71960117788 0)
(0.0484055332312 1.73620230449 0)
(0.0598676936315 1.75619134071 0)
(0.0695934229484 1.78280463021 0)
(0.0781449251908 1.79898181887 0)
(0.0858158166965 1.7888330001 0)
(0.0924780137875 1.73146798163 0)
(0.0985635471371 1.62135040069 0)
(0.105412812294 1.47192403246 0)
(0.113354172119 1.29374260791 0)
(0.121531549794 1.11485964351 0)
(0.130096767808 0.971368566812 0)
(0.139678718952 0.863233655799 0)
(0.149445814566 0.782589256733 0)
(0.156012664629 0.72188172748 0)
(0.156533437336 0.67135856264 0)
(0.152165511577 0.626380077418 0)
(0.144487925476 0.585389292758 0)
(0.00519214423804 1.04047010392 0)
(0.0185994530055 1.51854030455 0)
(0.03446899106 1.63202180978 0)
(0.0485427966606 1.66724051533 0)
(0.0601203611169 1.7010801438 0)
(0.0696882447499 1.73680386014 0)
(0.0783042095067 1.75819848418 0)
(0.0866200763854 1.75256971709 0)
(0.0947530289495 1.69961829582 0)
(0.103079128927 1.59174698572 0)
(0.112645998861 1.44223535197 0)
(0.12356802525 1.27153272046 0)
(0.134219160133 1.10558723456 0)
(0.144402892451 0.971134805882 0)
(0.155197096325 0.869371636509 0)
(0.165198413323 0.794314354385 0)
(0.170464977755 0.736978980218 0)
(0.169611414253 0.687562079036 0)
(0.16463283278 0.643342588515 0)
(0.156235765563 0.602830156168 0)
(0.00444220068468 0.991499745077 0)
(0.0165083014107 1.42587921375 0)
(0.0312217140882 1.5458918772 0)
(0.0444244026219 1.5986506185 0)
(0.0551995700464 1.64807034981 0)
(0.0638524247989 1.69298375115 0)
(0.0718684854731 1.71829052098 0)
(0.0802544795345 1.71469607728 0)
(0.0896669553381 1.66295292651 0)
(0.100735747662 1.55539996236 0)
(0.114503795022 1.40461793341 0)
(0.129902092384 1.24354657914 0)
(0.144070130606 1.09391968553 0)
(0.157064718589 0.970524873777 0)
(0.169968533935 0.876303352247 0)
(0.180485849067 0.807140360896 0)
(0.184813138019 0.752350417549 0)
(0.183202954239 0.704249077833 0)
(0.177819156618 0.661112554569 0)
(0.168666104834 0.621449007985 0)
(0.0038294780229 0.950575282361 0)
(0.0131879567734 1.34626388762 0)
(0.0245609492437 1.4693751136 0)
(0.0358542914095 1.53671205274 0)
(0.0453600371772 1.60167781423 0)
(0.0530011507931 1.65478849269 0)
(0.0604472685195 1.68222421795 0)
(0.0689427094151 1.67775412642 0)
(0.0796558116736 1.62314726932 0)
(0.0934637911326 1.51301922648 0)
(0.113390535468 1.35107185552 0)
(0.134955318021 1.21154618549 0)
(0.152609261097 1.0800542697 0)
(0.169075778024 0.969472061882 0)
(0.184665936799 0.884355512026 0)
(0.195787580045 0.821009654851 0)
(0.199403358016 0.768320379353 0)
(0.197437475298 0.721645181497 0)
(0.191839826009 0.679730131284 0)
(0.182215349479 0.641151765824 0)
(0.00357338127118 0.929429847298 0)
(0.00833424351257 1.30011001859 0)
(0.0139156061641 1.41134013977 0)
(0.0231817769182 1.48637888426 0)
(0.0319099916114 1.56398427537 0)
(0.0396266562296 1.62222012054 0)
(0.0480696090353 1.64882609177 0)
(0.0587790170159 1.63930992439 0)
(0.0736077040707 1.57653949432 0)
(0.0954466865841 1.45422663428 0)
(0.119622566213 1.29619887853 0)
(0.141273816898 1.1800038202 0)
(0.162021165791 1.06599935989 0)
(0.182247408362 0.969199015817 0)
(0.200336524831 0.894256736648 0)
(0.211256227056 0.835628944155 0)
(0.213974381523 0.78461753847 0)
(0.212054182139 0.739310578949 0)
(0.206735720519 0.698531805085 0)
(0.19750290251 0.661047186404 0)
(3.32599607294e-05 1.00609769219 0)
(-0.00426942330545 1.31660072985 0)
(-0.00523293948764 1.37682881314 0)
(0.00273812051813 1.4499199748 0)
(0.011936171914 1.53368849067 0)
(0.0215756126305 1.59264711095 0)
(0.0327957639756 1.61441630723 0)
(0.0474355544416 1.59452205419 0)
(0.0693229868822 1.51181380612 0)
(0.098965306493 1.37627672403 0)
(0.126640518284 1.25576768859 0)
(0.149950402017 1.15295643435 0)
(0.173987763609 1.05481823679 0)
(0.197788127841 0.972068933498 0)
(0.216479248555 0.906192876135 0)
(0.225439140285 0.850355977117 0)
(0.22739767792 0.80060079263 0)
(0.226183500705 0.756159480923 0)
(0.221946110729 0.715893043557 0)
(0.214670929382 0.679014205274 0)
(-0.0387557970392 1.42775697994 0)
(-0.0698969920564 1.33735767142 0)
(-0.0550342732104 1.34535580306 0)
(-0.0387578019959 1.40815061901 0)
(-0.0201507667372 1.49285091894 0)
(-0.00141039138101 1.55448421845 0)
(0.0194692988628 1.56342621252 0)
(0.0480151521355 1.52014731424 0)
(0.0819275810453 1.42884467676 0)
(0.110798056978 1.31659580011 0)
(0.13524604939 1.22422424637 0)
(0.161494516043 1.13341954706 0)
(0.189132139106 1.05023375891 0)
(0.214065260314 0.979767603103 0)
(0.229427875229 0.91928409706 0)
(0.235426655553 0.864695990337 0)
(0.237356676746 0.815412741077 0)
(0.237122591845 0.770569361042 0)
(0.23495128924 0.729348446884 0)
(0.231874820233 0.691700909802 0)
(-0.0258864648439 2.01980719156 0)
(-0.0524075532396 1.36359241618 0)
(-0.0491043124307 1.32002164193 0)
(-0.0383666395197 1.36638783089 0)
(-0.0210249863534 1.44133164835 0)
(0.00412394862582 1.49287857086 0)
(0.0344413699103 1.49059280814 0)
(0.0643313115809 1.44068847072 0)
(0.0915352986014 1.36496726065 0)
(0.118073820864 1.28426608525 0)
(0.146059103558 1.20259111948 0)
(0.176024216995 1.12493716028 0)
(0.204820497923 1.05469519185 0)
(0.224819204337 0.991684770876 0)
(0.23402278031 0.933201126613 0)
(0.23795656281 0.878907325847 0)
(0.239771922405 0.82832425991 0)
(0.239868869408 0.780782407753 0)
(0.239920312075 0.736517343618 0)
(0.243123029805 0.696375706063 0)
(0.00536493950001 2.37581032039 0)
(-0.00445773205803 1.47826874636 0)
(-0.0232236372047 1.3368512737 0)
(-0.0234943121261 1.3506754491 0)
(-0.0108410740875 1.40434093079 0)
(0.0116210829342 1.43531325839 0)
(0.0391183165365 1.42972843779 0)
(0.0682836869947 1.39243146045 0)
(0.097884275268 1.33274947476 0)
(0.128189598083 1.26435626925 0)
(0.159978982251 1.19578129117 0)
(0.19043812442 1.12983263017 0)
(0.212285286028 1.06737454992 0)
(0.222960828427 1.00725627251 0)
(0.2276228844 0.949231000907 0)
(0.229288833604 0.892703983135 0)
(0.228015094187 0.837628722529 0)
(0.226665995566 0.785513347905 0)
(0.230040483442 0.737562730807 0)
(0.239598523087 0.693168904514 0)
(0.0367370067247 2.49118990541 0)
(0.0564763909038 1.64136052338 0)
(0.0254417526168 1.40820141406 0)
(0.00643707358967 1.37322479987 0)
(0.00572533928884 1.39795465335 0)
(0.0213590182149 1.41147993062 0)
(0.0472427019165 1.4009691517 0)
(0.0773877064608 1.36755740792 0)
(0.109167738268 1.31899590184 0)
(0.141506917903 1.26259857382 0)
(0.171110580965 1.2040672775 0)
(0.192037457192 1.14456306283 0)
(0.202864871535 1.0850198115 0)
(0.207209357173 1.02536905085 0)
(0.206163040321 0.964407732587 0)
(0.200316905709 0.901308319363 0)
(0.194812651429 0.840878911012 0)
(0.19559213633 0.785738164425 0)
(0.203338000283 0.734431619671 0)
(0.214403231541 0.683423670488 0)
(0.0486714573235 2.50288844231 0)
(0.0893380037895 1.75944276334 0)
(0.0660193111717 1.49948840496 0)
(0.042607970832 1.42560470107 0)
(0.0346475171736 1.41800246095 0)
(0.0425785851667 1.41158235489 0)
(0.0625507967864 1.39310842814 0)
(0.0887602969282 1.36018731505 0)
(0.11688834938 1.3182835903 0)
(0.142663322463 1.26881427019 0)
(0.16196182307 1.21452860443 0)
(0.173754627668 1.15738763846 0)
(0.178480618706 1.09851281265 0)
(0.17583122158 1.0376990409 0)
(0.16734048318 0.97265661659 0)
(0.158483930275 0.903967465303 0)
(0.155017199473 0.840919543532 0)
(0.157636265959 0.784104882878 0)
(0.162730507272 0.728866894431 0)
(0.165442954328 0.670973298425 0)
(0.0910966310078 0.265392813479 0)
(0.0934224360382 0.277488240815 0)
(0.0860193496004 0.314121615764 0)
(0.056784552114 0.375851095098 0)
(-0.00446055769529 0.659865926598 0)
(-0.148277005294 1.46764869965 0)
(-0.215897135388 2.62729868595 0)
(-0.140428223844 3.01493678598 0)
(-0.0802980680239 3.27415362149 0)
(-0.261652005793 2.50508245599 0)
(-0.360096694509 0.572912102906 0)
(-0.14679901444 0.457854331143 0)
(0.015442372133 0.377283158834 0)
(0.0472427075455 0.338732990957 0)
(0.00785379039667 0.273139423177 0)
(-0.00524264516085 0.0414823349532 0)
(0.0909074520413 0.338447016603 0)
(0.0845224966973 0.30840592538 0)
(0.0867469534118 0.287597208589 0)
(0.0944663274816 0.276561994057 0)
(0.0933799706423 0.276182452362 0)
(0.0597296709319 0.278879728761 0)
(-0.00603222123882 0.339398764252 0)
(-0.119516105953 0.542931298625 0)
(-0.262655337162 0.878253663183 0)
(-0.306279113054 1.63714258633 0)
(-0.239185188439 2.26447175771 0)
(-0.141213442115 2.61504971798 0)
(-0.0365151036883 2.89608423408 0)
(-0.0649202211144 2.26598870861 0)
(-0.211494542173 0.596063109339 0)
(-0.180594071836 0.525551448228 0)
(-0.0103726853666 0.42238170111 0)
(0.0286025079469 0.339609227124 0)
(-0.0204229432657 0.283231521676 0)
(-0.0186991069172 -0.114168139809 0)
(0.0638024243954 0.353045565889 0)
(0.0656233078009 0.320684350597 0)
(0.0720775520771 0.299931198531 0)
(0.0581641952267 0.290600246987 0)
(0.00509978945281 0.288491169832 0)
(-0.0731567345579 0.328857498954 0)
(-0.162428959253 0.45957136651 0)
(-0.221891602086 0.720702005942 0)
(-0.232228742237 0.992347154014 0)
(-0.215182727764 1.38772547477 0)
(-0.155722502128 1.84946986954 0)
(-0.0550952744413 2.1253573981 0)
(0.0630377689303 2.38320232427 0)
(0.160754991906 1.94166518693 0)
(0.110408349729 0.841284444855 0)
(-0.00334146666678 0.644777836754 0)
(-0.0249676588185 0.469917133864 0)
(-0.0222855161898 0.3093715701 0)
(-0.0302234772512 0.205798700141 0)
(-0.0173083268634 -0.176878217322 0)
(0.0237868276798 0.370094805136 0)
(0.0235439814554 0.336336977803 0)
(0.00211220674366 0.316912208518 0)
(-0.0513337858533 0.314958687399 0)
(-0.116623592441 0.333895997772 0)
(-0.174056578447 0.429494715657 0)
(-0.207106286714 0.573062749803 0)
(-0.215608164679 0.720365338552 0)
(-0.207987193591 0.91227708797 0)
(-0.173362042229 1.19103626897 0)
(-0.108367504697 1.48585200207 0)
(-0.0261368675971 1.68956725168 0)
(0.064666283045 1.90413133998 0)
(0.139181709004 1.62177476292 0)
(0.16033093642 1.0397946723 0)
(0.13103134406 0.720597773212 0)
(0.0852626923406 0.524800792632 0)
(0.0458538209213 0.354976041709 0)
(-0.00763263482789 0.201188328478 0)
(-0.0220535192649 -0.150372643774 0)
(-0.042093926274 0.396128682146 0)
(-0.0636864706434 0.360084444164 0)
(-0.105430685308 0.345486994342 0)
(-0.15420995567 0.361326292942 0)
(-0.196118275076 0.412711133515 0)
(-0.221551122248 0.498172931649 0)
(-0.229458044017 0.588662008648 0)
(-0.22473341216 0.696763484558 0)
(-0.206384425845 0.833333863605 0)
(-0.172742826117 1.01315531337 0)
(-0.121356483203 1.21236723093 0)
(-0.0575263160751 1.36733945367 0)
(0.0149749294551 1.53372887229 0)
(0.0791579574694 1.37768129063 0)
(0.105656904504 1.01219363538 0)
(0.0961449325399 0.77487352003 0)
(0.0698489619823 0.615218203763 0)
(0.0404113608576 0.484873575368 0)
(-0.00614574548259 0.322432335884 0)
(-0.0193858170502 -0.0696070325792 0)
(-0.135243580466 0.435759760902 0)
(-0.168166245368 0.397118521879 0)
(-0.202762498904 0.388889849969 0)
(-0.229989241982 0.418409249593 0)
(-0.247352645835 0.474811255439 0)
(-0.256804281414 0.531010907063 0)
(-0.256972378763 0.592574036146 0)
(-0.246796060225 0.664591773215 0)
(-0.227559370633 0.759852440399 0)
(-0.198288156701 0.883481066421 0)
(-0.158115182401 1.01889576175 0)
(-0.109536994387 1.13638762436 0)
(-0.0519690966727 1.24825140568 0)
(0.00316230784905 1.17150766191 0)
(0.0346793139809 0.961584520295 0)
(0.0413027919974 0.810852963304 0)