/*--------------------------------*- C++ -*----------------------------------*\
| =========                 |                                                 |
| \\      /  F ield         | OpenFOAM: The Open Source CFD Toolbox           |
|  \\    /   O peration     | Version:  2312                                  |
|   \\  /    A nd           | Website:  www.openfoam.com                      |
|    \\/     M anipulation  |                                                 |
\*---------------------------------------------------------------------------*/
FoamFile
{
    version     2.0;
    format      ascii;
    arch        "LSB;label=32;scalar=64";
    class       volScalarField;
    location    "0.01/water";
    object      epsilon.gas;
}
// * * * * * * * * * * * * * * * * * * * * * * * * * * * * * * * * * * * * * //

dimensions      [0 2 -3 0 0 0 0];

internalField   nonuniform List<scalar> 
1504
(
2253.56633128
299.482344398
46.6796477482
10.3868135012
2.99881314346
1.27019684718
1.15114960539
1.15251137091
1.03839024764
0.904091012727
0.780400218947
0.673429143021
0.581084549648
0.501921665735
0.438235049529
0.390794671785
0.352303305177
0.312718318711
0.276168604057
0.252795108495
2428.0555529
318.295151784
48.5868369851
10.6421129184
3.04216905837
1.28215503547
1.16599408751
1.16081887575
1.04569683477
0.912035557103
0.78828612504
0.681298052725
0.588335777507
0.507920763811
0.443299289633
0.395268796933
0.356406877702
0.316649845526
0.279911383395
0.256801013225
2609.85699155
334.080856863
49.9223820131
10.8160548213
3.08430526136
1.30012805304
1.18244547778
1.16520896102
1.04499720172
0.913186246621
0.792147591779
0.686265833596
0.593615254837
0.513694129578
0.448703217978
0.399930182816
0.36045746268
0.320416596747
0.283529936842
0.260719041994
2861.08607075
355.537613967
51.8810729311
11.0784391802
3.14803897588
1.3256100482
1.19912430367
1.17480586169
1.04846148838
0.91307284471
0.791658047482
0.687348796282
0.596721500685
0.517743573771
0.452983067535
0.404039939709
0.364342541383
0.324136033699
0.287038879712
0.264441684865
3083.48689725
380.026435835
54.7467696827
11.4796135185
3.22867726411
1.35213774321
1.21690155789
1.18664001047
1.05785995217
0.92013159786
0.796216125708
0.690412453216
0.599435583099
0.520759181961
0.456172492181
0.407162021557
0.367519105037
0.327478918324
0.290269399191
0.267894951449
3291.23226937
401.448572325
56.9683854439
11.7835129849
3.28254466755
1.37049652798
1.23509297925
1.19806683239
1.06809724269
0.929472518444
0.803874729634
0.696217956754
0.603845674852
0.52416586997
0.459015474029
0.409828491986
0.370184386287
0.330215925603
0.293058193447
0.270953851768
3493.9960921
419.663786856
58.5021217216
11.9627272719
3.30888719936
1.38287545964
1.25120774352
1.20517607311
1.07403003299
0.935591942577
0.809664803403
0.701734855858
0.60860659867
0.527813900093
0.461917585728
0.412326702239
0.372475933125
0.332504160223
0.295373361756
0.273590166504
3722.61846584
435.757721963
59.4879241837
12.0518813875
3.33026548072
1.39777080324
1.26669328979
1.20470274358
1.06994939257
0.934121167883
0.810814924807
0.703893332144
0.611104539253
0.530865513302
0.464765183491
0.414687983513
0.374473751766
0.334419803305
0.297337004409
0.276154113145
4041.94300555
455.454376909
60.5937996238
12.148117545
3.36041946403
1.41486231506
1.2782139511
1.20570790589
1.06417078484
0.926642977247
0.805125926375
0.700911856645
0.610614576087
0.531742576225
0.466333870673
0.416399778419
0.376122474419
0.336074244314
0.299007646925
0.278418919902
4404.88138348
483.45972134
62.8777688795
12.3851896082
3.40549833325
1.43175891196
1.28682580822
1.20608586465
1.06299876231
0.923939219637
0.801342541471
0.697366866701
0.608266406646
0.530814699021
0.466300103515
0.416745788041
0.376861974149
0.337241587442
0.300351988509
0.280232404399
4757.62834307
510.614324695
65.0005473467
12.6106739854
3.43664439363
1.44265668989
1.29275984973
1.20453706073
1.06184039412
0.923468772109
0.800890060965
0.696606387045
0.607229388709
0.529718515682
0.465453718321
0.416302291973
0.37684289423
0.337679319991
0.301167947837
0.281546440921
5101.38307742
530.30335214
65.6912524257
12.6041331226
3.42162146977
1.44449846924
1.29411771861
1.19888199645
1.0576688169
0.92094003794
0.799473942283
0.695928241562
0.606710551986
0.528941151124
0.464632733235
0.41562443047
0.376387384679
0.3375899589
0.30151758931
0.282235093489
5453.14234564
552.107232869
66.4587962875
12.5947461726
3.41525245747
1.44917188728
1.29354997511
1.18537597514
1.04481505
0.912677917264
0.794838637001
0.693036923245
0.604709054487
0.527909406183
0.463875272851
0.414922404121
0.375740605202
0.337196324467
0.30141697769
0.282878549539
5774.99967708
580.958217527
69.0500760231
12.9054015521
3.47352227579
1.46309522116
1.29383696874
1.17598259704
1.03099198708
0.899720520667
0.785046313983
0.686482473822
0.600736588283
0.525558133063
0.462655926947
0.414118362153
0.375022408295
0.336703891757
0.301153928383
0.283471409943
6047.48351965
610.149838413
72.5494503891
13.3838125037
3.56183894574
1.48444517451
1.29727271233
1.17204371956
1.02546244074
0.892841995849
0.777208529236
0.679197079825
0.595256695567
0.522015875523
0.460313530685
0.412316742321
0.373740102541
0.335972528774
0.300759556896
0.283811541302
6237.57121339
633.392706178
74.8891255689
13.7317493017
3.62424277757
1.50242971685
1.30239589357
1.16925237314
1.02233410777
0.890098019441
0.773956899446
0.675530670799
0.591466675474
0.518528496733
0.457344662158
0.409881820808
0.371820546922
0.334667019345
0.300067641373
0.283728467113
6359.75827525
648.933145617
75.9348236104
13.8780974055
3.64484882738
1.51557357208
1.30553645595
1.16435158619
1.01749087679
0.886105324623
0.770685601513
0.672504882144
0.588549276133
0.515470863737
0.454339550211
0.407130534673
0.36944977137
0.332839432582
0.298931837444
0.283078083688
6464.44872621
657.933118705
75.8655784536
13.8523814686
3.64543208093
1.5275828547
1.30706309027
1.15094933062
1.00449316089
0.876963900999
0.764085261553
0.667260667993
0.584061882759
0.511861725905
0.451094326019
0.404148667419
0.366744859887
0.330607156398
0.297283738159
0.282141864409
6601.48838751
668.621287522
75.9503228847
13.8437596333
3.6567316212
1.53572279649
1.3075495555
1.13582743792
0.984666094763
0.859856359815
0.751081078725
0.657713141972
0.576993585238
0.506427224531
0.446990546313
0.400766517662
0.363701911112
0.328051360499
0.295299680303
0.281171874768
6745.98835626
689.624245651
77.7921961652
14.0342746936
3.69345141316
1.54759258675
1.30633868963
1.12297344888
0.968586551993
0.843524747882
0.735884355078
0.644748478248
0.566825984388
0.498844242779
0.44123978242
0.396027455894
0.359832081586
0.325050722412
0.293000621575
0.27988374781
6783.91659259
711.007957024
79.218447227
14.2156801443
3.72229828474
1.55799394694
1.3044054647
1.10889365282
0.953632977635
0.830473390162
0.723949601902
0.633581036631
0.556716142516
0.490252462373
0.434177622498
0.39016890536
0.354946406547
0.321242684438
0.290264192157
0.278112500377
6683.3093764
724.619325187
78.5893575178
14.0799750913
3.69220165968
1.56115627013
1.29835203105
1.09202830824
0.936814185652
0.815947151288
0.711440090582
0.622769285582
0.547211315106
0.481718322328
0.426565829558
0.383527434925
0.34927585289
0.316668070305
0.286918706695
0.275692517472
6512.39394648
744.096875904
77.4914294543
13.8386666137
3.65114803764
1.56536749026
1.2878860666
1.0665365753
0.912758852552
0.796748097521
0.69607231658
0.609931863194
0.536222943477
0.472432366067
0.41850112584
0.376469052025
0.343117556361
0.311548581586
0.282952807265
0.272857467431
6380.949394
772.089552602
77.7849803424
13.8204118699
3.65910929116
1.56854365202
1.27780701015
1.03668238241
0.880558049991
0.769928828689
0.675012955511
0.593406587667
0.522974624321
0.461552649115
0.409617966543
0.368991347525
0.336583234054
0.306055155091
0.27857355683
0.269977676024
6305.27985513
802.276128364
79.7846780484
13.9866484357
3.69650297023
1.5772859998
1.26666279046
1.00845457225
0.850426375783
0.742277911001
0.650925049745
0.573387545901
0.506925024482
0.448846745496
0.399452224124
0.36049581324
0.329492665712
0.300260186867
0.273952757698
0.266853603989
6244.65350062
830.476471245
81.6968508002
14.1594939475
3.73123180319
1.58649609609
1.25503002546
0.979318506643
0.822601601181
0.718515971623
0.630044975213
0.554805472423
0.490748107288
0.43535614373
0.38839576023
0.351283189461
0.321686501794
0.293937601817
0.269063678639
0.263374594111
6032.19024257
854.526429291
82.29708055
14.151489485
3.73130386793
1.59319589268
1.24019343242
0.949746815971
0.795351059476
0.695419600902
0.610473492802
0.538017748736
0.476164697474
0.422650653425
0.377376733943
0.341765857515
0.313516454441
0.287167884795
0.263808191126
0.259407320124
5918.91809048
876.181088813
83.0128518697
14.0679316786
3.71678361908
1.60258139031
1.22216845882
0.916893616169
0.766486989237
0.672017205382
0.591125148186
0.521568177793
0.462037974461
0.410537153036
0.366834117112
0.332520718575
0.305408203366
0.280271614446
0.258261485756
0.255014931087
5744.40077616
898.928757665
84.4696417623
14.0360805476
3.70890197116
1.60538431681
1.20729008973
0.883592252655
0.734893869479
0.646079782713
0.570214992563
0.504496678559
0.447796331451
0.398445258728
0.356576366796
0.323663762654
0.297555721069
0.273470985805
0.25256122584
0.250676384919
5652.61768422
925.122880603
87.5741544386
14.0670009733
3.70293273544
1.60621601472
1.19227042541
0.85455451387
0.706476901019
0.620189639512
0.547806911709
0.485849156
0.432474955943
0.385865164592
0.346136896132
0.314686566924
0.289802629091
0.266814606545
0.246900830054
0.246320577167
5489.61815707
950.929315779
89.0167315802
14.0004316313
3.68654503378
1.60443843581
1.17442234017
0.82607082811
0.681997826932
0.598757476613
0.52856514673
0.468495503662
0.417299835677
0.373093819942
0.335468262852
0.305575832037
0.281851521403
0.260022599764
0.241223264621
0.241819991482
5336.98053361
973.164868112
89.3582596476
13.7565499329
3.64111069664
1.5973474038
1.15122845235
0.79777717122
0.659137994238
0.57918507966
0.511541350128
0.453577942268
0.404086728588
0.361397746883
0.32515860525
0.296509204334
0.27385644574
0.25311058695
0.235445836922
0.237049120142
5137.41424374
992.427796765
89.9169603881
13.451282475
3.58038100051
1.59012606796
1.12297405897
0.768275689622
0.636136278752
0.560183966766
0.495428842553
0.439643171845
0.391911862851
0.350707260122
0.315610808835
0.287920074904
0.266140207502
0.246290201193
0.229612125547
0.23200422562
4970.37727576
1010.03785826
91.9671784218
13.1832488754
3.51545664866
1.57543749514
1.09658231432
0.737728917549
0.610544752249
0.539318171907
0.47843595648
0.425519801078
0.379914698302
0.34031633542
0.306549206852
0.279889821695
0.25886947944
0.239771427426
0.223811599162
0.226962808879
4833.83702813
1028.61563412
95.5021394943
12.9276892625
3.44701929682
1.55485014738
1.07019964848
0.709466157495
0.58520885613
0.516975343863
0.459550305822
0.409918175699
0.367043550964
0.329575160325
0.29749153682
0.271993043448
0.251893032787
0.233566567847
0.218227750931
0.222095791202
4729.2321765
1045.99957549
99.0948029914
12.6923864554
3.39659816303
1.53552572385
1.04227602746
0.68330651416
0.563393203948
0.497814020414
0.442525889874
0.394877230521
0.35401264656
0.318621024385
0.288319373836
0.26410403023
0.244931558211
0.227484360694
0.21282907171
0.217322578233
4684.10727453
1063.0637106
104.146062757
12.7029578006
3.40144985923
1.52673183472
1.01506409296
0.660112405751
0.543861083311
0.481186064935
0.428224105514
0.382250351226
0.342747651579
0.308690278967
0.279645539447
0.256453509672
0.238125878046
0.221491477617
0.207574621201
0.212581900896
4544.04046113
1078.58370505
110.060748914
13.1273294081
3.47107587419
1.54039305042
0.992355440679
0.00386678272963
0.000880679252296
0.000755399910213
0.000752172870769
0.000752099896531
0.000752097921478
0.000752097945144
0.000752097943924
0.000752098470308
0.000752098958453
0.000752099983118
0.000752101067445
0.000752106672909
0.000755563326844
0.0041633737561
0.783748417797
17.2255830141
0.202073065938
0.106888346409
0.0289487971866
0.0040036694817
0.000885863849519
0.000755533287311
0.000752181266422
0.000752105510909
0.000752103562849
0.000752103527282
0.000752103590923
0.000752104043273
0.000752104570378
0.0007521054743
0.000752106577297
0.000752112184092
0.000755696388084
0.00431135758247
0.808117861072
17.6368377353
0.205867247258
0.109744883267
0.030102386734
0.00420364635722
0.000895039675693
0.000755766419517
0.000752191381265
0.00075211069486
0.0007521085718
0.000752108422667
0.000752108426686
0.000752108799868
0.000752109279927
0.000752110101753
0.000752111214248
0.000752116970035
0.000755832808411
0.00446469731798
0.83287843345
18.0503918202
0.209653207647
0.112614863969
0.0312827447406
0.00442245276847
0.000905007305842
0.000756000325295
0.000752200783663
0.000752115381759
0.000752112886111
0.000752112623076
0.000752112431447
0.000752112790222
0.000752113153984
0.000752114014342
0.000752115096741
0.000752120995576
0.000755972161821
0.00462336285754
0.858236400275
18.4674175983
0.213369772998
0.11527801087
0.0322614148307
0.00457651137951
0.000910342499444
0.0007561175513
0.000752206600458
0.000752118910685
0.00075211608321
0.000752115766802
0.000752115366174
0.000752115749812
0.000752115969133
0.000752116882222
0.000752117876963
0.000752123900394
0.00075611445194
0.00478753080532
0.884143813045
18.8880343914
0.216892518417
0.117890219979
0.0331751110856
0.00470022451534
0.000913489772723
0.000756182564742
0.000752209577072
0.000752120739098
0.000752117765138
0.000752117500556
0.000752117005557
0.000752117459393
0.000752117583656
0.000752118527612
0.000752119386112
0.000752125452179
0.000756259534411
0.0049573705767
0.910588269729
19.3120721818
0.22016199209
0.120569062459
0.0341605592603
0.00484459377443
0.00091802790767
0.000756287065962
0.000752211541922
0.000752120700868
0.000752117723193
0.000752117563347
0.000752117068495
0.000752117594534
0.000752117700415
0.000752118708092
0.000752119559023
0.000752125820495
0.000756408008169
0.00513301017296
0.937565732425
19.7392856911
0.22329840179
0.123350833681
0.0353462032124
0.00506025407253
0.000927195799328
0.000756506402741
0.000752214218541
0.000752119084526
0.000752116196705
0.000752116213738
0.000752115847151
0.000752116505155
0.000752116696174
0.000752117787084
0.000752118661323
0.000752125116056
0.000756559872365
0.00531461544674
0.965080256795
20.1694613679
0.226214105552
0.126109297934
0.0366161214185
0.00532005598934
0.000938728474932
0.000756758301339
0.000752215739436
0.000752116089975
0.000752113358858
0.000752113581716
0.000752113403788
0.000752114215946
0.000752114561231
0.000752115797371
0.000752116830754
0.000752123618362
0.00075671568174
0.00550231786624
0.993132622582
20.6023551659
0.228934628609
0.128608736348
0.0376305032982
0.00550511238084
0.000945093198479
0.00075687653138
0.000752212916891
0.000752111659086
0.000752109299876
0.000752109871446
0.000752110035062
0.000752111125284
0.000752111738087
0.000752113167487
0.000752114369248
0.000752121455701
0.000756875465519
0.00569629801182
1.02172877887
21.0377573431
0.231410532712
0.130900977076
0.0384816683682
0.00563016531464
0.000947546112138
0.000756905011181
0.000752206663878
0.000752105724996
0.000752103957059
0.000752105031484
0.000752105672141
0.00075210715421
0.000752108153114
0.000752109910319
0.000752111452777
0.000752119006794
0.000757039932991
0.00589668552545
1.05086877461
21.4754209714
0.23353835911
0.133111186727
0.0392992063672
0.00575830190128
0.00095062323972
0.000756956821804
0.000752199518777
0.000752098466248
0.000752097470014
0.000752099252454
0.000752100588179
0.000752102680175
0.000752104262694
0.000752106491923
0.000752108452363
0.000752116517775
0.000757209315073
0.00610366870192
1.08055838992
21.9151441898
0.235461057588
0.135372403796
0.0402636262743
0.00595642157032
0.000958602687768
0.000757133800639
0.000752193508699
0.000752089777942
0.000752089525828
0.000752092086863
0.000752094239774
0.000752097118441
0.000752099523798
0.000752102545936
0.000752105307296
0.000752114288878
0.000757384391439
0.0063173722455
1.11079661271
22.3566899833
0.237188299021
0.137629917974
0.0413697461838
0.00622270570495
0.000970590888887
0.000757384376462
0.000752186477335
0.000752078785655
0.000752079036236
0.000752082254352
0.000752085209278
0.000752088967823
0.000752092391772
0.000752096495968
0.000752100447778
0.000752110896042
0.000757564214351
0.00653799467823
1.14158965525
22.7998788114
0.238689550974
0.139668344934
0.0422789964371
0.00643423644187
0.000978760358079
0.000757527386613
0.000752173437191
0.000752063532117
0.000752063678041
0.000752066904417
0.000752069995654
0.000752073948741
0.000752077692116
0.000752082192964
0.000752086649002
0.000752097876876
0.000757739067692
0.00676565151753
1.17293592519
23.2444736091
0.240014365893
0.141450538021
0.0429679206034
0.0065670265617
0.000981984646721
0.000757554027575
0.000752153007728
0.000752042319336
0.000752041510219
0.000752043788917
0.000752045967655
0.000752048953629
0.000752051702358
0.000752055081839
0.000752058305323
0.000752068402551
0.000757900938792
0.00700054270593
1.20484106396
23.690275933
0.241148702396
0.143076874796
0.0435692473187
0.00668443420596
0.000984844880642
0.000757573906709
0.000752127301699
0.000752014974347
0.00075201221047
0.000752012421107
0.000752012446977
0.000752013151372
0.000752013585971
0.00075201462863
0.000752015585066
0.000752023799172
0.00075805291479
0.00724282482606
1.23730595572
24.1370531016
0.242075096508
0.144663366651
0.044263724942
0.00686336285273
0.000992324834694
0.00075770159701
0.000752100859529
0.000751984000687
0.000751978483989
0.000751975639794
0.000751972212938
0.000751968949897
0.000751964888857
0.000751960773
0.000751955866741
0.000751957694911
0.000758183712783
0.00749268904136
1.27033342173
24.5845347809
0.24279653624
0.146241365833
0.0451181381835
0.00711562538166
0.0010041780319
0.000757905595493
0.000752077506484
0.000751954745257
0.000751946966116
0.000751941541823
0.000751935034487
0.000751927998083
0.000751919360353
0.000751909628427
0.000751897859416
0.000751891609945
0.000758317961089
0.00775034079484
1.30392651466
25.0324796552
0.243244517234
0.147629517296
0.045840698057
0.00732133245254
0.00101236856586
0.000758015832539
0.000752058485261
0.000751932082068
0.000751924412893
0.000751919296425
0.000751913355487
0.000751907171737
0.00075189982567
0.00075189190494
0.000751882659123
0.000751880061115
0.000758527420772
0.00801616670805
1.3381016757
25.4807779566
0.243404737386
0.148739809349
0.046356836071
0.00743860201497
0.00101462249176
0.000758013930631
0.000752042444207
0.00075191535236
0.000751909915145
0.00075190752233
0.000751905040789
0.000751903171017
0.000751901249406
0.000751900061855
0.000751899131979
0.00075190690326
0.000758789163442
0.0082902829466
1.37285399286
25.9290621007
0.2432708261
0.149609793181
0.0467757988367
0.00753060376105
0.00101579598408
0.000758008279731
0.000752026253923
0.00075189955768
0.000751896683257
0.000751897143478
0.000751897985876
0.000751899877363
0.000751902182959
0.000751905581303
0.00075190952101
0.000751922528795
0.000759039132379
0.00857275786753
1.40817278067
26.376876471
0.242843553167
0.15037662881
0.047274940549
0.00768365645264
0.00102181402316
0.000758119390475
0.000752008048995
0.000751880038995
0.000751878705271
0.000751880731331
0.000751883262475
0.000751886878493
0.000751890942385
0.000751896029917
0.000751901548893
0.000751916223235
0.00075927000583
0.0088637573608
1.44405694156
26.8239305157
0.242080117871
0.151130246671
0.0479700988208
0.0079293125513
0.00103358216522
0.000758326729154
0.000751985251114
0.000751854809175
0.000751853586289
0.000751855623751
0.000751858147761
0.000751861678807
0.000751865612232
0.000751870465078
0.000751875680582
0.000751890256209
0.000759486610307
0.00916349591946
1.4805055951
27.2699348544
0.241021796414
0.15171422002
0.0485607026972
0.00813850991686
0.00104216165971
0.000758426303266
0.000751955045348
0.000751824397662
0.000751821942388
0.000751822511264
0.000751823393666
0.0007518250558
0.000751826949466
0.0007518295673
0.000751832411457
0.00075184479258
0.000759688467869
0.00947215682153
1.51751740497
27.7146138014
0.239677230225
0.152007384224
0.048917281943
0.00823894745838
0.00104328267768
0.000758363488632
0.000751920331698
0.000751791566609
0.000751787160751
0.000751785455014
0.000751783719731
0.000751782326964
0.000751780726922
0.000751779317508
0.000751777603545
0.000751785159118
0.000759880385852
0.00978994406338
1.55508872712
28.157684698
0.238062850157
0.152034274307
0.0491410703794
0.008293745284
0.00104198690958
0.000758265397417
0.000751888008532
0.000751760329603
0.000751754434111
0.000751751045438
0.000751747353268
0.000751743644134
0.000751739388022
0.000751734919576
0.000751729773885
0.000751733828603
0.000760089420195
0.0101171308714
1.59322443772
28.5989686301
0.236178144064
0.151917632873
0.0493992337893
0.00839628962809
0.0010451658944
0.000758287486435
0.000751863058751
0.000751733377054
0.000751727449351
0.000751724178006
0.000751720713303
0.000751717330757
0.000751713594705
0.000751709847048
0.000751705730602
0.000751711477007
0.000760341051832
0.0104539616063
1.63192221351
29.0382445561
0.2340679648
0.151804072316
0.0498420666698
0.00860557765823
0.00105573805627
0.000758459608752
0.000751843606775
0.000751709979159
0.000751705349151
0.000751703703264
0.00075170224427
0.000751701263429
0.000751700454424
0.000751700188673
0.000751700219165
0.000751711105425
0.00076062606709
0.0108006405864
1.67118076994
29.4752935085
0.231775883204
0.151582061185
0.0502651280079
0.00881335420933
0.00106558688184
0.000758584123168
0.000751821860735
0.000751686838496
0.000751683932694
0.000751684193113
0.000751684965276
0.000751686504264
0.000751688568395
0.000751691461668
0.000751694946704
0.000751709819977
0.000760916435009
0.0111572462045
1.71098318147
29.9097993338
0.229264578605
0.151084756096
0.0504262125689
0.00890291519429
0.00106731205944
0.000758538356449
0.000751793159529
0.000751660894236
0.000751659337035
0.000751660851339
0.000751662974927
0.000751665886117
0.000751669390014
0.000751673699951
0.000751678588968
0.00075169510335
0.000761198799249
0.0115239729434
1.75132769522
30.3416194703
0.226545029405
0.150301746737
0.0504117725692
0.0089196568612
0.00106468140297
0.000758414817892
0.000751759067545
0.00075163122287
0.000751630308348
0.000751632182215
0.000751634571464
0.000751637575522
0.000751641071227
0.000751645186906
0.000751649742858
0.000751666102646
0.000761473251957
0.0119009139573
1.79219831686
30.7705777405
0.223620927968
0.149321292529
0.0503768299932
0.00896298319079
0.00106553525382
0.000758378122511
0.000751724889858
0.000751599409129
0.000751598465721
0.000751599943716
0.00075160168007
0.000751603687935
0.000751605950342
0.000751608521644
0.000751611314438
0.000751626022034
0.000761743407683
0.0122882759738
1.83359562743
31.1966943377
0.220482372466
0.148313557311
0.0504942145021
0.0091153847486
0.00107478741879
0.00075850951797
0.000751695523268
0.000751568792027
0.000751567521677
0.000751568323661
0.000751569065822
0.000751569649358
0.000751570174149
0.000751570578712
0.000751570859419
0.000751583053594
0.000762018011067
0.0126861237453
1.87550365922
31.6199588548
0.217251885136
0.147320615474
0.050706648502
0.00930864614543
0.00108669767069
0.000758675601092
0.000751672087212
0.000751543058369
0.000751541747392
0.000751542248944
0.000751542474348
0.000751542202666
0.000751541692406
0.000751540763745
0.000751539540957
0.00075155039478
0.000762312829447
0.0130946688075
1.91792732006
32.0406269263
0.213992598239
0.146227991579
0.0507446111721
0.00941700103
0.00109288795558
0.000758745884007
0.000751654735686
0.000751524614074
0.000751523894916
0.000751524880213
0.000751525616897
0.000751525767867
0.00075152579494
0.000751525396995
0.000751524840212
0.000751536881169
0.000762638216778
0.0135140311753
1.96086058231
32.4589314178
0.210724702526
0.14501446486
0.0506868537142
0.00946347600799
0.00109535901276
0.000758787579047
0.000751644756816
0.000751513780862
0.000751514021272
0.000751515998926
0.000751517940168
0.000751519394016
0.000751521025833
0.000751522419791
0.000751523980064
0.000751538843375
0.00076298968968
0.01394437051
2.00430734454
32.8752574313
0.207427146683
0.14374392111
0.050676134915
0.00955005432885
0.00110250829182
0.000758970966106
0.000751643626569
0.000751509119277
0.000751510014173
0.000751512827265
0.000751515869237
0.00075151858362
0.000751521757547
0.000751524804578
0.000751528242479
0.000751545421494
0.00076335415027
0.014385639978
2.04825873251
33.2907248914
)
;

boundaryField
{
    emptyPatch
    {
        type            empty;
    }
    minY
    {
        type            fixedValue;
        value           nonuniform List<scalar> 0();
    }
    maxY
    {
        type            inletOutlet;
        inletValue      nonuniform List<scalar> 0();
        value           nonuniform List<scalar> 0();
    }
    maxX
    {
        type            epsilonWallFunction;
        blending        stepwise;
        value           nonuniform List<scalar> 
38
(
71.8343117569
73.6590446455
75.507860015
77.3807690527
79.2775320674
81.1974651146
83.1397799318
85.1039630563
87.0893241449
89.0954336807
91.1215566498
93.1673040907
95.231916413
97.3151108293
99.4161727062
101.534854767
103.670371125
105.822334244
107.989807348
110.171948562
112.367736571
114.576261355
116.796418738
119.028520106
121.271335245
123.522864768
125.782041317
128.047995398
130.319641146
132.595969887
134.876596015
137.160950585
139.44839808
141.738024221
144.030007245
146.324783072
148.623337262
150.924855971
)
;
    }
    water_to_heater
    {
        type            epsilonWallFunction;
        blending        stepwise;
        value           nonuniform List<scalar> 
60
(
3310.66794139
3310.66794139
3567.69735857
3831.55648478
4192.5691448
4192.5691448
4525.94428625
4525.94428625
4842.6013047
4842.6013047
5162.25725458
5519.29298008
6011.40082638
6011.40082638
6594.40721847
6594.40721847
7179.3856325
7179.3856325
7814.90243494
8559.84238826
9305.63069324
9305.63069324
9974.1616997
9974.1616997
10551.7001256
10551.7001256
11065.6818836
11588.0479136
12203.9197134
12203.9197134
12846.2993716
12846.2993716
13354.8965804
13354.8965804
13720.5195146
14045.9772069
14384.583734
14384.583734
14735.032224
14735.032224
14938.1497304
14938.1497304
14970.6854488
14984.1463614
15088.6335939
15088.6335939
15182.0359473
15182.0359473
15228.5770853
15228.5770853
15104.5837718
14931.0013976
14703.034271
14703.034271
14529.7443641
14529.7443641
14321.7985391
14321.7985391
14125.3997523
13957.9753448
)
;
    }
    procBoundary3to1
    {
        type            processor;
        value           nonuniform List<scalar> 
41
(
0.64002053074
0.526125718178
0.466439003113
0.415702267059
0.371397658535
0.333255301032
0.300243399001
0.271990035711
0.249494781491
0.231803883791
0.215823597791
0.202503233907
0.207854623483
4456.95179177
1089.00291658
116.762038242
13.9255958555
3.59881424439
1.56999029782
0.64002053074
0.981798253062
0.204134289448
0.142637227456
0.050904904077
0.00977099441121
0.00112100959946
0.000759399966532
0.000751649243751
0.000751506778792
0.000751507386408
0.000751510225486
0.000751513503233
0.00075151662739
0.000751520447313
0.000751524191315
0.000751528606338
0.00075154704888
0.000763721094674
0.01483840746
2.09367363447
33.697238189
)
;
    }
    procBoundary3to2
    {
        type            processor;
        value           nonuniform List<scalar> 
41
(
2041.40535944
277.606295894
44.5351164094
10.1125647944
2.95335401592
1.25687905662
1.13515106343
1.14058876826
1.02714334864
0.892965878211
0.77038773576
0.665104069596
0.57432031381
0.496345158706
0.433429445203
0.386297852631
0.347951360924
0.308471711188
0.272142141577
0.248597552281
0.00375541220387
0.00087714874818
0.000755315910181
0.000752166861185
0.000752095470915
0.00075209350662
0.000752093541443
0.000752093536577
0.000752094093924
0.000752094581047
0.000752095637281
0.000752096674162
0.000752102135714
0.000755434585018
0.00402005163634
0.759702455667
16.822405549
0.198132948055
0.104183947058
0.0279976952435
0.0279976952435
)
;
    }
}


// ************************************************************************* //
