/*--------------------------------*- C++ -*----------------------------------*\
| =========                 |                                                 |
| \\      /  F ield         | OpenFOAM: The Open Source CFD Toolbox           |
|  \\    /   O peration     | Version:  2312                                  |
|   \\  /    A nd           | Website:  www.openfoam.com                      |
|    \\/     M anipulation  |                                                 |
\*---------------------------------------------------------------------------*/
FoamFile
{
    version     2.0;
    format      ascii;
    arch        "LSB;label=32;scalar=64";
    class       volScalarField;
    location    "0.515/water";
    object      alpha.gas;
}
// * * * * * * * * * * * * * * * * * * * * * * * * * * * * * * * * * * * * * //

dimensions      [0 0 0 0 0 0 0];

internalField   nonuniform List<scalar> 
1503
(
0.172392384044
0.1042269089
0.0297638391223
0.00762633325724
0.00145939572702
0.000224676329119
2.75905052873e-05
1.99890479298e-06
4.46819577921e-08
4.27453489626e-10
2.37544714914e-12
1.04883606486e-14
1e-15
1e-15
1e-15
1e-15
1e-15
1e-15
1e-15
1e-15
0.613295062351
0.257315334498
0.10743182894
0.0370037107808
0.0118070709056
0.00314345693441
0.000698461509485
0.000121588017998
1.22290967812e-05
2.90937786356e-07
1.13353682982e-09
2.0626473342e-12
3.61159856968e-15
1e-15
1e-15
1e-15
1e-15
1e-15
1e-15
1e-15
0.613294019074
0.33925738828
0.16684074777
0.0714393257864
0.0276750019106
0.00923216362466
0.00256028494312
0.000570705955356
8.55488183069e-05
4.68227258555e-06
2.75160667035e-08
4.18180135925e-11
4.58698079607e-14
1.00144643951e-15
1e-15
1e-15
1e-15
1e-15
1e-15
1e-15
0.613295062351
0.417209819332
0.241664229135
0.122912224474
0.055356571118
0.0213230275679
0.00678561706649
0.00174010120291
0.000324732679336
3.04862724873e-05
4.65353589493e-07
6.65124502495e-10
5.13718106601e-13
1.26821780194e-15
1e-15
1e-15
1e-15
1e-15
1e-15
1e-15
0.597791335673
0.464421582511
0.320290813283
0.194568924464
0.103254967611
0.0461339308041
0.0166641923696
0.00470905963421
0.000984149962587
0.000121602877861
4.35319368337e-06
9.37464193241e-09
5.65711744141e-12
3.64098394661e-15
1.00008714833e-15
1e-15
1e-15
1e-15
1e-15
1e-15
0.570732134944
0.482039941313
0.380872827456
0.271842596262
0.170807397511
0.0908080512094
0.0388033008324
0.0125662571035
0.00289767243956
0.000414931484812
2.4387280246e-05
1.54573650565e-07
9.76897431412e-11
4.34393603613e-14
1.01144704829e-15
1e-15
1e-15
1e-15
1e-15
1e-15
0.560953141291
0.489144964951
0.418001359961
0.335772570356
0.243460494438
0.15279890338
0.0789594139112
0.031199606184
0.00856779460491
0.00143877320082
0.000114042936693
2.0611128188e-06
1.85382450758e-09
7.28927585903e-13
1.22942570148e-15
1.0002780396e-15
1.00018304607e-15
1.00016554892e-15
1.0001522446e-15
1.00011297417e-15
0.562010459526
0.493928980489
0.438010666649
0.378740934814
0.303777849051
0.217842383687
0.133783138444
0.0657446444239
0.0231330048799
0.00498743105523
0.000528037488049
1.83206238549e-05
5.48826823873e-08
2.31020057912e-11
8.32056137437e-15
1.00222417078e-15
1.00033708739e-15
1.00025073746e-15
1.00020363388e-15
1.00015291988e-15
0.560491584012
0.495374399256
0.453998945128
0.409243740642
0.34886464962
0.27362969246
0.192042615977
0.114599484356
0.0523475129116
0.0154043475609
0.00231148708951
0.000129467573421
1.45421667755e-06
1.00963244105e-09
3.44987643987e-13
1.08562241684e-15
1.00070272948e-15
1.00054745231e-15
1.00044643019e-15
1.0002325893e-15
0.562986056786
0.493958235478
0.4638909125
0.428686735157
0.379059611743
0.315011836191
0.243539114298
0.168910055032
0.0964698369069
0.038456782301
0.00836844309465
0.000736603318638
1.76525549585e-05
3.92530438281e-08
1.92996049633e-11
7.18763719683e-15
1.00313315334e-15
1.00130973684e-15
1.00092748745e-15
1.00061788649e-15
0.560375146421
0.488461204513
0.462751777927
0.432212978161
0.393093914191
0.342141459245
0.283554529359
0.218190627362
0.146515522226
0.0747930034505
0.0229604502272
0.00310671257966
0.000128362192924
8.81553210836e-07
7.18990768863e-10
3.11125441379e-13
1.09119118118e-15
1.00352733234e-15
1.0021443459e-15
1.00112306556e-15
0.562512014002
0.476835447086
0.452536724298
0.426325238559
0.395897762891
0.358195037179
0.312288779352
0.256641912088
0.190328274604
0.115684092683
0.0471548806399
0.00936809293915
0.000614364288274
8.51466991499e-06
1.24808167889e-08
6.88415565452e-12
3.40426404295e-15
1.00643190961e-15
1.00399499235e-15
1.00182694943e-15
0.560375146421
0.460124021938
0.431285596493
0.411550967128
0.393153623616
0.367967480195
0.332195185395
0.282985036357
0.2218428442
0.151346398837
0.0763395873851
0.0208513688645
0.00205805469846
4.87461096453e-05
1.4325363244e-07
9.44341966981e-11
3.64545893005e-14
1.01482532445e-15
1.00412001375e-15
1.00203518268e-15
0.560680924068
0.44620671533
0.420425406538
0.406368946218
0.39452690279
0.376928850029
0.346398887811
0.300567782077
0.244980117447
0.181646537033
0.107125997193
0.0378169215266
0.00538008565352
0.000207060024059
1.40897017831e-06
9.60173528381e-10
2.92798825656e-13
1.04859419133e-15
1.00288175609e-15
1.00163119406e-15
0.55091425307
0.444354077415
0.425851280043
0.41515883119
0.406259081012
0.389851905419
0.358943596369
0.315893864287
0.267482219743
0.212986832956
0.142785590276
0.063011481417
0.0127668988991
0.000828599287953
1.27220065693e-05
7.08905744541e-09
4.26202103371e-13
1.01530355473e-15
1.00067876051e-15
1.00056408048e-15
0.538345710973
0.460787202902
0.45350805712
0.446634806047
0.433512798243
0.40870601287
0.37414686761
0.335325146369
0.295497257281
0.250943558174
0.189182823564
0.104289122357
0.0307448126992
0.00345545627081
0.00011112961774
5.29122268916e-07
7.91671270947e-13
1.15000836835e-15
1.00000609619e-15
1.00000914428e-15
0.563368484747
0.511403000889
0.502234809274
0.492692636583
0.469059469819
0.432562744028
0.393986847618
0.358917711903
0.326300190157
0.290944449668
0.24299330227
0.166612919761
0.0720997517409
0.0139112557281
0.000871022797823
1.23952297863e-05
2.25994465e-09
3.26390610205e-14
1.00125675722e-15
1e-15
0.616571017906
0.560400479376
0.543273080559
0.528774121872
0.498773026287
0.455221094479
0.411459020297
0.373229423029
0.340846303468
0.315971302649
0.28692549421
0.235208207367
0.141848173202
0.0447474992172
0.00509558746894
0.000152411999504
6.43652566006e-07
4.76224170822e-12
2.34464123589e-15
1e-15
0.620703619505
0.575054243174
0.569129331319
0.551423477188
0.516572845934
0.467862231688
0.418127896369
0.374456417622
0.339526579744
0.315948019167
0.309464044042
0.288951336959
0.218281517864
0.101776174188
0.0197168759313
0.001128054142
1.37789303072e-05
1.2415250919e-09
8.98387396083e-14
1.0214498912e-15
0.618050876156
0.576883292674
0.576720244149
0.562578198137
0.524793651175
0.471149417277
0.417936113948
0.371237719448
0.331389949501
0.309110680864
0.309404221253
0.309344398779
0.271563546481
0.164738666002
0.0492298272987
0.00485153646235
0.000112651248459
3.2056850655e-07
3.0308814406e-11
6.51534173691e-15
0.622694941018
0.574796829859
0.576555708575
0.564416807407
0.525638642562
0.469711320745
0.41238289707
0.358427163531
0.312942270647
0.297636704136
0.30585476174
0.309284604911
0.292778246448
0.207762494416
0.083885543213
0.0127568165397
0.000487260891871
3.24352486299e-06
2.17617175493e-09
9.05056826446e-13
0.618405997349
0.567721268438
0.574448135103
0.561046943047
0.520662634498
0.460051138277
0.395007158045
0.332937122441
0.297204594784
0.297068027858
0.297212449789
0.307393266549
0.298045994943
0.229171560928
0.110198526985
0.022658670402
0.00127101968643
1.35965728179e-05
2.02480261838e-08
1.3424803127e-11
0.622500887586
0.555819159608
0.562980801833
0.546874222016
0.502566530581
0.43635081478
0.364638656441
0.303955391242
0.297068027858
0.29654082587
0.297068027858
0.297572657449
0.297728343812
0.242238657543
0.127748125676
0.0316984468582
0.00233686326699
3.40739210508e-05
7.79022325236e-08
6.96090062092e-11
0.618190444353
0.541878665417
0.545975239721
0.522413627476
0.471349796406
0.400777552574
0.328915037636
0.297068027858
0.296485294459
0.297068027858
0.296111144291
0.297068027858
0.300553425001
0.255984554943
0.143373042998
0.0407025801558
0.00371162817172
6.82713226525e-05
1.989311998e-07
2.08134666809e-10
0.621267065718
0.529303005588
0.527004208029
0.493394681621
0.435038558187
0.363917032583
0.301849727506
0.296681441443
0.297068027858
0.295722754869
0.297068027858
0.296532059338
0.330873866117
0.282060744545
0.166252224378
0.0542394849426
0.00617517286412
0.000144045016009
5.05308279214e-07
5.56690726955e-10
0.617774645784
0.517237862059
0.506274012363
0.46566618269
0.404317624284
0.338055437856
0.296983859057
0.297068027858
0.295796472763
0.297068027858
0.295637070318
0.331123409977
0.359816910815
0.320467370592
0.210687629421
0.0814586534779
0.0119208358371
0.000374298023059
1.70502462868e-06
1.89336007639e-09
0.619528803944
0.501080836808
0.481360320136
0.440980934164
0.385134218177
0.327163089334
0.297068027858
0.296157613367
0.297068027858
0.295637070318
0.310348104509
0.360213972812
0.35954295628
0.359268162092
0.27259045033
0.129739217359
0.0254162803064
0.00116187751089
7.92991576847e-06
7.57153584881e-09
0.617774645784
0.479825131962
0.454787066863
0.421571166218
0.376056036655
0.325355725372
0.296695351496
0.297068027858
0.295637070318
0.302462279171
0.358068522879
0.35954295628
0.360420289094
0.35954295628
0.32389533175
0.194775350978
0.0521399876004
0.00365199045641
4.25430498412e-05
4.07852880026e-08
0.595730962236
0.463026564297
0.450738758136
0.421712217789
0.377727390629
0.330447552542
0.301628601703
0.301237158548
0.313605386482
0.347388855438
0.35954295628
0.360178827797
0.35954295628
0.359954475719
0.356533579268
0.255688311498
0.093414433836
0.0104608949586
0.000226482958045
5.72472231106e-07
0.554611569007
0.475001737182
0.472147844303
0.445284228574
0.396787537951
0.354163384172
0.335357647791
0.340568823953
0.350231829234
0.350272053158
0.349680182256
0.355054079355
0.359901705807
0.35954295628
0.359670364722
0.2959126884
0.144697099919
0.025945743422
0.00103973847461
6.29865880765e-06
0.568389309583
0.546091481704
0.548957853146
0.517360077581
0.448313390888
0.399163563903
0.379571479933
0.37148650403
0.354572780618
0.335014639682
0.320131914666
0.32856230433
0.349182493966
0.358991787902
0.359387902098
0.318868778927
0.197843429776
0.0547653516346
0.00390067987888
4.72536310238e-05
0.648560655965
0.645973420641
0.646012472358
0.618056752158
0.534795105495
0.460439354743
0.417234510426
0.386734164502
0.351816947629
0.312766018369
0.291329344685
0.296863250123
0.320669110029
0.343495868425
0.34980092797
0.329663311395
0.247496880116
0.0990349921517
0.0119629229881
0.000276144369097
0.659203371856
0.661932317908
0.659203371856
0.660474012283
0.624609339729
0.536524850262
0.460659617102
0.405893117921
0.355025584045
0.306517332153
0.278905661519
0.27946185811
0.292377947058
0.314163446672
0.331441080861
0.336974196147
0.291519865011
0.15571769977
0.0300229169249
0.00126691177421
0.665207255282
0.658991224594
0.662770564155
0.659203371856
0.65981981569
0.600017933334
0.511357168841
0.43495076456
0.367659865985
0.308510096773
0.275617562639
0.274154541227
0.278051352156
0.289439637358
0.313231937995
0.344894481533
0.332339540024
0.217937395149
0.0621573464811
0.00457125804189
0.659203371856
0.662889141026
0.659203371856
0.662276392104
0.659203371856
0.630948254218
0.551913499611
0.463722860281
0.383003777512
0.312199217374
0.274720229778
0.27364066693
0.273942707088
0.277017428137
0.299910901153
0.35155683937
0.36275620611
0.274203179231
0.107091590539
0.0129802520756
0.665483085829
0.658982323268
0.662990887479
0.659203371856
0.660770894617
0.642214623916
0.572279286504
0.480016320927
0.39053166505
0.312946771316
0.274182680913
0.27351382854
0.273530637465
0.273855980762
0.291682216138
0.354851016257
0.3627694811
0.310489778418
0.155362285081
0.0286978766353
0.659203371856
0.662209950957
0.659203371856
0.662310704842
0.659203371856
0.645192808191
0.577477287701
0.483422367415
0.390320328627
0.309789723806
0.273844800109
0.273530637465
0.273246924896
0.273530637465
0.284948232895
0.351391586005
0.362786563126
0.328899027769
0.194335310673
0.0498972202466
0.66461423405
0.659203371856
0.662565565388
0.659203371856
0.660588842355
0.644092219103
0.575102040386
0.479424473171
0.382422074277
0.300169516047
0.273530637465
0.273226581113
0.273393814297
0.273151793362
0.279540713893
0.34492398041
0.362807128892
0.33702735367
0.219980992017
0.0720306391312
1e-15
1e-15
1e-15
1e-15
1e-15
1e-15
1e-15
1e-15
1e-15
1e-15
1e-15
1e-15
1e-15
1e-15
1e-15
1e-15
1e-15
1e-15
1e-15
1e-15
1e-15
1e-15
1e-15
1e-15
1e-15
1e-15
1e-15
1e-15
1e-15
1e-15
1e-15
1e-15
1e-15
1e-15
1e-15
1e-15
1e-15
1e-15
1e-15
1e-15
1e-15
1e-15
1e-15
1e-15
1e-15
1e-15
1e-15
1e-15
1e-15
1e-15
1e-15
1e-15
1e-15
1e-15
1e-15
1e-15
1e-15
1e-15
1e-15
1e-15
1e-15
1e-15
1e-15
1e-15
1e-15
1e-15
1e-15
1e-15
1e-15
1e-15
1e-15
1e-15
1e-15
1e-15
1e-15
1e-15
1e-15
1e-15
1e-15
1e-15
1e-15
1e-15
1e-15
1e-15
1e-15
1e-15
1e-15
1e-15
1e-15
1e-15
1e-15
1e-15
1e-15
1e-15
1e-15
1.0000429121e-15
1.00109730257e-15
1e-15
1e-15
1e-15
1e-15
1e-15
1e-15
1e-15
1e-15
1e-15
1e-15
1e-15
1e-15
1e-15
1e-15
1e-15
1e-15
1e-15
1e-15
1e-15
1.00243338239e-15
1e-15
1e-15
1.02913229706e-15
1.00011823879e-15
1.00017580127e-15
1.00019832922e-15
1.00024165873e-15
1.00030102465e-15
1.00038436361e-15
1.00050173172e-15
1.00063430513e-15
1.00077952034e-15
1.000898473e-15
1.00085559886e-15
1.00056627304e-15
1.0001355496e-15
1.00004737356e-15
1.00016533035e-15
1.00382428847e-15
1.00245355401e-15
1e-15
1e-15
1.07137892979e-15
1.00016355075e-15
1.00027286401e-15
1.00037836621e-15
1.00044113632e-15
1.00052530099e-15
1.00064275528e-15
1.00080221089e-15
1.00098446375e-15
1.00135506386e-15
1.00157022554e-15
1.00139094732e-15
1.00062543597e-15
1.00014544499e-15
1.00012550209e-15
1.00133925695e-15
1.00756310123e-15
1.00008826436e-15
1e-15
1e-15
1.11128805597e-15
1.00026182217e-15
1.00048753873e-15
1.00056454965e-15
1.0006138001e-15
1.00068549615e-15
1.00079176932e-15
1.00092414675e-15
1.00118137504e-15
1.00171326975e-15
1.00190400205e-15
1.00142050469e-15
1.00055230593e-15
1.00016911313e-15
1.0002605698e-15
1.00335598659e-15
1.00756939716e-15
1e-15
1e-15
1e-15
1.14973411788e-15
1.00059189748e-15
1.00077950236e-15
1.00078317393e-15
1.00078802463e-15
1.00083532374e-15
1.00090598788e-15
1.00104215271e-15
1.00147149776e-15
1.00204793673e-15
1.00214521155e-15
1.00139609223e-15
1.00048372798e-15
1.00025043464e-15
1.00094221769e-15
1.01139270428e-15
1.00749740255e-15
1e-15
1e-15
1e-15
1.18498472855e-15
1.00099822795e-15
1.0010727978e-15
1.00101502601e-15
1.00095476127e-15
1.00095344568e-15
1.00103704169e-15
1.0013266525e-15
1.00198211362e-15
1.0025142898e-15
1.00249150215e-15
1.00143736112e-15
1.00048320863e-15
1.00046811536e-15
1.00225519411e-15
1.01237002527e-15
1.00625303591e-15
1e-15
1e-15
1e-15
1.2160117109e-15
1.00136831599e-15
1.00128413558e-15
1.00116557034e-15
1.00105972306e-15
1.00110040855e-15
1.00137031712e-15
1.00198052765e-15
1.00280101213e-15
1.00330330745e-15
1.00315417268e-15
1.00170011332e-15
1.00049832324e-15
1.0008313313e-15
1.00831865163e-15
1.01237053102e-15
1.00312957652e-15
1e-15
1.00011756371e-15
1e-15
1.24166550388e-15
1.00142131311e-15
1.00126319236e-15
1.00113040646e-15
1.00117323284e-15
1.00142452757e-15
1.00200948692e-15
1.00292130034e-15
1.00393554123e-15
1.0045368296e-15
1.00428751812e-15
1.00227490513e-15
1.00051845936e-15
1.00151008443e-15
1.01258844118e-15
1.01203002428e-15
1e-15
1e-15
1.0003279614e-15
1e-15
1.26239586243e-15
1.00115218079e-15
1.00096545228e-15
1.00085104842e-15
1.00101796907e-15
1.00162594471e-15
1.00254589065e-15
1.00378944959e-15
1.00517626132e-15
1.00598547191e-15
1.00569724904e-15
1.00301703255e-15
1.00063775764e-15
1.00354657114e-15
1.01258897756e-15
1.0098232256e-15
1e-15
1e-15
1.00058854003e-15
1e-15
1.27964367935e-15
1.00044036507e-15
1.00036129805e-15
1.00033465535e-15
1.00043866684e-15
1.00148732871e-15
1.00280807703e-15
1.00443356878e-15
1.00610280723e-15
1.00696613112e-15
1.00652776087e-15
1.00376400011e-15
1.00160695071e-15
1.00832173153e-15
1.01258844118e-15
1.00588077115e-15
1e-15
1e-15
1.00071217465e-15
1e-15
1.29532774967e-15
1.00002162704e-15
1.0000299281e-15
1.00004426874e-15
1.00006534808e-15
1.00143408857e-15
1.00314685637e-15
1.00502429506e-15
1.00662303718e-15
1.00730769249e-15
1.00666755798e-15
1.0045843611e-15
1.00432164592e-15
1.01345139462e-15
1.01223372932e-15
1.00017179497e-15
1e-15
1e-15
1.00141762497e-15
1e-15
1.31099915511e-15
1e-15
1e-15
1e-15
1.00005551174e-15
1.00199527496e-15
1.00398993538e-15
1.00583913764e-15
1.00714953516e-15
1.00759330341e-15
1.00685923441e-15
1.00560181791e-15
1.0084892661e-15
1.01347996285e-15
1.01053485794e-15
1e-15
1e-15
1.00001774415e-15
1.00481120522e-15
1e-15
1.32720080933e-15
1e-15
1e-15
1e-15
1.00175172343e-15
1.00392500406e-15
1.00573953333e-15
1.00706687112e-15
1.0081166702e-15
1.00827562636e-15
1.00751951037e-15
1.00709706394e-15
1.01230144928e-15
1.01350341554e-15
1.00814930238e-15
1e-15
1e-15
1.00005017249e-15
1.01016840697e-15
1e-15
1.34354067763e-15
1e-15
1e-15
1.00192658293e-15
1.00595223521e-15
1.00749673813e-15
1.00875884977e-15
1.01174085532e-15
1.00980512975e-15
1.00974040318e-15
1.00905656224e-15
1.01024991696e-15
1.01442252696e-15
1.01352686824e-15
1.00569207198e-15
1e-15
1e-15
1.00010480634e-15
1.01264826099e-15
1e-15
1.35960115737e-15
1.00094848626e-15
1.00682973254e-15
1.0104896486e-15
1.01190855303e-15
1.01234550784e-15
1.01307752232e-15
1.02487288717e-15
1.01238178121e-15
1.01200676703e-15
1.0114481903e-15
1.0146389641e-15
1.01526331876e-15
1.01326059404e-15
1.00335021103e-15
1e-15
1e-15
1.00021650177e-15
1.01323611941e-15
1e-15
1.37553268393e-15
1.02019599427e-15
1.02045127439e-15
1.01946053659e-15
1.01806466645e-15
1.01723895906e-15
1.01756671399e-15
1.02532004921e-15
1.01870000304e-15
1.01436232757e-15
1.01408555462e-15
1.01598146351e-15
1.01572081039e-15
1.01251002688e-15
1.00022915317e-15
1e-15
1e-15
1.00042760927e-15
1.01357068339e-15
1e-15
1.39169125857e-15
1.20351502459e-15
1.02794853144e-15
1.02450254399e-15
1.0218403688e-15
1.02003889574e-15
1.02484986136e-15
1.02487288717e-15
1.02522168512e-15
1.01593760257e-15
1.01590338744e-15
1.01633795227e-15
1.01601063587e-15
1.0112688223e-15
1e-15
1e-15
1.00005417832e-15
1.00061101268e-15
1.01380037103e-15
1.00001422363e-15
1.4080478775e-15
2.48433005276e-15
1.02816580938e-15
1.02513833801e-15
1.02224704696e-15
1.02081515677e-15
1.02487288717e-15
1.02531036884e-15
1.02487288717e-15
1.01670437718e-15
1.01644001654e-15
1.01638523146e-15
1.01597864274e-15
1.00921975429e-15
1.0000027009e-15
1e-15
1.00009813424e-15
1.00073729e-15
1.01386445182e-15
1.0001062839e-15
1.42417570093e-15
6.41486460526e-15
1.02419854832e-15
1.02308420265e-15
1.0203120977e-15
1.01972666046e-15
1.02522417401e-15
1.02487288717e-15
1.02514330784e-15
1.01725052988e-15
1.01619998527e-15
1.01633033655e-15
1.01534421488e-15
1.00473106273e-15
1.0000047993e-15
1.00001968538e-15
1.00011496138e-15
1.0007309896e-15
1.01391023899e-15
1.00014940718e-15
1.43975756409e-15
1.55603342068e-14
1.01252447724e-15
1.01630421777e-15
1.01438432025e-15
1.01736250807e-15
1.02487288717e-15
1.02508321242e-15
1.02487288717e-15
1.01813686309e-15
1.01554341924e-15
1.01627532628e-15
1.01338411999e-15
1.00053675157e-15
1.00000074921e-15
1.00001853333e-15
1.00009474755e-15
1.00063721922e-15
1.01411937567e-15
1.00011438995e-15
1.45492457961e-15
4.33195320034e-14
1e-15
1.00710642447e-15
1.00773354486e-15
1.01625344545e-15
1.02495006381e-15
1.02487288717e-15
1.02497166749e-15
1.01961587973e-15
1.014731069e-15
1.01510924916e-15
1.00994426049e-15
1.0000175766e-15
1e-15
1e-15
1.00004714672e-15
1.00045888733e-15
1.0149915059e-15
1.0000442969e-15
1.47007787571e-15
9.75575105163e-14
1e-15
1.00042311942e-15
1.0037692606e-15
1.01549482715e-15
1.02337100767e-15
1.02453536681e-15
1.02487288717e-15
1.02098183827e-15
1.01440967488e-15
1.01183871598e-15
1.0036711451e-15
1e-15
1e-15
1e-15
1.00000030373e-15
1.0002579682e-15
1.01632830102e-15
1e-15
1.48546543157e-15
4.07006709748e-13
1e-15
1e-15
1.00147916845e-15
1.0141022746e-15
1.01955292287e-15
1.02222719674e-15
1.02330181627e-15
1.02127042531e-15
1.0151802466e-15
1.00857490686e-15
1.00012733551e-15
1e-15
1e-15
1e-15
1e-15
1.00011913607e-15
1.01725001475e-15
1e-15
1.50096131429e-15
2.080158782e-12
1e-15
1e-15
1.00036289646e-15
1.01157271002e-15
1.01631914917e-15
1.01990954699e-15
1.0213716439e-15
1.02074486451e-15
1.01513460456e-15
1.00616842925e-15
1e-15
1e-15
1e-15
1e-15
1e-15
1.00001331431e-15
1.01784627808e-15
1e-15
1.51629536042e-15
5.10066590296e-11
1e-15
1e-15
1e-15
1.00859285607e-15
1.01397851579e-15
1.01761991877e-15
1.01925515318e-15
1.0194333647e-15
1.01403802236e-15
1.00367926613e-15
1e-15
1e-15
1e-15
1e-15
1e-15
1e-15
1.01871726967e-15
1e-15
1.53139916253e-15
8.81030194616e-09
1e-15
1e-15
1e-15
1.0062083299e-15
1.01221196408e-15
1.0159983595e-15
1.01754725601e-15
1.01747415142e-15
1.01161752361e-15
1.00061726653e-15
1e-15
1e-15
1e-15
1e-15
1e-15
1e-15
1.02041319267e-15
1e-15
1.5464282864e-15
3.47467889092e-07
1e-15
1e-15
1e-15
1.00494404369e-15
1.01166565773e-15
1.01590644493e-15
1.01724122051e-15
1.01583693459e-15
1.00952696095e-15
1e-15
1e-15
1e-15
1e-15
1e-15
1e-15
1.00145913492e-15
1.02338125255e-15
1e-15
1.56171566563e-15
5.66028798432e-06
1.00004688904e-15
1e-15
1e-15
1.00481605815e-15
1.01228450832e-15
1.01823714975e-15
1.02081251957e-15
1.01543375644e-15
1.00900941877e-15
1e-15
1e-15
1e-15
1e-15
1e-15
1e-15
1.00669287247e-15
1.0276477418e-15
1e-15
1.57699500618e-15
4.80996588991e-05
1.04310732969e-15
1e-15
1e-15
1.00619281902e-15
1.01543023659e-15
1.02420753357e-15
1.0249975559e-15
1.01762623769e-15
1.00967953025e-15
1e-15
1e-15
1e-15
1e-15
1e-15
1e-15
1.01084593602e-15
1.03271352249e-15
1.00867207421e-15
1.59249843403e-15
0.000277203318381
1.15887867024e-08
1e-15
1e-15
1.00938773828e-15
1.01914544934e-15
1.02493843243e-15
1.02485499385e-15
1.02491854695e-15
1.01223707385e-15
1e-15
1e-15
1e-15
1e-15
1e-15
1e-15
1.01415489802e-15
1.03783723724e-15
1.02512228338e-15
1.6087454676e-15
0.00113348200508
1.90122595285e-06
1e-15
1e-15
1.01429091099e-15
1.02276591268e-15
1.02484313823e-15
1.02529712912e-15
1.02485499385e-15
1.01617632942e-15
1.00397111789e-15
1e-15
1e-15
1e-15
1e-15
1e-15
1.01726643268e-15
1.04286241621e-15
1.03212764595e-15
1.63251628138e-15
0.0032689319675
1.88013860992e-05
1.00802134309e-15
1e-15
1.02002620628e-15
1.02458927582e-15
1.02526974719e-15
1.02485499385e-15
1.0251260035e-15
1.01998760677e-15
1.00823965154e-15
1e-15
1e-15
1e-15
1e-15
1.00413495253e-15
1.02008083651e-15
1.04755087911e-15
1.03777719454e-15
1.69682903147e-15
0.00712932979793
9.01004299577e-05
1e-15
)
;

boundaryField
{
    emptyPatch
    {
        type            empty;
    }
    minY
    {
        type            fixedValue;
        value           uniform 1e-15;
    }
    maxY
    {
        type            inletOutlet;
        phi             phi.gas;
        inletValue      nonuniform List<scalar> 0();
        value           nonuniform List<scalar> 0();
    }
    maxX
    {
        type            zeroGradient;
    }
    water_to_heater
    {
        type            zeroGradient;
    }
    procBoundary2to3
    {
        type            processor;
        value           nonuniform List<scalar> 
41
(
0.659203371856
0.660781928915
0.659203371856
0.661459182242
0.659203371856
0.636721448112
0.560899662447
0.461877959684
0.362164063569
0.286254107184
0.273328300771
0.273393814297
0.272866967831
0.273393814297
0.276432276569
0.339352130042
0.362830876071
0.340229426768
0.236602863554
0.0928679139489
1e-15
1.01995700339e-15
1.02487888172e-15
1.02485499385e-15
1.02537420654e-15
1.02485499385e-15
1.02332830234e-15
1.01101353987e-15
1e-15
1e-15
1e-15
1.00128826281e-15
1.0121507287e-15
1.02250748873e-15
1.05181033837e-15
1.04436526374e-15
1.81381550186e-15
0.0128029097854
0.000285449466627
1e-15
1e-15
)
;
    }
}


// ************************************************************************* //
