/*--------------------------------*- C++ -*----------------------------------*\
| =========                 |                                                 |
| \\      /  F ield         | OpenFOAM: The Open Source CFD Toolbox           |
|  \\    /   O peration     | Version:  2312                                  |
|   \\  /    A nd           | Website:  www.openfoam.com                      |
|    \\/     M anipulation  |                                                 |
\*---------------------------------------------------------------------------*/
FoamFile
{
    version     2.0;
    format      ascii;
    arch        "LSB;label=32;scalar=64";
    class       volScalarField;
    location    "0.885/water";
    object      p_rgh;
}
// * * * * * * * * * * * * * * * * * * * * * * * * * * * * * * * * * * * * * //

dimensions      [1 -1 -2 0 0 0 0];

internalField   nonuniform List<scalar> 
6000
(
101382.491686
101379.12824
101378.625568
101378.027215
101377.445107
101376.905058
101376.411531
101375.970254
101375.586171
101375.257682
101374.982725
101374.757991
101374.578551
101374.439753
101374.337536
101374.268526
101374.229735
101374.218723
101374.233384
101374.271991
101365.604769
101370.750026
101373.834505
101375.23991
101375.486683
101375.444826
101375.297184
101375.120956
101374.936595
101374.758716
101374.602812
101374.474297
101374.370932
101374.290214
101374.231024
101374.193239
101374.176927
101374.182188
101374.208945
101374.257
101353.568762
101360.685456
101367.09275
101370.799671
101372.404511
101373.166549
101373.523209
101373.68587
101373.759782
101373.789339
101373.799124
101373.807067
101373.821238
101373.842752
101373.87116
101373.906823
101373.950783
101374.004514
101374.069454
101374.146749
101344.121049
101351.801053
101360.675665
101366.52085
101369.635692
101371.278089
101372.099071
101372.50089
101372.721374
101372.869436
101372.986461
101373.091385
101373.19408
101373.298319
101373.404165
101373.511078
101373.618939
101373.728321
101373.840107
101373.955132
101335.64371
101342.607831
101352.174174
101360.023876
101365.407278
101368.789412
101370.635791
101371.514179
101371.920325
101372.150662
101372.326631
101372.487807
101372.645692
101372.804089
101372.963358
101373.122427
101373.280029
101373.435396
101373.588127
101373.737943
101328.865969
101334.366253
101342.848173
101351.251804
101358.645144
101364.428909
101368.229996
101370.266187
101371.167305
101371.563425
101371.803462
101372.009379
101372.209224
101372.407792
101372.605903
101372.802725
101372.996686
101373.186333
101373.370401
101373.547729
101320.598681
101326.106485
101333.75399
101341.569734
101349.748282
101357.579902
101363.912007
101368.075176
101370.191371
101371.042111
101371.408203
101371.662813
101371.90032
101372.132733
101372.361603
101372.586801
101372.807096
101373.021012
101373.227028
101373.423641
101313.982681
101319.57952
101326.346754
101332.95291
101340.609064
101349.139863
101357.434773
101364.175362
101368.478126
101370.463204
101371.164659
101371.488183
101371.755117
101372.011986
101372.261882
101372.505213
101372.741237
101372.968768
101373.186408
101373.392694
101305.447103
101311.556116
101318.055149
101324.075116
101331.23189
101339.858861
101349.198735
101358.054774
101365.108397
101369.320399
101370.989202
101371.515677
101371.812791
101372.082182
101372.339651
101372.587039
101372.82462
101373.051925
101373.268067
101373.471875
101299.36301
101306.389087
101311.493895
101316.420869
101322.843162
101331.208073
101340.684473
101350.461926
101359.637953
101366.79689
101370.595421
101371.780322
101372.137609
101372.391935
101372.630332
101372.857778
101373.075243
101373.282839
101373.480099
101373.666257
101293.031232
101300.414652
101304.992885
101309.409493
101315.370711
101323.438015
101332.662132
101342.344424
101352.291063
101361.982288
101369.117684
101372.085763
101372.737244
101372.954738
101373.139434
101373.316304
101373.48696
101373.651855
101373.810765
101373.963302
101288.637833
101297.642418
101301.578038
101305.805964
101311.111868
101317.968173
101326.046756
101334.694678
101344.207393
101355.065641
101365.608543
101371.848864
101373.51024
101373.730599
101373.82323
101373.916618
101374.014016
101374.115257
101374.219842
101374.327056
101283.663557
101294.194983
101298.485501
101302.953114
101308.109393
101314.096187
101320.502143
101327.746019
101336.499558
101347.455559
101360.121325
101370.236067
101374.10034
101374.568274
101374.554307
101374.545184
101374.556758
101374.587266
101374.634766
101374.697128
101277.731098
101292.218881
101297.231522
101302.189191
101306.530548
101310.926682
101315.579125
101321.586099
101329.799776
101340.499483
101353.790504
101366.926432
101373.959168
101375.197278
101375.124629
101375.027166
101374.970333
101374.949718
101374.960808
101374.999285
101271.230819
101289.044529
101294.589618
101299.639609
101303.138013
101306.309312
101309.930089
101315.36859
101323.400296
101333.721733
101346.831828
101361.954257
101372.514037
101375.243325
101375.276166
101375.159859
101375.097589
101375.083245
101375.109568
101375.170123
101262.642392
101283.514915
101288.547534
101293.05857
101296.427723
101299.392233
101302.681865
101308.163695
101316.00634
101325.522913
101338.014599
101354.622065
101369.064135
101374.316337
101374.807842
101374.800524
101374.840471
101374.925219
101375.045243
101375.193472
101256.00028
101274.962045
101279.048596
101282.286109
101285.238673
101288.594091
101292.889107
101298.868557
101306.038429
101314.185185
101325.535145
101342.981274
101362.008272
101371.822606
101373.662735
101373.968955
101374.242531
101374.534004
101374.833128
101375.135756
101244.79209
101258.86624
101261.654209
101263.775191
101267.801429
101273.7919
101280.485488
101287.142075
101293.386452
101299.935409
101309.453353
101325.690997
101348.560176
101366.276765
101371.909291
101372.959937
101373.569601
101374.139576
101374.669267
101375.16139
101226.283043
101234.626202
101237.844211
101241.651626
101248.94174
101258.802602
101268.303344
101276.370637
101283.391548
101289.230619
101294.775166
101305.614561
101327.606086
101354.65828
101369.135846
101372.309595
101373.302937
101374.119684
101374.848914
101375.500111
101205.219142
101216.309119
101218.903582
101224.157568
101234.381355
101247.572486
101259.93563
101270.550819
101279.661687
101285.983774
101288.221777
101290.112173
101304.86628
101335.642831
101363.233805
101372.251536
101373.918367
101374.840046
101375.645435
101376.355676
101199.617886
101208.918078
101210.286196
101214.236553
101224.91488
101240.553349
101255.80231
101268.836487
101279.497047
101286.882727
101287.236693
101287.722637
101292.088483
101316.089082
101352.341849
101371.850584
101375.535869
101376.444524
101377.166011
101377.805687
101196.645468
101207.12566
101208.167787
101210.376979
101220.418665
101237.313104
101254.63909
101269.588859
101283.105568
101291.078191
101289.610857
101287.256565
101287.772919
101304.303765
101340.379467
101369.829854
101377.777364
101378.801076
101379.31398
101379.774326
101194.005706
101204.270499
101204.511129
101207.239084
101217.853764
101235.738369
101254.974437
101273.621396
101289.567292
101292.643535
101292.667035
101289.040241
101287.862927
101299.630303
101332.191476
101366.829053
101380.076914
101381.606258
101381.861627
101382.082081
101190.075031
101204.355728
101202.715861
101206.348986
101217.987472
101237.415749
101259.70172
101281.701459
101293.211705
101292.960624
101292.93862
101292.809232
101289.806412
101298.158161
101327.459601
101364.348568
101382.162442
101384.532347
101384.547971
101384.516129
101187.342392
101203.945109
101201.611702
101206.902499
101221.11515
101243.369793
101268.610938
101290.754895
101293.421238
101293.232844
101293.323802
101292.983758
101292.282128
101296.278807
101323.216639
101362.163079
101383.85243
101387.294989
101387.133927
101386.876666
101183.325856
101205.919971
101203.401219
101210.40793
101227.87247
101253.259616
101279.631656
101293.882141
101293.305387
101293.183141
101292.759578
101292.829812
101290.491647
101290.322548
101316.150359
101358.277824
101384.515985
101389.647541
101389.435313
101389.007808
101180.314185
101206.148869
101205.620966
101215.080409
101235.673191
101263.164677
101288.6017
101293.062442
101292.599599
101292.065807
101292.096503
101290.971921
101280.911998
101275.19835
101303.031516
101349.491807
101382.856314
101391.374708
101391.36655
101390.828883
101175.370522
101207.641846
101211.031757
101223.311713
101245.042644
101271.549247
101292.147005
101291.699097
101291.089847
101291.000364
101289.857907
101288.298042
101265.673642
101265.899099
101286.901611
101333.234023
101376.956089
101392.241722
101392.957565
101392.335389
101170.94037
101207.98359
101216.333815
101232.396121
101254.17406
101277.469665
101290.696503
101289.860409
101289.523974
101288.463924
101288.286212
101268.815216
101262.790417
101262.530201
101269.780278
101310.715422
101365.502159
101391.661993
101394.180824
101393.499428
101164.393016
101210.522061
101221.623805
101239.465561
101259.771773
101279.169658
101288.416992
101287.670805
101286.656616
101286.529017
101276.110784
101259.309448
101258.92195
101259.106954
101258.882747
101289.868894
101349.643592
101388.654438
101394.83462
101394.209639
101159.16964
101216.132234
101225.964814
101241.103639
101258.355858
101275.868374
101285.446988
101284.184396
101283.773238
101274.763222
101255.956395
101254.988306
101254.982701
101254.285751
101254.468524
101274.797012
101331.54534
101382.001777
101394.45853
101394.266598
101160.09551
101223.462282
101226.92153
101236.674388
101252.018371
101266.720827
101273.803599
101270.562676
101263.812151
101257.444127
101253.334143
101251.371801
101249.278945
101248.984683
101248.560429
101263.009015
101312.186988
101370.539613
101392.400733
101393.481149
101169.219278
101219.144495
101218.472118
101223.716208
101235.512934
101246.493001
101249.100107
101246.569692
101249.640635
101254.122958
101257.854128
101254.97613
101247.227683
101242.83049
101241.981172
101252.468939
101290.655104
101352.690065
101387.609771
101391.687937
101168.178956
101193.288321
101186.627687
101186.856547
101203.053525
101218.82347
101225.894652
101233.035617
101243.251954
101255.168582
101262.542413
101259.753602
101250.102887
101241.387806
101238.026306
101241.281451
101265.959118
101326.565466
101378.152227
101388.708869
101129.217632
101125.536505
101119.941498
101123.818612
101154.30075
101183.448501
101201.071027
101216.308249
101234.15194
101250.769564
101258.135131
101257.595372
101251.606842
101243.488141
101235.012784
101228.254862
101238.975865
101292.00216
101361.104033
101384.339143
101052.474833
101046.282337
101050.522449
101059.339982
101093.708468
101136.238196
101169.060665
101193.755619
101216.533371
101237.271363
101247.855764
101250.288166
101248.546635
101244.118233
101232.64867
101215.018493
101207.42732
101254.579655
101335.167749
101377.984081
100999.427747
101007.618755
101010.128598
101017.453
101040.071979
101081.593736
101129.58904
101167.338105
101198.675213
101224.733697
101239.561186
101243.614368
101244.922062
101243.736167
101232.119519
101204.444193
101196.23807
101225.665511
101304.467823
101368.228344
101001.99777
101002.85353
101002.427924
101004.231492
101013.771036
101040.914332
101092.436004
101141.139294
101182.599162
101217.355828
101237.117838
101240.646413
101243.38735
101244.750306
101234.991979
101201.688845
101191.65241
101208.973274
101278.4131
101355.049405
101001.063022
101003.870962
101003.55824
101003.859355
101006.410078
101024.661897
101071.164109
101124.320785
101172.734217
101214.552973
101239.465379
101242.340639
101244.459094
101246.536836
101240.975022
101206.11276
101189.678548
101201.599677
101261.844714
101341.574205
101005.632765
101005.621732
101005.788297
101005.566835
101006.230619
101023.500783
101067.807619
101121.76735
101173.455768
101218.6425
101244.832102
101246.907742
101248.478406
101249.836995
101248.111452
101215.140335
101189.718054
101199.231881
101252.3254
101330.38014
101004.988883
101007.819049
101007.529502
101007.941127
101008.184893
101027.562188
101073.035724
101127.804959
101181.159487
101227.963982
101251.870064
101252.886026
101253.677072
101254.722454
101254.715451
101223.096694
101191.13172
101199.004793
101245.541072
101320.74799
101009.886165
101009.985706
101010.050745
101009.941627
101012.441386
101038.820436
101087.730445
101143.643329
101198.70306
101244.673455
101259.04076
101259.362613
101259.831734
101260.003492
101260.359555
101227.565931
101193.702525
101199.207346
101238.630334
101310.449383
101009.59302
101012.125754
101011.908686
101012.253061
101021.930226
101058.870028
101113.019608
101171.366762
101226.985233
101263.410434
101265.942503
101266.021314
101265.882668
101266.078883
101265.034857
101229.084615
101196.440229
101198.551686
101230.259397
101298.205913
101013.918598
101014.126804
101014.201503
101015.592024
101037.543944
101084.468643
101144.18585
101206.103026
101258.360737
101273.048851
101272.547584
101272.174534
101272.197952
101271.452841
101267.857425
101227.734977
101198.438963
101198.158735
101221.2238
101285.492758
101014.410449
101016.040528
101016.01104
101025.188511
101059.129062
101113.946059
101179.217778
101243.155845
101279.095766
101279.427907
101278.78051
101278.693074
101277.673348
101277.426938
101268.490841
101226.650662
101200.745392
101200.821148
101215.723556
101274.467069
101017.691463
101019.200291
101022.757031
101042.859815
101087.003598
101148.925043
101218.400703
101276.031726
101286.950209
101285.812223
101285.438942
101284.275872
101283.743452
101281.998181
101268.898694
101227.521548
101204.796751
101203.225067
101212.59521
101264.710801
101018.615717
101025.534643
101037.97562
101070.297234
101124.649392
101192.576879
101260.801221
101294.462958
101293.291551
101292.474539
101291.067684
101290.426795
101288.339439
101287.310646
101267.410694
101230.429493
101210.731125
101204.880362
101209.583041
101254.71462
101019.929878
101037.243706
101064.612387
101112.691257
101177.090974
101246.227721
101296.632119
101301.001053
101299.581394
101297.87242
101296.966942
101294.539768
101293.203336
101290.272863
101266.062618
101235.432778
101217.43996
101206.00266
101206.014715
101243.707198
101020.72558
101060.700134
101106.884472
101172.548783
101242.96208
101297.970605
101308.863111
101306.598899
101304.512243
101303.28704
101300.374428
101298.944051
101295.505874
101292.42451
101265.18077
101243.22
101224.004808
101206.680816
101201.027905
101230.221447
101022.259356
101103.56819
101167.315324
101242.735181
101301.083825
101315.754905
101312.609916
101310.237172
101308.700269
101305.326441
101303.628531
101299.561973
101297.446791
101288.875995
101267.957853
101252.982631
101230.682536
101206.534766
101194.431269
101208.21181
101028.786435
101170.957063
101239.564333
101301.868776
101320.602364
101316.954498
101314.281347
101312.387038
101308.620814
101306.622347
101302.033846
101299.74612
101294.904335
101285.4354
101273.634782
101263.532184
101238.698478
101206.515834
101184.702045
101177.393647
101074.066563
101247.066563
101291.617549
101319.533206
101320.529812
101316.847031
101314.087197
101309.605393
101307.040907
101301.837767
101299.053951
101293.689073
101290.347115
101279.692748
101277.178633
101271.46917
101248.184222
101207.334837
101172.849223
101164.719178
101144.802803
101261.514901
101285.010681
101306.492389
101313.71833
101309.22491
101303.910792
101300.504464
101294.54254
101291.249528
101285.398125
101281.861343
101276.728768
101271.916629
101272.973264
101271.370929
101255.818166
101211.304448
101163.392157
101152.950167
101107.023297
101149.339135
101168.79378
101195.326621
101229.92452
101249.817477
101258.99278
101261.383195
101261.494105
101258.742506
101257.140506
101255.946782
101255.456817
101256.68158
101258.200492
101259.854147
101256.235573
101221.021778
101161.010887
101139.087618
100942.439388
100914.431338
100935.356908
100964.106806
101012.940356
101057.141574
101098.837397
101143.357301
101179.282827
101201.060097
101214.325976
101224.028226
101229.810081
101233.635025
101236.486607
101241.472856
101245.235423
101231.927974
101169.60694
101125.287075
100802.345338
100785.115227
100797.877331
100808.917814
100828.038123
100850.916536
100885.100604
100951.104894
101046.990489
101127.088443
101172.610239
101196.122966
101207.972961
101213.723637
101217.757536
101223.797032
101230.620156
101232.809996
101186.180338
101114.676294
100736.920731
100755.358667
100758.853816
100760.792481
100763.755539
100769.496715
100782.135455
100819.063992
100911.842746
101035.394894
101127.870805
101178.147673
101197.80209
101204.178138
101207.831659
101212.762186
101220.481226
101225.564338
101203.759171
101117.964838
100737.648229
100752.007928
100750.42264
100750.780815
100751.331304
100753.251792
100759.75436
100782.291888
100849.559269
100966.522077
101081.860071
101163.527033
101196.855713
101202.14945
101205.954166
101208.897409
101215.404407
101220.800704
101216.443812
101133.901411
100736.768388
100751.612714
100751.20304
100751.14569
100751.335867
100751.641179
100756.296612
100777.730696
100837.128002
100942.200644
101057.994409
101155.286651
101200.233382
101204.199039
101208.214592
101210.513315
101214.595453
101219.699491
101222.590413
101154.817775
100740.051631
100752.573353
100752.568379
100752.838893
100753.073964
100753.211824
100756.591389
100779.512949
100839.589724
100941.613034
101056.758988
101158.518883
101206.451414
101209.495602
101212.457231
101215.289194
101217.235939
101221.338338
101223.815076
101174.615943
100739.21491
100754.740793
100754.499063
100754.71731
100754.869143
100754.892661
100758.686847
100785.399108
100849.674118
100951.369515
101066.596569
101169.596487
101214.004148
101216.22391
101218.398351
101220.494105
101222.444509
101224.928983
101226.854338
101188.336459
100742.958335
100758.651535
100756.397049
100756.560978
100756.591994
100756.780371
100764.366311
100800.414687
100872.816418
100975.387248
101089.475487
101189.314546
101222.120725
101223.634528
101225.133678
101226.629678
101228.098723
101229.726255
101231.121318
101197.26043
100742.817551
100764.355774
100758.26633
100758.314842
100758.515498
100760.844673
100778.257065
100826.451023
100907.003468
101010.92994
101122.974416
101212.714248
101230.458022
101231.368762
101232.389498
101233.230217
101234.137896
101235.227552
101236.052666
101202.249452
100746.199187
100770.618444
100761.337466
100762.313102
100764.391268
100773.404755
100803.52139
100863.241507
100950.183719
101054.89095
101163.680546
101233.753931
101238.734459
101239.124522
101239.586155
101240.101869
101240.468183
101241.015646
101241.3138
101205.397422
100746.698406
100776.776215
100770.330536
100773.625202
100779.994867
100798.28206
100841.127644
100911.388621
101003.369897
101108.873233
101209.78466
101246.615839
101246.716722
101246.674319
101246.834801
101246.738554
101246.734468
101246.740531
101245.036628
101207.208222
100749.425286
100784.47811
100787.387604
100794.34204
100806.327232
100835.054119
100890.208705
100970.437525
101067.846947
101173.207634
101248.807822
101254.866034
101254.200213
101254.091733
101253.489161
101253.19472
101252.652276
101252.147032
101247.67725
101210.206412
100750.783397
100798.109502
100813.180293
100824.144744
100842.349426
100882.254654
100949.867791
101039.758673
101142.740954
101237.435762
101263.068374
101261.924731
101261.580031
101260.545013
101260.06076
101258.860721
101258.172785
101257.109219
101251.332539
101214.628476
100755.010816
100822.995909
100848.542394
100863.847539
100889.612183
100940.323746
101018.81128
101117.268804
101219.956567
101270.134146
101269.624771
101269.057266
101267.643155
101267.097583
101265.249021
101264.421978
101262.663775
101261.471206
101255.573992
101222.600346
100766.672341
100861.974812
100894.354982
100918.655799
100953.045809
101011.82294
101096.669265
101197.716491
101272.789907
101277.376727
101276.370068
101274.621461
101274.041374
101271.61539
101270.737345
101268.2405
101266.958226
101264.627031
101262.174325
101235.835802
100794.844714
100906.756412
100955.832981
100996.204872
101038.398439
101098.933068
101181.375101
101265.853314
101285.225016
101283.206871
101281.242789
101280.428221
101277.664668
101276.738231
101273.573251
101272.226007
101260.919684
101266.211191
101274.234396
101251.58515
100833.520927
100967.786217
101032.132441
101086.594552
101133.2816
101189.500028
101257.786431
101291.246108
101288.655449
101286.688252
101285.43389
101282.517167
101281.668002
101277.873796
101276.470366
101252.452666
101251.740807
101271.874696
101281.959661
101266.02956
100886.580049
101039.134713
101101.670737
101151.380762
101197.061335
101249.04517
101292.198001
101290.722602
101288.692228
101287.547583
101284.82842
101284.277815
101279.781266
101278.881868
101247.675915
101229.596354
101251.488457
101274.112936
101281.128734
101276.095647
100942.381208
101074.302146
101113.945702
101150.736325
101198.268134
101253.109167
101287.477237
101285.154518
101284.696546
101282.219601
101282.904357
101277.815646
101277.395295
101238.785427
101204.885125
101222.946338
101249.362021
101268.742462
101277.819458
101275.008484
100953.554552
101025.211311
101054.953473
101089.803276
101144.069258
101208.250102
101253.661367
101266.956594
101266.899585
101268.64402
101252.858068
101224.896372
101184.26677
101156.626049
101178.464639
101212.785144
101238.406205
101253.87279
101267.292569
101272.127499
100891.127038
100897.27813
100907.774087
100930.923679
100981.236168
101048.330293
101107.223246
101139.044923
101142.394495
101117.380557
101068.248521
101027.228987
101021.170806
101065.67377
101132.633228
101186.015945
101219.260804
101234.043268
101248.55857
101261.745909
100802.173381
100775.630891
100778.983267
100788.576749
100810.986897
100845.201439
100882.82958
100906.399699
100902.497325
100876.234657
100843.942285
100841.07539
100881.22482
100955.678551
101043.457746
101128.510251
101193.878205
101220.861961
101230.026429
101241.624953
100716.155805
100719.944123
100726.647936
100729.098715
100733.37383
100740.71237
100750.000608
100756.241217
100755.504394
100750.475743
100751.658616
100770.635361
100810.757653
100871.752315
100955.086241
101058.982215
101161.158605
101215.321054
101221.513389
101223.794641
100704.156668
100714.161045
100715.641659
100715.820967
100715.853311
100716.787032
100717.928786
100719.55583
100721.190326
100725.648169
100738.349974
100761.559892
100797.050794
100849.223206
100924.84659
101027.078846
101140.927005
101214.567367
101219.964783
101212.912236
100705.016877
100715.10377
100715.247409
100715.42428
100715.552923
100715.657594
100715.766302
100716.237785
100717.732305
100725.510632
100741.491761
100766.137751
100801.741654
100853.428836
100928.374601
101030.184201
101144.93845
101217.834523
101219.806819
101203.497938
100708.43125
100718.695507
100717.95058
100718.098321
100718.213994
100718.252733
100718.510174
100718.648502
100720.252051
100731.697677
100753.426951
100782.141782
100818.619603
100869.525489
100944.065438
101046.565238
101160.159669
101222.752287
101217.615287
101192.030198
100710.138756
100729.272571
100724.691516
100720.791256
100720.843523
100721.082054
100721.224165
100721.349055
100728.825105
100751.224192
100783.038328
100817.345816
100855.961955
100908.104922
100984.596668
101088.420398
101191.997477
101225.995886
101209.384302
101184.735498
100713.473602
100753.963002
100743.056751
100730.585711
100725.250275
100724.712044
100725.87084
100731.862296
100753.331086
100789.436798
100829.278121
100867.596388
100909.776908
100966.767033
101049.112183
101151.942028
101223.855388
101225.373507
101195.727763
101191.56453
100715.142304
100802.393718
100772.621829
100755.62567
100742.940804
100741.938219
100746.965039
100764.643271
100799.982497
100843.566021
100885.453308
100925.800402
100972.716324
101037.324959
101125.762105
101215.096824
101237.488322
101221.672871
101196.746636
101198.4324
100718.600023
100855.404086
100811.006451
100798.154572
100785.491945
100788.616754
100801.703673
100829.229801
100868.475779
100909.973687
100949.336092
100990.785621
101043.145813
101114.925158
101200.691619
101253.137611
101246.884174
101215.86359
101202.952599
101213.453755
100725.832461
100893.385184
100851.880935
100851.691907
100852.756793
100870.409106
100892.937079
100921.828037
100954.935826
100988.6231
101023.830978
101066.128568
101122.629848
101194.244119
101257.600416
101268.653449
101249.798787
101219.088758
101215.675964
101244.979296
100771.063115
100915.074874
100893.215936
100903.719127
100933.714616
100978.518146
101010.493714
101034.500305
101056.998533
101081.971991
101113.256836
101154.56692
101207.484421
101261.394993
101285.879223
101277.735439
101252.60129
101234.116778
101248.683473
101292.388284
100840.323817
100930.757793
100922.848307
100938.628507
101006.1774
101084.680358
101129.261291
101150.597955
101165.341515
101184.069659
101211.544742
101246.179977
101279.472774
101301.464442
101300.372067
101285.506829
101266.836649
101272.897708
101302.72812
101336.369329
100887.826258
100921.621154
100920.400309
100941.189668
101035.733451
101133.715885
101192.717393
101222.857124
101240.523291
101258.233211
101281.223747
101306.238592
101320.878458
101321.661925
101313.966454
101302.457933
101304.160368
101323.8054
101344.984557
101353.907481
100871.008742
100879.925344
100878.610408
100912.862867
101013.75932
101116.470421
101182.05664
101220.303039
101245.372171
101267.096482
101290.106844
101314.752722
101334.350331
101335.625337
101332.402711
101332.094153
101340.949606
101350.331326
101354.365736
101354.688932
100790.129433
100769.776686
100791.344985
100840.113089
100930.003616
101030.469174
101115.444074
101177.693067
101218.360371
101248.733714
101276.899111
101305.753632
101330.970844
101344.33502
101346.852553
101349.252351
101351.678571
101353.102354
101354.075104
101354.772873
100675.911897
100674.681795
100707.20243
100746.645013
100794.722617
100857.156141
100939.584251
101038.950435
101124.364569
101187.004154
101236.716262
101282.992612
101324.160406
101345.467521
101348.239764
101350.242202
101352.028388
101353.618027
101354.998492
101356.020624
100619.161541
100645.980989
100672.947935
100691.806886
100706.906918
100729.125282
100773.581055
100859.151369
100969.265994
101071.502992
101158.143246
101237.348825
101309.666903
101347.209168
101350.50334
101352.636633
101354.587656
101356.384809
101357.850811
101359.110214
100620.998316
100649.010615
100669.200988
100680.215686
100686.652861
100698.336118
100726.475536
100786.849844
100882.177447
100991.175356
101098.050571
101201.247328
101297.069589
101352.22772
101356.140591
101357.953753
101359.762976
101361.281181
101362.806517
101363.839354
100621.726446
100662.81856
100673.33785
100682.664975
100688.813159
100701.177018
100729.773503
100788.364967
100878.854213
100984.910938
101094.284243
101202.987581
101303.349758
101360.648131
101363.688179
101365.188267
101366.534443
101368.030383
101368.982204
101370.167137
100624.445672
100693.257189
100685.569995
100691.490781
100698.493474
100716.272312
100751.777323
100812.978641
100900.205518
101003.493546
101113.091064
101223.908115
101323.712897
101371.005506
101372.013689
101373.114293
101374.435876
101375.135554
101376.300459
101376.705593
100625.713888
100736.618628
100708.643243
100710.70472
100720.662195
100753.427425
100808.98762
100881.123439
100966.786582
101065.960277
101174.973578
101284.078613
101365.048008
101380.02655
101380.480316
101381.574478
101381.908392
101382.942292
101383.007947
101383.746365
100639.974762
100787.050405
100742.477199
100739.563887
100753.69303
100808.293522
100893.693075
100985.79305
101079.904725
101182.4409
101288.047096
101367.510828
101388.185449
101388.107852
101388.87491
101388.733484
101389.704575
101389.370824
101389.944961
101371.371065
100656.224607
100843.180838
100791.456352
100779.509625
100797.777304
100871.548545
100985.274904
101102.82751
101217.001874
101323.903652
101386.326345
101395.475532
101395.150303
101395.856882
101395.4065
101396.341493
101395.361086
101395.952049
101379.849728
101311.231441
100664.414067
100904.311471
100856.536453
100837.090118
100857.870681
100942.330222
101074.662753
101216.093968
101344.881255
101401.090818
101402.101679
101401.752583
101402.676152
101401.784404
101402.843034
101401.343963
101401.999499
101389.664309
101326.97969
101242.943635
100670.955537
100973.024393
100933.303499
100917.77452
100940.259098
101027.871739
101167.167342
101318.644817
101407.52999
101408.991059
101408.469448
101409.528903
101408.105544
101409.372433
101407.22111
101408.005293
101399.854451
101348.030172
101285.291995
101209.55429
100687.459055
101037.234599
101013.259007
101015.260276
101042.88825
101131.078528
101265.976446
101395.230596
101416.021883
101414.963397
101415.895642
101414.013535
101415.48847
101412.669435
101413.704127
101404.514298
101361.064786
101327.148504
101282.099115
101205.448145
100732.891178
101080.069953
101079.021369
101096.610754
101137.399107
101230.61637
101350.735387
101420.985935
101419.544054
101420.054206
101418.112531
101419.790781
101416.615317
101417.776789
101398.071462
101359.132566
101344.306931
101331.007218
101287.267239
101208.486057
100803.851353
101085.273741
101091.051076
101107.659826
101160.692344
101264.221648
101371.022414
101419.616942
101419.667237
101417.981849
101419.839215
101416.346872
101402.926835
101368.636416
101336.246561
101338.697156
101348.321582
101343.835422
101305.46041
101224.263815
100843.591244
101021.317398
101027.847642
101049.061651
101112.873213
101223.209001
101328.716046
101378.975941
101384.710232
101380.61668
101361.380047
101326.340403
101284.966296
101270.307437
101293.763403
101335.127884
101360.607189
101365.248667
101341.164362
101265.54972
100789.598407
100839.733211
100853.181966
100881.282317
100947.455001
101043.685828
101128.280295
101170.295256
101177.568664
101163.274513
101138.089831
101114.548411
101125.447785
101178.767862