/*--------------------------------*- C++ -*----------------------------------*\
| =========                 |                                                 |
| \\      /  F ield         | OpenFOAM: The Open Source CFD Toolbox           |
|  \\    /   O peration     | Version:  2312                                  |
|   \\  /    A nd           | Website:  www.openfoam.com                      |
|    \\/     M anipulation  |                                                 |
\*---------------------------------------------------------------------------*/
FoamFile
{
    version     2.0;
    format      ascii;
    arch        "LSB;label=32;scalar=64";
    class       volScalarField;
    location    "0.025/water";
    object      p_rgh;
}
// * * * * * * * * * * * * * * * * * * * * * * * * * * * * * * * * * * * * * //

dimensions      [1 -1 -2 0 0 0 0];

internalField   nonuniform List<scalar> 
6000
(
101954.132073
101951.269667
101951.188409
101950.577853
101949.615445
101948.535678
101947.447785
101946.369111
101945.303541
101944.244129
101943.186601
101942.128488
101941.06587
101939.998606
101938.932474
101937.875106
101936.833218
101935.812699
101934.819433
101933.859741
101941.773261
101944.422869
101947.081104
101948.530144
101948.479959
101947.82463
101946.926722
101945.958068
101944.960164
101943.940496
101942.903518
101941.856356
101940.800872
101939.737127
101938.670532
101937.609116
101936.560443
101935.531721
101934.529908
101933.562053
101931.856604
101937.715702
101942.277036
101945.14763
101946.085551
101946.043833
101945.531735
101944.82788
101944.005347
101943.074493
101942.072554
101941.036887
101939.983816
101938.921019
101937.855387
101936.795282
101935.750263
101934.728232
101933.734482
101932.773647
101924.148983
101931.774459
101937.968142
101941.612342
101943.23253
101943.832964
101943.801648
101943.380987
101942.676631
101941.7721
101940.76977
101939.729743
101938.673983
101937.612548
101936.552813
101935.501551
101934.465645
101933.453189
101932.471849
101931.525984
101916.867867
101923.790994
101930.147861
101934.184451
101937.063199
101939.786736
101941.311677
101941.410857
101940.804534
101939.914295
101938.914743
101937.878154
101936.832328
101935.790499
101934.758707
101933.740583
101932.739554
101931.759477
101930.805762
101929.884732
101910.912476
101914.443743
101917.727527
101920.846288
101925.619171
101932.67903
101937.424237
101938.329414
101937.918839
101937.165531
101936.282505
101935.341061
101934.375674
101933.408264
101932.449019
101931.501852
101930.569081
101929.652872
101928.756019
101927.882799
101901.288325
101900.759804
101900.14227
101901.919689
101909.111703
101921.601445
101931.060446
101933.451607
101933.588051
101933.243725
101932.6977
101932.025333
101931.272371
101930.475753
101929.658138
101928.831456
101928.002655
101927.17663
101926.357846
101925.55117
101888.711869
101885.643278
101882.432249
101883.217809
101891.578729
101907.972461
101922.315735
101927.126478
101928.185622
101928.445152
101928.388441
101928.115798
101927.682212
101927.137139
101926.517432
101925.847553
101925.144807
101924.421441
101923.686274
101922.947764
101877.089607
101871.642048
101866.049994
101866.619941
101875.416086
101893.827016
101912.119624
101920.086127
101922.404508
101923.327345
101923.776402
101923.93002
101923.85077
101923.589624
101923.190344
101922.688045
101922.11261
101921.487071
101920.826345
101920.142591
101866.928268
101859.624038
101851.656336
101851.665098
101860.648379
101880.329863
101901.479707
101912.655034
101916.535469
101918.183216
101919.117237
101919.672349
101919.936291
101919.956425
101919.7754
101919.434742
101918.976035
101918.434697
101917.83321
101917.186065
101858.592761
101849.721545
101839.649601
101838.547636
101847.542578
101868.100936
101891.577401
101905.476758
101910.865573
101913.195724
101914.547865
101915.441024
101916.000119
101916.269055
101916.285512
101916.093027
101915.73893
101915.266408
101914.707883
101914.082933
101851.410934
101840.566607
101829.29652
101829.452193
101836.616852
101857.397593
101882.856815
101899.03864
101905.690565
101908.518399
101910.133157
101911.241824
101912.006403
101912.466764
101912.653076
101912.601825
101912.350555
101911.936646
101911.402693
101910.785192
101843.504058
101831.619863
101820.06218
101820.083961
101827.667946
101849.471825
101876.290972
101893.618294
101901.094549
101904.235113
101905.936509
101907.087938
101907.914731
101908.473636
101908.791073
101908.877728
101908.733665
101908.373894
101907.846719
101907.21286
101834.447186
101822.484929
101810.527576
101810.651094
101818.719919
101842.251403
101870.992034
101889.296464
101896.950918
101900.210209
101901.925446
101903.01951
101903.788597
101904.341387
101904.717534
101904.896405
101904.828804
101904.504246
101903.967426
101903.286497
101826.034088
101813.956404
101800.914122
101800.565515
101809.547834
101835.084557
101865.828446
101885.101467
101892.986726
101896.125161
101897.81043
101898.893176
101899.628537
101900.148723
101900.512889
101900.688095
101900.61148
101900.270215
101899.699959
101898.952728
101817.015573
101806.199461
101791.600603
101790.15209
101799.618755
101827.607693
101860.91983
101880.851865
101888.729254
101891.840057
101893.409941
101894.434322
101895.191667
101895.741644
101896.085415
101896.193757
101896.036949
101895.622522
101894.989789
101894.192556
101808.498644
101799.008542
101782.61613
101778.94049
101789.215377
101819.783375
101855.92674
101876.499355
101884.109048
101887.088009
101888.626893
101889.614954
101890.330312
101890.859613
101891.174744
101891.217059
101890.977581
101890.477134
101889.776307
101888.969405
101798.519547
101790.375996
101773.166398
101767.215603
101779.070311
101812.714021
101851.250546
101871.945939
101879.098495
101881.792023
101883.216151
101884.170006
101884.856575
101885.326112
101885.568844
101885.549423
101885.25307
101884.693747
101883.953897
101883.167759
101788.132419
101782.030241
101762.639912
101755.130135
101770.049308
101807.912521
101847.73149
101867.249034
101873.592096
101875.90025
101877.121897
101877.966636
101878.57185
101878.957687
101879.105483
101879.021582
101878.692081
101878.11326
101877.378706
101876.639456
101773.362473
101771.423709
101750.801982
101741.497439
101760.498805
101804.30471
101844.604518
101861.77923
101867.079809
101869.039965
101870.09048
101870.810183
101871.297842
101871.562879
101871.621905
101871.477529
101871.142589
101870.59018
101869.913434
101869.265578
101762.655739
101760.264022
101739.135251
101727.09106
101749.03995
101799.084464
101839.968748
101854.848027
101859.16703
101860.822307
101861.749555
101862.365234
101862.738905
101862.897814
101862.888292
101862.747271
101862.46112
101861.995203
101861.443476
101860.954295
101743.106664
101742.335328
101726.582624
101710.505306
101735.726722
101791.205989
101832.514482
101845.861446
101849.486585
101850.850857
101851.642845
101852.170191
101852.480029
101852.613693
101852.634976
101852.593289
101852.464655
101852.192045
101851.871789
101851.639967
101731.530987
101730.721766
101711.527173
101693.167031
101725.162941
101784.82853
101823.284375
101834.618876
101837.521044
101838.526298
101839.138685
101839.608268
101839.955856
101840.218269
101840.457806
101840.711291
101840.929422
101841.038334
101841.126385
101841.306503
101701.123289
101702.315396
101689.256288
101670.768107
101713.303286
101775.677776
101809.135453
101818.64274
101821.160976
101822.123879
101822.855145
101823.587744
101824.328738
101825.095721
101825.922084
101826.810699
101827.697197
101828.482807
101829.23694
101830.046827
101672.073357
101676.726747
101647.882775
101639.931771
101690.900312
101753.864179
101784.588544
101794.217788
101797.55275
101799.480232
101801.253627
101803.095643
101805.000013
101806.936329
101808.916391
101810.944842
101812.937504
101814.769132
101816.486666
101818.165116
101609.467549
101595.359965
101571.681528
101586.100106
101642.499521
101707.603576
101742.049406
101756.837257
101764.181987
101769.390576
101774.013358
101778.390009
101782.556373
101786.525396
101790.33611
101794.01285
101797.496514
101800.668402
101803.561645
101806.264598
101510.945181
101480.505896
101496.523916
101518.45232
101572.138222
101641.717562
101687.670716
101713.347623
101727.763993
101737.85076
101746.246862
101753.758096
101760.604135
101766.87332
101772.656834
101778.039731
101783.023753
101787.515881
101791.539525
101795.210749
101431.06608
101433.948696
101454.617143
101475.359919
101516.822472
101587.401135
101644.972357
101681.639322
101702.863178
101716.451856
101726.961238
101736.102312
101744.392067
101751.975788
101758.943951
101765.395211
101771.358093
101776.742908
101781.540112
101785.877321
101424.986596
101426.746825
101437.414038
101456.172519
101489.601386
101551.237
101614.265712
101660.425016
101689.70805
101706.890733
101718.326372
101727.542055
101735.7986
101743.441686
101750.560979
101757.22205
101763.445562
101769.127596
101774.204243
101778.787849
101427.232487
101427.10172
101430.244653
101443.562444
101469.937033
101519.92345
101580.979951
101634.239542
101674.754991
101700.640645
101715.460026
101725.161474
101733.026956
101740.159756
101746.839347
101753.142049
101759.09047
101764.584825
101769.516196
101773.967388
101428.371062
101428.963497
101430.627191
101440.624435
101461.131501
101498.563408
101550.055309
101603.310484
101652.146932
101690.493159
101713.793066
101726.160067
101734.053643
101740.553718
101746.545065
101752.202354
101757.557333
101762.539202
101767.024047
101771.063344
101430.868338
101435.543382
101438.718334
101447.662346
101465.193505
101493.753045
101534.418543
101583.912181
101637.091894
101684.541134
101715.413039
101730.350127
101738.007897
101743.600101
101748.658772
101753.445994
101757.98215
101762.225451
101766.058085
101769.503135
101435.690518
101460.207524
101467.102033
101471.806739
101480.207916
101500.484174
101535.482349
101584.422285
101640.747187
101690.696184
101722.286837
101736.659009
101743.242986
101747.723482
101751.75362
101755.592361
101759.246569
101762.685078
101765.796401
101768.590813
101451.806123
101508.337915
101520.869178
101515.173424
101505.687378
101512.399269
101539.684251
101588.961907
101648.326317
101699.57528
101729.87301
101742.362006
101747.567242
101751.016222
101754.166929
101757.198089
101760.10586
101762.866021
101765.36487
101767.60778
101470.97575
101570.892022
101584.337784
101564.148837
101528.157214
101522.888283
101541.66489
101591.383366
101656.463442
101709.507673
101736.62349
101746.099973
101749.849653
101752.499882
101755.032941
101757.489755
101759.865086
101762.142206
101764.204178
101766.05568
101475.921407
101603.219809
101624.137807
101597.908491
101542.216431
101520.038892
101534.858162
101584.672818
101655.350257
101712.990821
101738.522927
101746.072685
101749.114485
101751.475926
101753.776498
101755.99347
101758.143672
101760.205377
101762.057148
101763.716548
101466.451283
101603.974354
101630.532843
101615.140066
101560.388652
101514.710325
101521.275672
101567.826937
101644.330708
101707.549805
101734.950512
101742.508761
101745.610224
101748.089701
101750.474882
101752.745135
101754.93774
101757.021872
101758.877353
101760.539427
101450.535947
101595.891426
101619.553502
101617.572704
101580.317582
101518.156927
101507.807313
101543.936895
101624.338202
101697.096002
101728.302712
101736.642802
101740.134133
101742.95015
101745.628311
101748.149843
101750.560139
101752.826339
101754.837961
101756.645407
101433.386999
101584.386269
101606.482341
101605.605173
101593.570639
101535.652371
101495.445807
101520.844293
101599.60022
101682.379153
101719.605608
101729.434351
101733.43852
101736.670369
101739.754203
101742.651031
101745.39356
101747.94635
101750.211112
101752.251933
101413.578916
101569.803068
101591.724971
101591.454503
101590.482223
101549.810314
101490.346024
101504.638288
101575.715662
101665.081843
101709.764584
101721.516637
101726.092253
101729.77065
101733.312982
101736.65625
101739.804507
101742.710455
101745.28454
101747.605614
101391.002816
101553.240495
101575.868826
101575.915382
101576.588655
101552.912312
101492.347602
101493.787508
101556.006846
101649.080473
101699.952635
101713.493425
101718.646351
101722.784269
101726.794727
101730.599937
101734.173993
101737.45184
101740.349245
101742.960366
101365.553494
101535.775407
101559.369064
101561.310906
101561.123736
101547.186539
101491.412589
101485.705538
101543.594202
101638.058503
101691.240383
101705.963499
101711.690603
101716.29172
101720.741597
101724.964046
101728.916252
101732.520938
101735.701951
101738.567964
101338.361716
101518.872192
101544.311024
101546.210245
101548.420352
101536.263368
101485.30753
101480.06936
101536.524345
101630.773477
101684.686427
101699.919438
101706.052525
101711.007971
101715.770488
101720.268374
101724.460197
101728.267573
101731.626484
101734.656814
101313.127487
101509.935819
101534.961951
101537.910849
101539.377963
101528.004049
101480.047657
101480.28244
101539.115965
101630.903301
101681.901512
101696.38335
101702.517848
101707.56026
101712.38667
101716.918324
101721.13024
101724.94987
101728.325172
101731.382541
101300.049182
101512.850458
101535.364891
101536.767671
101538.869084
101522.37109
101479.717434
101488.574718
101553.619787
101639.683638
101683.464165
101695.750416
101701.359402
101706.127482
101710.701866
101714.988409
101718.982912
101722.612264
101725.830911
101728.768692
101300.937511
101525.718937
101542.138151
101543.04217
101542.318052
101519.516348
101487.39613
101506.725498
101577.478993
101654.35288
101688.148848
101697.394973
101702.069326
101706.253138
101710.306888
101714.13026
101717.733902
101721.028203
101723.966845
101726.681247
101300.535124
101537.935295
101551.365751
101549.370997
101546.574657
101518.076032
101503.907042
101533.063069
101605.96718
101669.73886
101693.251597
101699.686668
101703.393968
101706.916211
101710.368015
101713.670732
101716.842431
101719.767486
101722.39843
101724.866077
101301.034741
101529.218718
101554.533476
101551.900463
101545.098737
101520.760985
101523.781462
101564.992571
101633.742039
101681.078466
101696.202747
101700.795368
101703.902378
101706.970276
101709.974712
101712.889743
101715.736232
101718.37628
101720.770198
101723.046348
101290.048679
101492.481778
101543.759717
101541.915892
101537.664129
101526.100901
101545.733871
101597.152077
101654.380934
101685.761859
101695.575162
101699.515112
101702.623442
101705.64405
101708.529529
101711.321925
101714.046461
101716.56007
101718.844973
101721.028629
101273.504891
101446.973491
101525.661509
101526.340134
101527.008319
101537.043394
101573.333063
101623.592701
101665.089414
101684.961963
101692.213253
101696.250483
101699.731823
101703.001832
101706.045175
101708.948167
101711.735807
101714.272837
101716.569392
101718.756147
101261.237444
101406.526844
101498.772564
101512.536725
101523.178908
101552.793932
101594.912511
101636.807634
101667.509365
101682.006032
101688.255728
101692.451317
101696.221965
101699.733664
101702.988264
101706.0765
101709.009283
101711.651611
101714.031324
101716.282123
101254.085144
101374.140041
101465.944406
101495.697165
101519.009189
101554.696691
101596.786183
101637.828311
101666.316355
101679.185717
101684.953692
101689.072101
101692.878299
101696.474873
101699.846905
101703.067762
101706.128286
101708.883746
101711.365611
101713.703675
101252.087783
101351.235818
101437.694646
101479.226016
101511.169502
101549.057317
101592.351136
101635.17974
101664.52604
101676.897798
101682.271119
101686.184211
101689.901531
101693.481706
101696.881233
101700.158033
101703.292986
101706.131097
101708.697652
101711.116469
101255.673774
101335.960064
101408.793391
101457.339073
101496.343827
101538.475223
101585.54518
101631.644649
101662.141406
101674.519167
101679.701384
101683.483329
101687.132769
101690.688713
101694.092714
101697.396635
101700.575304
101703.468615
101706.097776
101708.582093
101260.938565
101323.697734
101377.353736
101425.375695
101469.907081
101517.753174
101571.405636
101624.392287
101658.49919
101671.609669
101676.873573
101680.658388
101684.317913
101687.899135
101691.333129
101694.666367
101697.884623
101700.835194
101703.530328
101706.082349
101259.640618
101312.38138
101348.867171
101389.177415
101435.240425
101488.297649
101548.885261
101610.965515
101652.318954
101667.92836
101673.674661
101677.566264
101681.294284
101684.957833
101688.470082
101691.872177
101695.165989
101698.204629
101700.983211
101703.61242
101248.664037
101303.172606
101332.12987
101361.752439
101402.366619
101456.455909
101521.696607
101592.223134
101643.405517
101663.651721
101670.408468
101674.474233
101678.249527
101681.984487
101685.586957
101689.081459
101692.474964
101695.620551
101698.492129
101701.203822
101234.461954
101295.729537
101325.356417
101349.241133
101380.568299
101429.529146
101495.348622
101571.429095
101632.528873
101659.016255
101667.299308
101671.605311
101675.396312
101679.160919
101682.824794
101686.391904
101689.870211
101693.114882
101696.078803
101698.876149
101223.856378
101290.189974
101317.370516
101339.595256
101366.183758
101409.766847
101473.338451
101551.59962
101620.682479
101654.014171
101664.235455
101668.851442
101672.674779
101676.471836
101680.19354
101683.82015
101687.363662
101690.69219
101693.745136
101696.63064
101214.188962
101285.670016
101307.608008
101328.258322
101353.269777
101394.429445
101455.940176
101534.353281
101608.843703
101648.632142
101661.068241
101666.057919
101669.948467
101673.807844
101677.617286
101681.324077
101684.940279
101688.352741
101691.496097
101694.470614
101204.035728
101279.550417
101297.122012
101315.322523
101340.032414
101381.194891
101442.140333
101520.307475
101598.090217
101643.211181
101657.857729
101663.261829
101667.204492
101671.133923
101675.056353
101678.874583
101682.59042
101686.104164
101689.34657
101692.411247
101187.322028
101268.377823
101288.774175
101305.718836
101328.750573
101369.479285
101430.417017
101508.597554
101588.651933
101638.077625
101654.763513
101660.584015
101664.593226
101668.553914
101672.569282
101676.503753
101680.335936
101683.966453
101687.316477
101690.474191
101163.590515
101254.406866
101283.621089
101299.851726
101321.539702
101360.230417
101419.970563
101497.887572
101579.893644
101633.228419
101651.908308
101658.105482
101662.210042
101666.226658
101670.299747
101674.31443
101678.241021
101681.977759
101685.431223
101688.681987
101152.569551
101242.742871
101277.253409
101296.731673
101317.097502
101353.309424
101410.375371
101487.351963
101571.168503
101628.508614
101649.365449
101655.988152
101660.134621
101664.181238
101668.312654
101672.387397
101676.373689
101680.184393
101683.721397
101687.05699
101142.852176
101233.334003
101268.124537
101291.08078
101312.709392
101346.962462
101401.467895
101477.141489
101562.462499
101623.806203
101647.082014
101654.199968
101658.377103
101662.408134
101666.579981
101670.711355
101674.749157
101678.614063
101682.214498
101685.620164
101134.653975
101225.151794
101259.330391
101283.19166
101305.90034
101340.506172
101394.00469
101468.853585
101555.169394
101619.727242
101645.150983
101652.674835
101656.869064
101660.882873
101665.076266
101669.257013
101673.348809
101677.266926
101680.923019
101684.386064
101123.748209
101217.041523
101253.430285
101276.51743
101299.40231
101334.373248
101388.005007
101462.953302
101550.135156
101616.862791
101643.62966
101651.405311
101655.58748
101659.580146
101663.791374
101668.015874
101672.153941
101676.127414
101679.840796
101683.35674
101113.345328
101208.654776
101250.662187
101272.575669
101294.432955
101329.015412
101382.938924
101458.256904
101546.392713
101614.782956
101642.474148
101650.400883
101654.546467
101658.503957
101662.720462
101666.98374
101671.161337
101675.186799
101678.956021
101682.524913
101104.327005
101199.233726
101242.917975
101269.750585
101291.582547
101325.015125
101378.164919
101453.598108
101542.786111
101612.878034
101641.612602
101649.671235
101653.77805
101657.687303
101661.885738
101666.162392
101670.381383
101674.445223
101678.26342
101681.884837
101098.189231
101189.647157
101232.238489
101262.634943
101287.69078
101321.128847
101373.087506
101448.181078
101538.474797
101610.732538
101640.790813
101649.122227
101653.235709
101657.1137
101661.293846
101665.571226
101669.81059
101673.910537
101677.769184
101681.439342
101092.429268
101180.331158
101220.785436
101253.693623
101281.288513
101315.943717
101367.639645
101442.351332
101533.579458
101608.250653
101639.993212
101648.704557
101652.841769
101656.70109
101660.885876
101665.189423
101669.455708
101673.587539
101677.485294
101681.199426
101082.470166
101171.306051
101213.941477
101245.926149
101274.899633
101310.857111
101363.176774
101437.866639
101529.683591
101606.223606
101639.480493
101648.48964
101652.620342
101656.450657
101660.644252
101664.98951
101669.300637
101673.4784
101677.420137
101681.175971
101074.640006
101162.469356
101209.794599
101241.573679
101270.288909
101306.618603
101359.506484
101434.886747
101527.271532
101605.096823
101639.324118
101648.530782
101652.629771
101656.421237
101660.618766
101665.00289
101669.362941
101673.585193
101677.573291
101681.371653
101067.146615
101153.630598
101202.170628
101238.247208
101267.735235
101304.230371
101357.13059
101432.536411
101525.306844
101604.306897
101639.521997
101648.88246
101652.931058
101656.664403
101660.844213
101665.25208
101669.653538
101673.916616
101677.943849
101681.783682
101064.679501
101145.669713
101191.827176
101232.791696
101266.072628
101303.274526
101355.579345
101430.200774
101523.117524
101603.453695
101639.886294
101649.508407
101653.53308
101657.206408
101661.349258
101665.758819
101670.18396
101674.484818
101678.545041
101682.41549
101063.059027
101137.930312
101181.260034
101225.922047
101263.531323
101302.426262
101354.137106
101427.597804
101520.276097
101602.215128
101640.268573
101650.331928
101654.376004
101658.012811
101662.130641
101666.538677
101670.973906
101675.293885
101679.386514
101683.285774
101055.034014
101129.61182
101175.653229
101220.75177
101260.779139
101301.213157
101352.67215
101424.940986
101517.339196
101600.964807
101640.889547
101651.379172
101655.435634
101659.045045
101663.159146
101667.583112
101672.031427
101676.359924
101680.468651
101684.395547
101045.672874
101122.037776
101173.640906
101219.372407
101260.033462
101300.729603
101351.724546
101423.179281
101515.468489
101600.677958
101641.966859
101652.743469
101656.768011
101660.333623
101664.439989
101668.882811
101673.34868
101677.685912
101681.802316
101685.741865
101039.427016
101116.925088
101170.337304
101220.890734
101261.85203
101301.750014
101351.592277
101422.023477
101514.523292
101601.20737
101643.603364
101654.507316
101658.449051
101661.942466
101666.014913
101670.454009
101674.924364
101679.265156
101683.384005
101687.325972
101037.150864
101113.558024
101164.431634
101219.186832
101263.352519
101302.792723
101351.048221
101420.740976
101513.702992
101601.972201
101645.602832
101656.640276
101660.499422
101663.907373
101667.916811
101672.318068
101676.765602
101681.091443
101685.199559
101689.134309
101038.808483
101113.099944
101158.959727
101214.226205
101260.513757
101300.896946
101349.261511
101418.633475
101511.991104
101602.364217
101647.691726
101659.057515
101662.873635
101666.201343
101670.132042
101674.468724
101678.865563
101683.151527
101687.229603
101691.145858
101040.936618
101115.480138
101157.836168
101209.345628
101256.906795
101298.234069
101346.465336
101415.005601
101509.431346
101602.992442
101650.05211
101661.688697
101665.460404
101668.708352
101672.560435
101676.830808
101681.170555
101685.406198
101689.444784
101693.337065
101042.879012
101120.162172
101160.831673
101207.347754
101253.014932
101294.21549
101342.262809
101412.188253
101509.847929
101605.105182
101652.800218
101664.450745
101668.131977
101671.293844
101675.075301
101679.293427
101683.592212
101687.793161
101691.805629
101695.680711
101054.671792
101129.002955
101157.341166
101201.432942
101246.656094
101288.329761
101337.990202
101411.837518
101512.284479
101608.845569
101656.103694
101667.306733
101670.830542
101673.905617
101677.625237
101681.800042
101686.073495
101690.263544
101694.271258
101698.14133
101079.950636
101140.006563
101146.826137
101183.886713
101233.493417
101279.528719
101334.004628
101412.811747
101517.502513
101614.64182
101659.806006
101670.128164
101673.494616
101676.52054
101680.203083
101684.344004
101688.601333
101692.79101
101696.805141
101700.687138
101103.354822
101136.488647
101129.149765
101153.999295
101212.007031
101268.190366
101329.727564
101413.737126
101522.183448
101619.698288
101663.103598
101672.741053
101676.050054
101679.091653
101682.771688
101686.899715
101691.15775
101695.362001
101699.406871
101703.330738
101107.132605
101132.381335
101104.16545
101121.94957
101188.443344
101256.454617
101324.849383
101412.414166
101522.849881
101621.599149
101665.4795
101675.221712
101678.55662
101681.605382
101685.285981
101689.452406
101693.764438
101698.026477
101702.126281
101706.093527
101104.663365
101128.804853
101084.134113
101104.278304
101175.422209
101248.283269
101319.918442
101409.822482
101522.146857
101622.628426
101667.684379
101677.82001
101681.184741
101684.208172
101687.920205
101692.150297
101696.527977
101700.845339
101704.988281
101708.99521
101100.551635
101111.569171
101079.407907
101095.61167
101168.506969
101244.202097
101317.006152
101407.410452
101520.294779
101622.757558
101669.98621
101680.681895
101684.061915
101687.057255
101690.760717
101695.027148
101699.456795
101703.822477
101708.013561
101712.067623
101101.348933
101101.662789
101076.56294
101086.666185
101161.437478
101241.710497
101316.126691
101407.226346
101519.691666
101623.2949
101672.595138
101683.877309
101687.2449
101690.177648
101693.83517
101698.102454
101702.565948
101706.978544
101711.224251
101715.328329
101108.888149
101101.747771
101072.089958
101077.503012
101154.035137
101240.990458
101317.799171
101408.881075
101521.148434
101624.781456
101675.656248
101687.447617
101690.772406
101693.598009
101697.20091
101701.448468
101705.921354
101710.360857
101714.639176
101718.777416
101111.776425
101105.602631
101070.373513
101071.695546
101150.330839
101243.389609
101322.752897
101413.138494
101523.639359
101627.175525
101679.115411
101691.327101
101694.604759
101697.316764
101700.815982
101705.041594
101709.524137
101713.978502
101718.267856
101722.415128
101112.463212
101107.797277
101066.359749
101070.036245
101150.976998
101248.515561
101329.530197
101419.129477
101527.587943
101630.391771
101682.883551
101695.379799
101698.61969
101701.251366
101704.663074
101708.836235
101713.313339
101717.78243
101722.088762
101726.242261
101112.089137
101109.692195
101063.848372
101068.007077
101154.64468
101255.747308
101337.569362
101426.480453
101533.359372
101634.79309
101687.189877
101699.639961
101702.786419
101705.338792
101708.688874
101712.82327
101717.281931
101721.747142
101726.063002
101730.235009
101128.194784
101116.94492
101060.161782
101062.610399
101154.486493
101262.537427
101345.894532
101434.104427
101539.749991
101640.229339
101691.951118
101704.094328
101707.091766
101709.549183
101712.840414
101716.950434
101721.402106
101725.864504
101730.181695
101734.364019
101147.909036
101125.251674
101059.084422
101058.35365
101149.338464
101265.866496
101352.123632
101439.449706
101543.884903
101644.365417
101696.642461
101708.57209
101711.4563
101713.841645
101717.084527
101721.177339
101725.632982
101730.106142
101734.43395
101738.625993
101147.66577
101131.10604
101054.590698
101056.771199
101142.136798
101265.691098
101354.661437
101441.431624
101545.952126
101647.388555
101700.552405
101712.981015
101715.877276
101718.229775
101721.438013
101725.51711
101729.978736
101734.466756
101738.811081
101743.017404
101144.964306
101134.280148
101052.890828
101052.062066
101141.290184
101266.524943
101355.848084
101442.335595
101546.675072
101649.222141
101704.233798
101717.4025
101720.392779
101722.736567
101725.922102
101729.996046
101734.465816
101738.964911
101743.321644
101747.541887
101142.988006
101135.569953
101050.086793
101051.71003
101143.348285
101268.83787
101357.015741
101442.062656
101545.076814
101649.281384
101707.56657
101721.899607
101725.018575
101727.356893
101730.527372
101734.610452
101739.098854
101743.610488
101747.976968
101752.20947
101148.114712
101138.801336
101048.538913
101048.133378
101146.003541
101272.310177
101358.204762
101440.677292
101542.116116
101648.450296
101710.754939
101726.535441
101729.785604
101732.110538
101735.262847
101739.356746
101743.868855
101748.398788
101752.779482
101757.026028
101153.366965
101144.913949
101047.192423
101047.273415
101144.236354
101272.863308
101358.5261
101438.491878
101538.599734
101647.414961
101713.949342
101731.309009
101734.710347
101737.026744
101740.157151
101744.251521
101748.779736
101753.327882
101757.726212
101761.988526
101151.184622
101150.979074
101049.645507
101044.198584
101142.542412
101272.274824
101357.121884
101434.74884
101533.90074
101645.658109
101716.904507
101736.160772
101739.796453
101742.131431
101745.240378
101749.319256
101753.848222
101758.405942
101762.816529
101767.091953
101138.067742
101155.408819
101054.927056
101045.761827
101144.831885
101271.823353
101353.699769
101428.917864
101527.35616
101642.287062
101719.167775
101740.975211
101745.012152
101747.404393
101750.499122
101754.556115
101759.079402
101763.639898
101768.055874
101772.342598
101116.786154
101153.673046
101056.405482
101048.883826
101149.423006
101270.470111
101348.144099
101421.790315
101520.629081
101639.155842
101721.585254
101745.930616
101750.338138
101752.791928
101755.882148
101759.929879
101764.460874
101769.032738
101773.459356
101777.754928
101097.88393
101152.592412
101054.251979
101047.650913
101148.048667
101266.322957
101341.397483
101416.083528
101518.755164
101641.484513
101726.096445
101751.216542