/*--------------------------------*- C++ -*----------------------------------*\
| =========                 |                                                 |
| \\      /  F ield         | OpenFOAM: The Open Source CFD Toolbox           |
|  \\    /   O peration     | Version:  2312                                  |
|   \\  /    A nd           | Website:  www.openfoam.com                      |
|    \\/     M anipulation  |                                                 |
\*---------------------------------------------------------------------------*/
FoamFile
{
    version     2.0;
    format      ascii;
    arch        "LSB;label=32;scalar=64";
    class       volVectorField;
    location    "0.52/water";
    object      U.gas;
}
// * * * * * * * * * * * * * * * * * * * * * * * * * * * * * * * * * * * * * //

dimensions      [0 1 -1 0 0 0 0];

internalField   nonuniform List<vector> 
1503
(
(0.0635779097019 0.325119386916 0)
(0.107578223998 0.205725532553 0)
(0.102151597055 0.179601900219 0)
(0.112028749335 0.161551998794 0)
(0.11022666032 0.155795499685 0)
(0.111106382698 0.151762493661 0)
(0.0999247110913 0.149562489341 0)
(0.0812029352204 0.156364021912 0)
(0.0752515841736 0.244703304255 0)
(0.0720750369025 0.282687597889 0)
(0.0619083588663 0.285586000304 0)
(0.0541893658484 0.286757199044 0)
(0.0465219283574 0.287922132205 0)
(0.0390805750729 0.28901507253 0)
(0.0317678874125 0.290007595966 0)
(0.024582311711 0.290843892522 0)
(0.0176178228466 0.29146597329 0)
(0.0110503913319 0.29184260645 0)
(0.00506893782552 0.291988304713 0)
(-0.000200207219774 0.291955097006 0)
(0.0263277257958 0.670207532408 0)
(0.0714665528041 0.463652415139 0)
(0.0897225938974 0.404437904075 0)
(0.0955130325239 0.369500432025 0)
(0.102143721177 0.354545342219 0)
(0.103212011799 0.346080942517 0)
(0.101519812337 0.341737466736 0)
(0.0927467732833 0.349776877676 0)
(0.0631878093169 0.467600048354 0)
(0.0287546854232 0.523306889965 0)
(0.0161192008446 0.523913899761 0)
(0.0135123196494 0.523938233835 0)
(0.0113641545354 0.524098366436 0)
(0.00944788916002 0.524292542373 0)
(0.00769478693993 0.52449317905 0)
(0.00607269670562 0.524656064368 0)
(0.00457106640322 0.524731546926 0)
(0.00318418974105 0.524686871649 0)
(0.00190516458261 0.524524571017 0)
(0.000731784115513 0.524280404693 0)
(0.0300850199273 0.763545730991 0)
(0.0683503700222 0.572557630041 0)
(0.0786728371233 0.492525402861 0)
(0.0840465975756 0.452261104582 0)
(0.0886803494281 0.430300880963 0)
(0.0906002396301 0.418204062246 0)
(0.0905981762735 0.411446825522 0)
(0.0871245739197 0.411134595087 0)
(0.0724997507182 0.453135768443 0)
(0.0373484455485 0.486153515317 0)
(0.0117803840734 0.486366529722 0)
(0.00911514656418 0.484508555684 0)
(0.00795231150642 0.48287284161 0)
(0.00681023376898 0.481391370817 0)
(0.00570620419407 0.480041683594 0)
(0.00460473986368 0.478836863874 0)
(0.00348705528405 0.477796333526 0)
(0.00235397772886 0.476931653203 0)
(0.00121904329013 0.476242827772 0)
(0.00011584602375 0.475723977841 0)
(0.0410973795126 0.871218210655 0)
(0.0852883350278 0.675996959145 0)
(0.0889384208876 0.5687037545 0)
(0.0900600117204 0.51515997411 0)
(0.0900058619062 0.485514918404 0)
(0.0882840305201 0.467511484777 0)
(0.0856852539936 0.456105108167 0)
(0.081756484368 0.450534393422 0)
(0.074102238086 0.466455679836 0)
(0.0485412090649 0.489080646285 0)
(0.0162932360595 0.49497417461 0)
(0.00417282378566 0.493713966965 0)
(0.00365952039843 0.492496055052 0)
(0.00304773656309 0.491379483924 0)
(0.00243335007207 0.490307667312 0)
(0.00181797311731 0.489275460559 0)
(0.00117712488219 0.48830217535 0)
(0.000494927637751 0.48741538305 0)
(-0.000227596824843 0.486642694002 0)
(-0.000958692360875 0.486009195801 0)
(0.0483227870454 0.925184014717 0)
(0.0994715482143 0.757336631182 0)
(0.101160115244 0.632575074318 0)
(0.0993939965275 0.563845039655 0)
(0.0969877105803 0.525832147705 0)
(0.0927635014695 0.502352425736 0)
(0.0873763851182 0.486677000999 0)
(0.0811988110804 0.476607781564 0)
(0.0736584837549 0.478612599248 0)
(0.0590468646632 0.488362605177 0)
(0.0258647474191 0.493994947837 0)
(0.00178539556643 0.493575097621 0)
(0.00039864844588 0.492356872605 0)
(1.83918678571e-05 0.491317247715 0)
(-0.000365369356568 0.490334344123 0)
(-0.000724979062576 0.489382189773 0)
(-0.00107811913415 0.488468035948 0)
(-0.00144870890781 0.487615409272 0)
(-0.00184842334918 0.486853771525 0)
(-0.00225606527537 0.486212921773 0)
(0.0530531345746 0.954600863476 0)
(0.108248268922 0.814827192002 0)
(0.108402316137 0.689922321039 0)
(0.105183546155 0.606075610751 0)
(0.102275418415 0.558867233935 0)
(0.0980428217483 0.529641867429 0)
(0.0919245493839 0.509791723479 0)
(0.0841672156928 0.495867607129 0)
(0.0753493495104 0.490091156836 0)
(0.0643756382288 0.491499347862 0)
(0.0366408906123 0.494185970165 0)
(0.00633481008719 0.49463467436 0)
(-0.00262359451705 0.493360804488 0)
(-0.0027283384755 0.492336584334 0)
(-0.0028594104889 0.491412516357 0)
(-0.00297672840661 0.490542095 0)
(-0.00308369598659 0.489713543334 0)
(-0.00319883105428 0.488937179017 0)
(-0.00333571338786 0.488235515606 0)
(-0.00347733535714 0.487635629762 0)
(0.0538343838601 0.97009828122 0)
(0.109186123901 0.85169586079 0)
(0.109197935247 0.736379548677 0)
(0.105993475814 0.645489083041 0)
(0.103043420719 0.587657948436 0)
(0.100036197188 0.552383394536 0)
(0.095240626247 0.528260952086 0)
(0.0878745582137 0.510731695673 0)
(0.0785771393456 0.49981959596 0)
(0.0678712353627 0.49539794306 0)
(0.0498837365158 0.494632599212 0)
(0.0161501226146 0.494112680173 0)
(-0.00548909839067 0.493461661188 0)
(-0.00549234989498 0.492467142557 0)
(-0.00522048143622 0.491629934991 0)
(-0.00500679729675 0.490868348348 0)
(-0.00483012954881 0.490155661567 0)
(-0.00469017073405 0.489490977041 0)
(-0.00459028556723 0.488888804108 0)
(-0.00450935764421 0.488371892674 0)
(0.0525047170104 0.983020508462 0)
(0.106335007626 0.876480659291 0)
(0.106819764392 0.771278286934 0)
(0.1041988661 0.682234019398 0)
(0.101338853277 0.615546431635 0)
(0.0992727609941 0.573012842325 0)
(0.0962803789335 0.544369635139 0)
(0.0906008360312 0.52318109484 0)
(0.0819828555234 0.508193393263 0)
(0.0714866986371 0.499430141102 0)
(0.0584240681237 0.49545700348 0)
(0.0273274729984 0.49331798598 0)
(-0.00214004008899 0.492792927836 0)
(-0.00766211559565 0.491894688599 0)
(-0.00701783937448 0.491269398451 0)
(-0.00650193984999 0.490705321411 0)
(-0.00607787960462 0.490178082212 0)
(-0.00572879152209 0.489682332312 0)
(-0.00544515593968 0.48922878062 0)
(-0.00520310915697 0.488837450928 0)
(0.0535147011971 0.993777390034 0)
(0.10892328833 0.893939927537 0)
(0.108766950579 0.798526607718 0)
(0.104489330424 0.714852762687 0)
(0.100532535354 0.645175021153 0)
(0.0980246718829 0.594114335997 0)
(0.0961513860692 0.559967974101 0)
(0.092368169125 0.534820204426 0)
(0.0852113578452 0.516053349482 0)
(0.0753692718845 0.503524314213 0)
(0.0637476824068 0.496548513014 0)
(0.0444268983527 0.493220732275 0)
(0.0112943585499 0.490935598167 0)
(-0.00845380543872 0.49081177382 0)
(-0.00776416366831 0.490453864682 0)
(-0.00708261757816 0.490154587772 0)
(-0.0065311751583 0.489869687721 0)
(-0.00608142951809 0.489591061378 0)
(-0.00571608073582 0.489327236479 0)
(-0.00541193159452 0.489094826702 0)
(0.0543169216037 0.997504582999 0)
(0.110928139051 0.903325026362 0)
(0.110425684753 0.818588999922 0)
(0.105069218517 0.7422139743 0)
(0.100592553418 0.674456920266 0)
(0.0978067674452 0.617458397327 0)
(0.0963851843932 0.576207899049 0)
(0.0941652923133 0.546840283968 0)
(0.0887656067731 0.524353792805 0)
(0.0798349981075 0.508150759596 0)
(0.0690441906748 0.498248647883 0)
(0.0557422051096 0.493215616447 0)
(0.0254698853661 0.490110521726 0)
(-0.00229560171387 0.489529965778 0)
(-0.00712096098409 0.489478959693 0)
(-0.00645817249518 0.489483195143 0)
(-0.00595109775225 0.489471809517 0)
(-0.00555847261953 0.489435664976 0)
(-0.00525878839979 0.489379883972 0)
(-0.00502764542644 0.489318315405 0)
(0.0536830979107 0.994523364581 0)
(0.109842889204 0.905692949685 0)
(0.10962856838 0.831026899021 0)
(0.104911064569 0.76311306745 0)
(0.101532154548 0.700114292635 0)
(0.0995199452622 0.642437300376 0)
(0.0986188781018 0.594834890179 0)
(0.0974607985864 0.560767710047 0)
(0.0935397177708 0.534411874703 0)
(0.0856124665878 0.514344722984 0)
(0.0751864480191 0.501253527124 0)
(0.0636139773196 0.494190244746 0)
(0.0457412997433 0.491036949116 0)
(0.0145619069075 0.487686641385 0)
(-0.00468093399164 0.488699702322 0)
(-0.00440652012021 0.48902529299 0)
(-0.00418355078206 0.489294877761 0)
(-0.00406468967201 0.489494937668 0)
(-0.00402680225724 0.489630078949 0)
(-0.00403850896998 0.489715838473 0)
(0.0514227543331 0.988654773992 0)
(0.105962042427 0.90457616068 0)
(0.107082802766 0.837900720416 0)
(0.104119890958 0.777993423221 0)
(0.10279334419 0.721398038453 0)
(0.102633652938 0.666970748406 0)
(0.102833069183 0.617342070651 0)
(0.102119064678 0.578197055618 0)
(0.0989388975836 0.547676524397 0)
(0.0919073714243 0.52338782143 0)
(0.0819006871987 0.506606955619 0)
(0.071345868898 0.497179392442 0)
(0.0589940581332 0.492761569795 0)
(0.0306299568865 0.488652739953 0)
(0.00441774815619 0.488694759551 0)
(-0.000867184323979 0.489303992421 0)
(-0.00127992897434 0.489778292546 0)
(-0.00172123979046 0.490131755144 0)
(-0.00217783254548 0.490372800167 0)
(-0.00261913224956 0.490522400975 0)
(0.047282452174 0.988164364808 0)
(0.0981770515416 0.9044889052 0)
(0.100830729249 0.84209902948 0)
(0.100505013718 0.788458031665 0)
(0.102358246968 0.738630279505 0)
(0.10485161719 0.689713675633 0)
(0.106391323713 0.642406038558 0)
(0.105839911935 0.599720826881 0)
(0.10282664656 0.564773170775 0)
(0.0966064870837 0.536108731614 0)
(0.08752511737 0.515235594619 0)
(0.0775788225806 0.502876818211 0)
(0.0671383486365 0.496718891274 0)
(0.048879466504 0.493505740306 0)
(0.0202561558358 0.489589243979 0)
(0.00357078144886 0.490897492877 0)
(0.00214942679435 0.491377026655 0)
(0.000903583622086 0.491695615736 0)
(-0.000227958851827 0.491869710909 0)
(-0.00123080970483 0.491926044417 0)
(0.045337493103 0.997165228324 0)
(0.0957747613605 0.908404101926 0)
(0.0992711376483 0.847368305896 0)
(0.0989659465471 0.797848978211 0)
(0.102258582559 0.754296241438 0)
(0.106107564968 0.71179935788 0)
(0.108380202194 0.668737278214 0)
(0.107653319525 0.625123510553 0)
(0.104267413553 0.585604856903 0)
(0.0985804806982 0.552790830134 0)
(0.0906382502269 0.527719389666 0)
(0.0814475012507 0.511771382615 0)
(0.0720724493956 0.503241911285 0)
(0.0594275843617 0.499259949176 0)
(0.0313743599002 0.492897450243 0)
(0.00867438658705 0.494226396528 0)
(0.00491008999101 0.494393739313 0)
(0.00276839899121 0.494372558808 0)
(0.000934248915209 0.494218287679 0)
(-0.000619271387647 0.493959599604 0)
(0.0442765395783 1.0155418318 0)
(0.0948083136547 0.918183224394 0)
(0.0990354881097 0.857162025346 0)
(0.0982647909701 0.810261112972 0)
(0.101496570781 0.771832541094 0)
(0.105245976203 0.735229138671 0)
(0.107243825341 0.69637939874 0)
(0.106050995851 0.653204995424 0)
(0.10242355843 0.609565895155 0)
(0.097221929232 0.572859227639 0)
(0.0901853548433 0.543679667144 0)
(0.0816369703935 0.523592635563 0)
(0.0727697794692 0.511788749663 0)
(0.0621754642965 0.505694986149 0)
(0.0382010245363 0.500206981233 0)
(0.0135258912101 0.499290282845 0)
(0.00509901943599 0.49871514673 0)
(0.00237107915925 0.497971748557 0)
(0.000128521677468 0.497186167388 0)
(-0.00170195714446 0.496376465815 0)
(0.0441118306674 1.04140665068 0)
(0.0951631470449 0.934774398576 0)
(0.0996569778154 0.87289048997 0)
(0.097718971169 0.828070635411 0)
(0.0994789283628 0.793473402465 0)
(0.101975743 0.761022831015 0)
(0.103151224128 0.724944784076 0)
(0.101627336238 0.682019516433 0)
(0.0980224961132 0.635248701346 0)
(0.0929841040247 0.594486574484 0)
(0.086156098026 0.561346495896 0)
(0.077721790585 0.536842576349 0)
(0.0685645000965 0.521028937101 0)
(0.0581134843914 0.511949972719 0)
(0.0397545767666 0.507193866235 0)
(0.0147452378893 0.50503269455 0)
(0.000846959785095 0.503458534675 0)
(-0.00171946885887 0.501696573374 0)
(-0.00369584022388 0.500070083275 0)
(-0.0052354250704 0.498567547266 0)
(0.0447984277136 1.07173939918 0)
(0.0960588505719 0.959302467742 0)
(0.0997468957409 0.896001126947 0)
(0.0964426297118 0.852887623162 0)
(0.0961839638457 0.820468654412 0)
(0.0968764423259 0.789349387512 0)
(0.0968759334168 0.753299004963 0)
(0.0951325831035 0.70931317008 0)
(0.091629675873 0.660243495396 0)
(0.0863438576785 0.615081684878 0)
(0.0791628352431 0.57761243377 0)
(0.0703554331192 0.548759744881 0)
(0.0604927243356 0.528664926097 0)
(0.049591011196 0.515932275256 0)
(0.0353720460827 0.509270655707 0)
(0.00992795756031 0.508732034211 0)
(-0.00836203377285 0.506937721963 0)
(-0.010131385274 0.504175878234 0)
(-0.0109113916449 0.501743725896 0)
(-0.0113978432096 0.499625466027 0)
(0.0460459778703 1.10904062228 0)
(0.0959118410075 0.993681539073 0)
(0.0962126519995 0.926976536774 0)
(0.0905896161055 0.883970906995 0)
(0.087523575977 0.850764346247 0)
(0.0864341096045 0.816881880573 0)
(0.0861926722537 0.777358273253 0)
(0.0853719360816 0.730714658235 0)
(0.0828462291022 0.679838465392 0)
(0.0779880302687 0.631044594478 0)
(0.0709739327009 0.588932339998 0)
(0.0622054801204 0.555793310193 0)
(0.0516718666179 0.531839001745 0)
(0.0399043316394 0.515495677776 0)
(0.0270002070941 0.506137786491 0)
(0.00381919823182 0.505216922026 0)
(-0.0176822992865 0.507358675754 0)
(-0.0221873663769 0.50366698297 0)
(-0.0208022950694 0.500906790312 0)
(-0.0194701468011 0.498582314063 0)
(0.0501673618668 1.14724787456 0)
(0.0991214677085 1.03179666858 0)
(0.0907697914175 0.961501517157 0)
(0.0789278484069 0.915953889846 0)
(0.0723368210987 0.877724327585 0)
(0.0707731803371 0.83689888143 0)
(0.0720489875358 0.791401395378 0)
(0.0734032339953 0.741314818795 0)
(0.0731890015208 0.689001202571 0)
(0.070857518237 0.638771446546 0)
(0.0660716974309 0.59406284824 0)
(0.0584190485193 0.557304242236 0)
(0.0476850366181 0.529338426319 0)
(0.0346392213946 0.510047556315 0)
(0.0214884436874 0.498665145512 0)
(0.00664715893013 0.495256493564 0)
(-0.0195344776871 0.500108512471 0)
(-0.035107735765 0.498932313778 0)
(-0.0311659820518 0.496655757584 0)
(-0.0276323740297 0.494867426771 0)
(0.0501128539392 1.17106935563 0)
(0.0943923248068 1.06022974276 0)
(0.0803210075007 0.990755019852 0)
(0.0667699045135 0.942210863719 0)
(0.059739883237 0.896500635512 0)
(0.0590891365753 0.846863141333 0)
(0.0620998540535 0.7950242456 0)
(0.0657530680844 0.741882955483 0)
(0.0685551127684 0.688720752578 0)
(0.0695327292422 0.638756627674 0)
(0.0672768270999 0.594767656669 0)
(0.0610575565827 0.556911310789 0)
(0.0512852161063 0.525072620193 0)
(0.038393287818 0.502528314387 0)
(0.0246673430608 0.489486043833 0)
(0.0120540848063 0.484681894758 0)
(-0.0120095859438 0.487347380765 0)
(-0.0357257981505 0.490619500162 0)
(-0.0385554891807 0.489371091775 0)
(-0.0332569815891 0.48890371682 0)
(0.0486214892144 1.18134046883 0)
(0.0918064605434 1.07809134298 0)
(0.0795990595406 1.01331914117 0)
(0.0682043444857 0.964397982727 0)
(0.0617829135815 0.912011649903 0)
(0.0609106347649 0.853694598722 0)
(0.0639602567987 0.795775360885 0)
(0.0683566077085 0.739863662192 0)
(0.0724614074012 0.686098285586 0)
(0.0750526367233 0.636902482407 0)
(0.0744020742764 0.595053075009 0)
(0.0691193314686 0.558433618831 0)
(0.0600386831653 0.525094992733 0)
(0.0484966210466 0.498197038766 0)
(0.0354044432292 0.4826850594 0)
(0.0233232552806 0.476723563015 0)
(0.00966158130669 0.477360160879 0)
(-0.0205103212666 0.479502609552 0)
(-0.0395081687691 0.481214106198 0)
(-0.0340823788535 0.482246494209 0)
(0.0487408960788 1.18721571739 0)
(0.0933202251177 1.09206588177 0)
(0.0839894503464 1.0327576982 0)
(0.0750270459799 0.986663000286 0)
(0.0696635350822 0.930166955648 0)
(0.0689742339261 0.864310198449 0)
(0.0719606558007 0.800562246044 0)
(0.0764175259489 0.741642027832 0)
(0.0810588919047 0.687034755606 0)
(0.0845599709126 0.639115716333 0)
(0.0845803336367 0.599164774681 0)
(0.0794519009834 0.56406810304 0)
(0.0701370477206 0.531375294551 0)
(0.0593553257418 0.500455037942 0)
(0.0481132079423 0.481466485906 0)
(0.0377313658493 0.473506313071 0)
(0.0279124389511 0.472622184911 0)
(0.000714936016842 0.47238897074 0)
(-0.0264374157714 0.474769099507 0)
(-0.029550146412 0.476808519376 0)
(0.0465660356108 1.19511668371 0)
(0.0898220976486 1.10348052001 0)
(0.0822885130027 1.04747137679 0)
(0.075547561025 1.00468637057 0)
(0.0726039881323 0.946770937216 0)
(0.0737436229344 0.876257837183 0)
(0.0778011087801 0.80835995338 0)
(0.0832809657054 0.747127929515 0)
(0.0895021765243 0.692625520776 0)
(0.0942037269917 0.647172487558 0)
(0.0942774324225 0.608502917718 0)
(0.0889026699815 0.574071779097 0)
(0.0792837835124 0.54241760428 0)
(0.0685590360934 0.509335926732 0)
(0.0588158999649 0.48658574282 0)
(0.0500957547516 0.475542717231 0)
(0.0420434953325 0.472935719773 0)
(0.0256718454239 0.473217582687 0)
(-0.00434858855892 0.471050417176 0)
(-0.0209068893752 0.473792217651 0)
(0.0459408705527 1.2029183312 0)
(0.0895645844719 1.11043804236 0)
(0.0825276669942 1.05693249494 0)
(0.0756638481147 1.01559661276 0)
(0.073790815293 0.957210811699 0)
(0.0763358379692 0.885027733349 0)
(0.082009717618 0.815527666877 0)
(0.0896958757087 0.753930609135 0)
(0.097487170566 0.701940037843 0)
(0.102156689445 0.660012855831 0)
(0.102132165177 0.622573519374 0)
(0.0970131048151 0.588003078421 0)
(0.0873175343187 0.557004139658 0)
(0.0764052275561 0.523569906935 0)
(0.0671243935134 0.497262256769 0)
(0.0593622959389 0.482300788424 0)
(0.0524817205468 0.477272211762 0)
(0.0421190448829 0.47727285501 0)
(0.0130137036433 0.470007139093 0)
(-0.00980218268694 0.473335165079 0)
(0.0452332790555 1.2097124667 0)
(0.0890360592482 1.11401711354 0)
(0.0824493705429 1.0634948889 0)
(0.075555410087 1.02155461546 0)
(0.0747934269719 0.962188192997 0)
(0.0790078547736 0.89011404344 0)
(0.0869473042984 0.821317690038 0)
(0.0967142828273 0.761857841668 0)
(0.104736798788 0.714623910001 0)
(0.108630718039 0.676210817046 0)
(0.108742651347 0.640599933845 0)
(0.104334159067 0.606066658214 0)
(0.0950844518752 0.575404696828 0)
(0.0836311311297 0.54262784303 0)
(0.0735131751274 0.512593090846 0)
(0.0657512414242 0.492864022359 0)
(0.0593756290003 0.484489579551 0)
(0.0510597017214 0.482857583298 0)
(0.0254118952564 0.471889694941 0)
(0.00168949538046 0.474926001376 0)
(0.0438827950413 1.22045089451 0)
(0.0868246624517 1.11803529773 0)
(0.0811873394879 1.06829860428 0)
(0.0757212822135 1.02410106612 0)
(0.0769472940468 0.963598252828 0)
(0.0833607623791 0.893004986159 0)
(0.0935315821881 0.826910305402 0)
(0.103939237242 0.771994732527 0)
(0.110774501834 0.730214137212 0)
(0.114149702979 0.694933656547 0)
(0.11485323764 0.661408397717 0)
(0.111471151588 0.627731896834 0)
(0.102986394888 0.598177761048 0)
(0.0902655948737 0.566885600365 0)
(0.0780173878756 0.531428072318 0)
(0.0694397793857 0.506087175661 0)
(0.0628287520351 0.493444281427 0)
(0.0546879036399 0.489365630801 0)
(0.0329743500619 0.476712954387 0)
(0.0107636279641 0.477896007519 0)
(0.0422057393958 1.23641022495 0)
(0.0843775079739 1.12438680116 0)
(0.0806661229456 1.07171694612 0)
(0.0774540271081 1.02423922668 0)
(0.0810607702207 0.96335318125 0)
(0.08960227846 0.895611445657 0)
(0.100886776672 0.833722068979 0)
(0.110411845437 0.784880760925 0)
(0.115968051426 0.747704512456 0)
(0.119298522655 0.71518215577 0)
(0.120795935117 0.683515530155 0)
(0.118859246962 0.65150829124 0)
(0.110656601104 0.624479143147 0)
(0.0949957350085 0.594829298716 0)
(0.0798215846248 0.552296036693 0)
(0.0706252490045 0.520670360284 0)
(0.0634053199199 0.502812689742 0)
(0.0544459644894 0.495655774067 0)
(0.0362418505953 0.484561682521 0)
(0.0164970365336 0.481430917354 0)
(0.0392158422019 1.26213185685 0)
(0.0794309093734 1.13439278852 0)
(0.0782626814385 1.07354032114 0)
(0.0782573368279 1.02192896334 0)
(0.0849384761382 0.962370403013 0)
(0.095616466647 0.899181400679 0)
(0.106932913598 0.842596064251 0)
(0.114980700035 0.799988982457 0)
(0.119955601684 0.766276642491 0)
(0.123792694703 0.735933275447 0)
(0.126202632515 0.705713490336 0)
(0.125172579113 0.676026998216 0)
(0.11435458666 0.651597332649 0)
(0.0952299728427 0.622285907258 0)
(0.079930129816 0.57577202276 0)
(0.0706579329422 0.535930146379 0)
(0.0622854501991 0.511795133638 0)
(0.0521369809907 0.50111221402 0)
(0.0366884580893 0.49391970299 0)
(0.0194932774966 0.484909074528 0)
(0.0389149255712 1.29340375328 0)
(0.0811952727365 1.14647661624 0)
(0.0821522025043 1.07607957263 0)
(0.0825099200425 1.02036151663 0)
(0.0902686399672 0.963421610924 0)
(0.101372230618 0.905678191645 0)
(0.111527844065 0.854722122957 0)
(0.117974644425 0.817050183535 0)
(0.122618252954 0.785892459003 0)
(0.12666725125 0.756954252296 0)
(0.129480523891 0.728013212042 0)
(0.126021690431 0.701047275428 0)
(0.111100177682 0.677229326993 0)
(0.093106454509 0.647123526762 0)
(0.07928994507 0.601923649785 0)
(0.06849359885 0.551432333862 0)
(0.0593161836411 0.520702346039 0)
(0.0486465915999 0.506077927181 0)
(0.0345998717242 0.50077055867 0)
(0.0196854185233 0.48851145521 0)
(0.0395011322169 1.32048072473 0)
(0.0854107793257 1.15913073292 0)
(0.0891608719551 1.08411134372 0)
(0.0889960489847 1.02611373732 0)
(0.0959960130002 0.971382451618 0)
(0.105639125304 0.917820533082 0)
(0.1137357981 0.871401882687 0)
(0.118843931755 0.836777410783 0)
(0.122963977317 0.807138350147 0)
(0.126533188189 0.778791428535 0)
(0.127802989441 0.751345917663 0)
(0.119333802928 0.726118517028 0)
(0.102753880127 0.700069807524 0)
(0.0875960895366 0.669151649189 0)
(0.0744578834662 0.627196198658 0)
(0.0634916128036 0.568183943892 0)
(0.0544519947994 0.530579261865 0)
(0.0440983457384 0.511362013108 0)
(0.0304151608282 0.504512532804 0)
(0.0169569310274 0.493459318867 0)
(0.0414451646223 1.34191236435 0)
(0.0921957676461 1.17800049711 0)
(0.0978735727778 1.10398633035 0)
(0.0954223619343 1.04582088006 0)
(0.0998115465721 0.990815087688 0)
(0.106711355974 0.937992297169 0)
(0.112532163284 0.89354427958 0)
(0.116245782346 0.860158167512 0)
(0.119214236721 0.83065857586 0)
(0.121461609767 0.801792668927 0)
(0.116913135506 0.774413289446 0)
(0.103121658088 0.748045839269 0)
(0.0893149820298 0.719316869951 0)
(0.0780245902157 0.687777164844 0)
(0.0666715676471 0.648457594346 0)
(0.0566423657212 0.586936857458 0)
(0.0476694396921 0.541298402175 0)
(0.0374995288189 0.516929330685 0)
(0.0239912480692 0.506779202676 0)
(0.0100855162613 0.50013844807 0)
(0.0446364417804 1.37179667547 0)
(0.0980496583688 1.21723818804 0)
(0.101126462212 1.14675108285 0)
(0.0944955360468 1.08727021315 0)
(0.0954544157041 1.02526262619 0)
(0.0998508218482 0.967639455981 0)
(0.103523833866 0.921842149533 0)
(0.105220025409 0.887483697046 0)
(0.105669919672 0.855590528429 0)
(0.101917836188 0.822741283332 0)
(0.0916244646597 0.792376522616 0)
(0.0808118019135 0.762696112104 0)
(0.072723791226 0.732472918614 0)
(0.0645824523564 0.700689275776 0)
(0.0560462044527 0.663297860186 0)
(0.0477645091798 0.604368714068 0)
(0.0395016341743 0.550905754709 0)
(0.0292246844065 0.521526740224 0)
(0.0155320107794 0.507151282441 0)
(-0.000531688447087 0.503094520264 0)
(0.0476546482493 1.42912383153 0)
(0.0959061942357 1.29096659272 0)
(0.0875390023656 1.22328451652 0)
(0.0748747928423 1.15584595987 0)
(0.0719206548073 1.07373070996 0)
(0.0741304376386 1.00291509272 0)
(0.0754874019697 0.952232594596 0)
(0.0739299205045 0.913684190093 0)
(0.0696681763727 0.875551877422 0)
(0.0631583223565 0.835028166115 0)
(0.0573239262237 0.799088934883 0)
(0.0541823103333 0.765943675047 0)
(0.0517959114553 0.734928281933 0)
(0.0483980660101 0.703881374739 0)
(0.0440843931322 0.668762948003 0)
(0.0390320806247 0.616134233885 0)
(0.0321499280781 0.558255031496 0)
(0.0213151513673 0.523664842695 0)
(0.00696740762616 0.50466549265 0)
(-0.00898273414838 0.499062441299 0)
(0.0545210581626 1.49396870598 0)
(0.0961139899758 1.38891363873 0)
(0.0679890270063 1.32795596364 0)
(0.0434993420765 1.24683294193 0)
(0.0309068418697 1.1326221464 0)
(0.0267120842447 1.03670718636 0)
(0.0247577573614 0.975105377015 0)
(0.0224678987337 0.928598576415 0)
(0.0207013516313 0.881769046981 0)
(0.0208332322615 0.833182726894 0)
(0.0233208291935 0.792037332046 0)
(0.0270680006723 0.756600484587 0)
(0.0303133607243 0.724666318062 0)
(0.0325068346414 0.694705755877 0)
(0.0339402571686 0.662892831614 0)
(0.0334555774577 0.61987341543 0)
(0.0278758784449 0.564548623321 0)
(0.0158302008825 0.521709087469 0)
(0.000482762460078 0.498486374394 0)
(-0.0151586873585 0.490362910112 0)
(0.053820139687 1.53234800112 0)
(0.0876892277402 1.47433825208 0)
(0.0540103914589 1.4258302188 0)
(0.027482489635 1.33951142584 0)
(0.00450030285757 1.20047640917 0)
(-0.0108350195871 1.07262447357 0)
(-0.016865987882 0.988342110261 0)
(-0.0163693534909 0.928234298144 0)
(-0.0123339499477 0.872142511978 0)
(-0.00643789450886 0.817458817864 0)
(0.000683358785316 0.774178939321 0)
(0.00825941037252 0.738490602856 0)
(0.0152115543525 0.705197416003 0)
(0.0218180998103 0.675025601048 0)
(0.0281933809944 0.646560854005 0)
(0.0309516988141 0.615322457881 0)
(0.026335429511 0.568838758317 0)
(0.0149333079322 0.516354985136 0)
(-0.000743992931168 0.489041805292 0)
(-0.0171350396942 0.478600472098 0)
(0.0479513668005 1.55060637956 0)
(0.083327243407 1.51976639372 0)
(0.0648448216249 1.48238863119 0)
(0.0492282957687 1.4141776161 0)
(0.025445861292 1.2806342347 0)
(0.000429414121777 1.12639510564 0)
(-0.0146565051855 1.00818703901 0)
(-0.0180781914679 0.924513735274 0)
(-0.0147449452768 0.856330972824 0)
(-0.0089133828077 0.796386293872 0)
(-0.00184208307073 0.752177167559 0)
(0.00597405764315 0.717506529684 0)
(0.013601023358 0.683549414924 0)
(0.0211173535729 0.6520505684 0)
(0.0282951254673 0.62516694625 0)
(0.0312992152201 0.604829749116 0)
(0.0283479142664 0.567922933845 0)
(0.0198894998937 0.512429159703 0)
(0.00514777313928 0.478714386393 0)
(-0.01171533244 0.46594359826 0)
(0.0484464310359 1.55940452098 0)
(0.0918143601067 1.529259541 0)
(0.0848575217335 1.50083615258 0)
(0.0789724229645 1.45867067706 0)
(0.064323762695 1.36298299455 0)
(0.0401895281449 1.20413873765 0)
(0.0187186121493 1.05021630177 0)
(0.00837589645918 0.934539998924 0)
(0.00649744575294 0.849039704135 0)
(0.00875424328768 0.781682484084 0)
(0.0133314569931 0.734712280664 0)
(0.0194965151016 0.70026005847 0)
(0.0258245996092 0.666157848695 0)
(0.031495761651 0.633418482428 0)
(0.0362655116838 0.606069824295 0)
(0.0381291541032 0.592311349959 0)
(0.0358445237171 0.563101045054 0)
(0.0285286285405 0.512524837712 0)
(0.0154351233765 0.47031075872 0)
(-0.000400559729691 0.454587846461 0)
(0.0507637513968 1.55749806894 0)
(0.0968778811952 1.52244156864 0)
(0.0916672884038 1.49860242594 0)
(0.0892988876674 1.47293589914 0)
(0.0833710355329 1.41619516452 0)
(0.0683563397447 1.28774154183 0)
(0.049376106876 1.10743838402 0)
(0.0378014453467 0.960326873851 0)
(0.0335951321394 0.85541620893 0)
(0.0336934083724 0.778818080247 0)
(0.0364208932198 0.72710443957 0)
(0.0408524360384 0.691306774432 0)
(0.0454772789019 0.656864085266 0)
(0.0489594638435 0.623125276534 0)
(0.0509902491238 0.594390784123 0)
(0.0510645771287 0.581778563834 0)
(0.0472429060037 0.558865333981 0)
(0.038998511277 0.515298629905 0)
(0.02767908802 0.466223624474 0)
(0.013643415025 0.446630784593 0)
(-0.00477994114387 0.291808487349 0)
(-0.00882580511463 0.291593381586 0)
(-0.0124944342226 0.291331455823 0)
(-0.0159096904056 0.291034822993 0)
(-0.0191881747828 0.290706835181 0)
(-0.0224293391782 0.290346060979 0)
(-0.0257117584599 0.289949228352 0)
(-0.0290950332954 0.289513177976 0)
(-0.0326232760098 0.28903581761 0)
(-0.0363310639477 0.288515815554 0)
(-0.0402557442287 0.287950100074 0)
(-0.0444573351685 0.287328778839 0)
(-0.0490426595525 0.28662943473 0)
(-0.0541474070119 0.285826504376 0)
(-0.059774215441 0.284951794675 0)
(-0.0649371977038 0.284329641564 0)
(-0.0721462015053 0.283346918898 0)
(-0.066528462733 0.285585844949 0)
(-0.223619189344 0.245173832663 0)
(-0.19565062738 0.267619765404 0)
(-0.000340544196147 0.524012215874 0)
(-0.00132844136919 0.52375492528 0)
(-0.00225286566879 0.523513486351 0)
(-0.00313670180111 0.523290125217 0)
(-0.00400206736943 0.523084657236 0)
(-0.00486541028849 0.522895482302 0)
(-0.00573798043675 0.522720198661 0)
(-0.00662679059708 0.522556241562 0)
(-0.00753744532405 0.522400930828 0)
(-0.00847882438085 0.522251055044 0)
(-0.00946981560818 0.522101650303 0)
(-0.0105436674555 0.521944723547 0)
(-0.011733581795 0.521770770516 0)
(-0.0130024983049 0.521586377615 0)
(-0.0141446561981 0.521467072793 0)
(-0.0149407407956 0.521708732884 0)
(-0.0155585799087 0.521573355306 0)
(-0.0170207011829 0.522871824694 0)
(-0.0117529975648 0.48359208803 0)
(-0.00267265726884 0.483512289956 0)
(-0.000930454780678 0.475382852156 0)
(-0.00192259875905 0.475214014528 0)
(-0.00285747702418 0.47518633019 0)
(-0.00373014057786 0.475275445204 0)
(-0.00454510009164 0.475467489766 0)
(-0.00530661615121 0.475753579453 0)
(-0.00601787024235 0.476126191177 0)
(-0.00668227565302 0.476577264002 0)
(-0.0073075468638 0.477097455747 0)
(-0.00790903486059 0.477677156272 0)
(-0.00850819496745 0.478309870711 0)
(-0.00911541418465 0.478998981629 0)
(-0.00968281689024 0.479767536607 0)
(-0.0100429855235 0.480664561697 0)
(-0.0099663227492 0.481738453863 0)
(-0.00942383402472 0.482868394819 0)
(-0.0087468399382 0.483305448844 0)
(-0.00816637215899 0.479274046348 0)
(-0.000840353874786 0.469012381569 0)
(0.00310725564382 0.42658970215 0)
(-0.00167241033292 0.485549519228 0)
(-0.00237426771599 0.485277438758 0)
(-0.00305206268393 0.485165986891 0)
(-0.00368194648902 0.485184439521 0)
(-0.00425707782427 0.485309414625 0)
(-0.00477857446215 0.485520222506 0)
(-0.0052511680471 0.485797409807 0)
(-0.00568362978633 0.48612221386 0)
(-0.00608998575314 0.486477434683 0)
(-0.00648733280397 0.486849886655 0)
(-0.00688621241692 0.487234150071 0)