/*--------------------------------*- C++ -*----------------------------------*\
| =========                 |                                                 |
| \\      /  F ield         | OpenFOAM: The Open Source CFD Toolbox           |
|  \\    /   O peration     | Version:  2312                                  |
|   \\  /    A nd           | Website:  www.openfoam.com                      |
|    \\/     M anipulation  |                                                 |
\*---------------------------------------------------------------------------*/
FoamFile
{
    version     2.0;
    format      ascii;
    arch        "LSB;label=32;scalar=64";
    class       volVectorField;
    location    "82";
    object      U.airMean;
}
// * * * * * * * * * * * * * * * * * * * * * * * * * * * * * * * * * * * * * //

dimensions      [0 1 -1 0 0 0 0];

internalField   nonuniform List<vector> 
1875
(
(0.0659085 0.098916 0)
(0.155986 0.102162 0)
(0.260313 0.110463 0)
(0.308776 0.12175 0)
(0.345558 0.132928 0)
(0.365954 0.142885 0)
(0.374717 0.15403 0)
(0.373876 0.163441 0)
(0.363983 0.171587 0)
(0.3469 0.177083 0)
(0.325086 0.182973 0)
(0.297485 0.187811 0)
(0.266757 0.191177 0)
(0.23168 0.193755 0)
(0.189876 0.198065 0)
(0.143062 0.201021 0)
(0.0919731 0.203557 0)
(0.0405654 0.202813 0)
(-0.00799014 0.198384 0)
(-0.0496457 0.190893 0)
(-0.0802032 0.181098 0)
(-0.0970068 0.169888 0)
(-0.101886 0.159035 0)
(-0.0719813 0.145511 0)
(-0.0353592 0.135649 0)
(0.0573514 0.0689774 0)
(0.130597 0.110805 0)
(0.194051 0.165083 0)
(0.225387 0.212281 0)
(0.249827 0.246631 0)
(0.2667 0.273969 0)
(0.277074 0.295951 0)
(0.280526 0.315691 0)
(0.279321 0.335912 0)
(0.272229 0.354198 0)
(0.260042 0.370853 0)
(0.243804 0.386719 0)
(0.223989 0.400592 0)
(0.200013 0.4167 0)
(0.171226 0.429429 0)
(0.138055 0.438159 0)
(0.101976 0.440308 0)
(0.0664248 0.436753 0)
(0.0316107 0.429681 0)
(0.000618787 0.415594 0)
(-0.0241595 0.394337 0)
(-0.0421602 0.365663 0)
(-0.0532238 0.328295 0)
(-0.0464165 0.284377 0)
(-0.0257681 0.246335 0)
(0.034282 -0.102505 0)
(0.075588 -0.0307365 0)
(0.100934 0.0446851 0)
(0.119278 0.0978755 0)
(0.13448 0.133228 0)
(0.147639 0.163474 0)
(0.157614 0.191018 0)
(0.162613 0.217075 0)
(0.163243 0.245006 0)
(0.16101 0.273069 0)
(0.154379 0.298588 0)
(0.144806 0.321915 0)
(0.130087 0.345769 0)
(0.113279 0.370242 0)
(0.0949869 0.393561 0)
(0.0737987 0.411199 0)
(0.0519444 0.418091 0)
(0.032013 0.414021 0)
(0.014331 0.405425 0)
(0.00194567 0.387453 0)
(-0.0068112 0.360321 0)
(-0.0124421 0.326982 0)
(-0.0165449 0.286278 0)
(-0.0216297 0.230998 0)
(-0.0140095 0.171392 0)
(0.0209064 -0.141831 0)
(0.0460007 -0.0460199 0)
(0.0504876 0.0391979 0)
(0.0557097 0.101465 0)
(0.059852 0.145525 0)
(0.0616252 0.180946 0)
(0.0605685 0.213969 0)
(0.0565959 0.246306 0)
(0.0483908 0.27821 0)
(0.0386706 0.309622 0)
(0.0264439 0.340341 0)
(0.0126367 0.370412 0)
(-0.00362873 0.399012 0)
(-0.0189742 0.423031 0)
(-0.0311395 0.443919 0)
(-0.0404379 0.459612 0)
(-0.0456448 0.464166 0)
(-0.0473506 0.459103 0)
(-0.0455983 0.444287 0)
(-0.0399419 0.421621 0)
(-0.0332839 0.391201 0)
(-0.0276796 0.357131 0)
(-0.0231957 0.314413 0)
(-0.0202482 0.254686 0)
(-0.00981753 0.17737 0)
(0.00778419 -0.149991 0)
(0.0156051 -0.0581024 0)
(0.00402167 0.0182697 0)
(-0.00355123 0.0748681 0)
(-0.0122658 0.115102 0)
(-0.0201653 0.151527 0)
(-0.0297386 0.185044 0)
(-0.0394602 0.219235 0)
(-0.050498 0.252741 0)
(-0.0623072 0.285853 0)
(-0.0755325 0.316838 0)
(-0.0882349 0.346899 0)
(-0.0993793 0.374813 0)
(-0.107654 0.395335 0)
(-0.11178 0.412197 0)
(-0.110481 0.422357 0)
(-0.103752 0.423538 0)
(-0.0924351 0.415273 0)
(-0.0781829 0.398481 0)
(-0.0631026 0.37523 0)
(-0.0503522 0.350805 0)
(-0.0391824 0.32071 0)
(-0.0309791 0.284611 0)
(-0.019644 0.226499 0)
(-0.0063248 0.148276 0)
(0.00649544 -0.126777 0)
(0.00555515 -0.0143182 0)
(-0.0146036 0.0697144 0)
(-0.0291874 0.125253 0)
(-0.0465402 0.16272 0)
(-0.0658454 0.192623 0)
(-0.084067 0.222942 0)
(-0.10144 0.25252 0)
(-0.116432 0.283059 0)
(-0.131066 0.314788 0)
(-0.143844 0.344386 0)
(-0.15484 0.369496 0)
(-0.160238 0.389797 0)
(-0.161318 0.404783 0)
(-0.157812 0.413966 0)
(-0.148873 0.415763 0)
(-0.135323 0.408764 0)
(-0.117887 0.395598 0)
(-0.0991438 0.377814 0)
(-0.0823243 0.359725 0)
(-0.0679923 0.338441 0)
(-0.055472 0.313645 0)
(-0.0433238 0.273484 0)
(-0.0233906 0.210838 0)
(-0.00770749 0.131443 0)
(0.00335973 -0.0926403 0)
(-0.002708 0.0186353 0)
(-0.0294573 0.102747 0)
(-0.043397 0.160002 0)
(-0.0664281 0.195193 0)
(-0.0926795 0.220613 0)
(-0.118129 0.244094 0)
(-0.140673 0.267557 0)
(-0.160521 0.294309 0)
(-0.17604 0.320982 0)
(-0.186088 0.343225 0)
(-0.190359 0.360305 0)
(-0.189235 0.372802 0)
(-0.183249 0.382061 0)
(-0.172828 0.384431 0)
(-0.158431 0.380735 0)
(-0.141234 0.36885 0)
(-0.122599 0.351862 0)
(-0.103802 0.335819 0)
(-0.0871452 0.3201 0)
(-0.0730356 0.305295 0)
(-0.0593271 0.279349 0)
(-0.044771 0.238654 0)
(-0.0234148 0.178022 0)
(-0.00757292 0.1029 0)
(0.00417232 -0.0493209 0)
(-0.00387516 0.0689501 0)
(-0.0315057 0.161982 0)
(-0.0480812 0.222522 0)
(-0.074233 0.26263 0)
(-0.103777 0.283879 0)
(-0.130909 0.299779 0)
(-0.155138 0.314539 0)
(-0.174292 0.329877 0)
(-0.18749 0.342792 0)
(-0.19393 0.351909 0)
(-0.193411 0.360156 0)
(-0.187392 0.365173 0)
(-0.176616 0.365555 0)
(-0.162651 0.361982 0)
(-0.146102 0.352902 0)
(-0.128306 0.338345 0)
(-0.11069 0.321698 0)
(-0.094214 0.307603 0)
(-0.0797068 0.29812 0)
(-0.0681547 0.28586 0)
(-0.0565366 0.263256 0)
(-0.0431959 0.219997 0)
(-0.022473 0.155787 0)
(-0.00720466 0.0801237 0)
(0.00353037 -0.0146037 0)
(-0.0049984 0.102571 0)
(-0.0309978 0.202565 0)
(-0.0423817 0.273204 0)
(-0.0653508 0.315831 0)
(-0.0908015 0.334354 0)
(-0.116568 0.342889 0)
(-0.138028 0.348991 0)
(-0.154468 0.353571 0)
(-0.165743 0.356544 0)
(-0.16896 0.354819 0)
(-0.167312 0.350987 0)
(-0.161174 0.345726 0)
(-0.150685 0.339272 0)
(-0.137448 0.330142 0)
(-0.122609 0.318953 0)
(-0.107523 0.304634 0)
(-0.0934905 0.290746 0)
(-0.0812948 0.280227 0)
(-0.0715415 0.273468 0)
(-0.0637501 0.265623 0)
(-0.0544199 0.238974 0)
(-0.042332 0.192 0)
(-0.0209482 0.125273 0)
(-0.00718348 0.0527097 0)
(0.00297522 0.0162278 0)
(-0.00487161 0.132619 0)
(-0.0256028 0.239191 0)
(-0.0301672 0.320512 0)
(-0.0447125 0.37393 0)
(-0.0624919 0.394704 0)
(-0.0841657 0.395277 0)
(-0.103213 0.390185 0)
(-0.118721 0.382544 0)
(-0.12906 0.370123 0)
(-0.133437 0.356001 0)
(-0.132726 0.343489 0)
(-0.127241 0.331122 0)
(-0.118924 0.319455 0)
(-0.109144 0.308649 0)
(-0.0986111 0.297104 0)
(-0.088668 0.284793 0)
(-0.0791655 0.273694 0)
(-0.0712898 0.266469 0)
(-0.065814 0.262444 0)
(-0.059843 0.253309 0)
(-0.0522671 0.223524 0)
(-0.0399979 0.16787 0)
(-0.0215617 0.0986233 0)
(-0.00832909 0.0283316 0)
(0.000818231 0.0339066 0)
(-0.00231542 0.148961 0)
(-0.0158471 0.257356 0)
(-0.0158038 0.344218 0)
(-0.0208088 0.404402 0)
(-0.0289308 0.432986 0)
(-0.0432565 0.434237 0)
(-0.0580201 0.423133 0)
(-0.0707045 0.406304 0)
(-0.0802919 0.382755 0)
(-0.0864899 0.358272 0)
(-0.0893248 0.337541 0)
(-0.0890367 0.318976 0)
(-0.0859423 0.30269 0)
(-0.0811408 0.289814 0)
(-0.0759662 0.278993 0)
(-0.0710213 0.268001 0)
(-0.066446 0.257808 0)
(-0.0622675 0.252522 0)
(-0.0593469 0.249455 0)
(-0.0553433 0.239061 0)
(-0.0472901 0.201576 0)
(-0.0363873 0.141652 0)
(-0.0208674 0.0711927 0)
(-0.00909967 -0.000412931 0)
(0.00103859 0.0446407 0)
(0.002947 0.158974 0)
(-0.00380997 0.267889 0)
(-0.000754879 0.356046 0)
(7.87678e-05 0.420681 0)
(-0.000304573 0.457318 0)
(-0.00645998 0.46304 0)
(-0.0155932 0.45024 0)
(-0.0245673 0.427504 0)
(-0.0324617 0.399406 0)
(-0.0397058 0.370403 0)
(-0.0459199 0.343329 0)
(-0.0496502 0.31836 0)
(-0.0514875 0.297752 0)
(-0.0516309 0.2819 0)
(-0.0514406 0.269541 0)
(-0.0507361 0.259222 0)
(-0.0513637 0.250591 0)
(-0.0517077 0.247093 0)
(-0.0520261 0.24541 0)
(-0.0490005 0.227858 0)
(-0.0413235 0.18505 0)
(-0.032211 0.121155 0)
(-0.0191183 0.047796 0)
(-0.00862406 -0.0262862 0)
(0.00303477 0.0467947 0)
(0.00674574 0.158763 0)
(0.00527548 0.264853 0)
(0.0110495 0.353215 0)
(0.0157972 0.419485 0)
(0.0203522 0.461331 0)
(0.0212267 0.474265 0)
(0.0182318 0.463824 0)
(0.0127843 0.440579 0)
(0.00597011 0.409116 0)
(-0.00177996 0.378427 0)
(-0.00970391 0.348411 0)
(-0.0166368 0.320049 0)
(-0.0226547 0.296678 0)
(-0.0268504 0.279235 0)
(-0.030019 0.265835 0)
(-0.0326608 0.257673 0)
(-0.0360378 0.250658 0)
(-0.0394555 0.247477 0)
(-0.0404105 0.240251 0)
(-0.0389792 0.215983 0)
(-0.033146 0.166524 0)
(-0.0279072 0.101564 0)
(-0.0185471 0.0268496 0)
(-0.00820352 -0.0500896 0)
(0.00467452 0.0424791 0)
(0.00970655 0.153647 0)
(0.0113542 0.256077 0)
(0.0180303 0.342875 0)
(0.0248771 0.410426 0)
(0.0321917 0.454854 0)
(0.0369228 0.473214 0)
(0.0382424 0.469044 0)
(0.0363268 0.449412 0)
(0.0317132 0.420104 0)
(0.0238324 0.38927 0)
(0.0152357 0.358646 0)
(0.00584375 0.329486 0)
(-0.00273585 0.303755 0)
(-0.00987207 0.28369 0)
(-0.0146867 0.269273 0)
(-0.0190488 0.259739 0)
(-0.022088 0.253389 0)
(-0.0256538 0.250084 0)
(-0.0275308 0.238519 0)
(-0.0267026 0.210454 0)
(-0.0243611 0.159299 0)
(-0.0235215 0.0921079 0)
(-0.0191522 0.0126034 0)
(-0.00854064 -0.0679077 0)
(0.00521978 0.031266 0)
(0.0117656 0.14368 0)
(0.0152628 0.243376 0)
(0.0211032 0.327115 0)
(0.0278141 0.391952 0)
(0.0361418 0.438472 0)
(0.0425984 0.462163 0)
(0.0466712 0.464025 0)
(0.0471629 0.448394 0)
(0.0446688 0.424394 0)
(0.0384174 0.396706 0)
(0.0312154 0.367795 0)
(0.02227 0.339758 0)
(0.013055 0.313574 0)
(0.00486289 0.290863 0)
(-0.00142147 0.275302 0)
(-0.00707806 0.265281 0)
(-0.0112761 0.257927 0)
(-0.0149657 0.25378 0)
(-0.0170675 0.238592 0)
(-0.0171432 0.205301 0)
(-0.0160249 0.15289 0)
(-0.0165992 0.0857223 0)
(-0.0160882 0.00495077 0)
(-0.00807812 -0.076885 0)
(0.00456001 0.0185389 0)
(0.0122219 0.132685 0)
(0.0165359 0.23139 0)
(0.0210161 0.311817 0)
(0.0256166 0.373999 0)
(0.0325024 0.419384 0)
(0.0393449 0.445746 0)
(0.0455254 0.452388 0)
(0.0489385 0.443138 0)
(0.0486437 0.424452 0)
(0.0449123 0.400998 0)
(0.0396997 0.376041 0)
(0.0335758 0.350912 0)
(0.0263767 0.326759 0)
(0.0189591 0.304252 0)
(0.0119523 0.287514 0)
(0.00614456 0.276196 0)
(0.000627941 0.268273 0)
(-0.00322856 0.25971 0)
(-0.00480174 0.239038 0)
(-0.00545247 0.202803 0)
(-0.00588837 0.152634 0)
(-0.00695367 0.0850367 0)
(-0.00924159 0.00461074 0)
(-0.00552577 -0.0789715 0)
(0.00316951 0.00851952 0)
(0.00975075 0.123134 0)
(0.0151064 0.221059 0)
(0.0172218 0.298767 0)
(0.0199456 0.358476 0)
(0.0238708 0.400391 0)
(0.0301937 0.425692 0)
(0.0369039 0.433602 0)
(0.0434104 0.429584 0)
(0.0460421 0.418887 0)
(0.0451146 0.401578 0)
(0.0429443 0.379914 0)
(0.0402378 0.357297 0)
(0.0359739 0.336416 0)
(0.0300149 0.316128 0)
(0.0233476 0.299523 0)
(0.0163907 0.2878 0)
(0.0107068 0.277747 0)
(0.00791435 0.26435 0)
(0.00569219 0.241616 0)
(0.00471252 0.204639 0)
(0.00245176 0.157654 0)
(0.00146703 0.0895775 0)
(-0.00289965 0.00907581 0)
(-0.00262833 -0.0772975 0)
(0.0015416 0.00178599 0)
(0.00682651 0.116557 0)
(0.0113818 0.215856 0)
(0.0132591 0.29231 0)
(0.0144156 0.348317 0)
(0.0167494 0.385267 0)
(0.0215608 0.407879 0)
(0.027454 0.413794 0)
(0.0346018 0.412054 0)
(0.0389306 0.408312 0)
(0.0411044 0.396698 0)
(0.0411065 0.379843 0)
(0.039959 0.362341 0)
(0.0372854 0.345148 0)
(0.0326267 0.328089 0)
(0.0271675 0.313369 0)
(0.0219296 0.299764 0)
(0.0180617 0.285757 0)
(0.0153848 0.271104 0)
(0.0118784 0.247756 0)
(0.00942791 0.21193 0)
(0.00652584 0.164662 0)
(0.00633695 0.0973405 0)
(8.93595e-05 0.0178257 0)
(-0.00154266 -0.0712198 0)
(-0.000850997 -0.000250459 0)
(0.00276021 0.113912 0)
(0.00695949 0.212854 0)
(0.00976595 0.286541 0)
(0.0118361 0.34164 0)
(0.0140202 0.374779 0)
(0.018055 0.393485 0)
(0.0232144 0.397092 0)
(0.028246 0.395547 0)
(0.0319784 0.394285 0)
(0.0346211 0.388328 0)
(0.0346141 0.3766 0)
(0.0341442 0.362219 0)
(0.0327784 0.349323 0)
(0.0301722 0.336943 0)
(0.0266984 0.322984 0)
(0.0231304 0.307877 0)
(0.0191778 0.292515 0)
(0.0150106 0.278225 0)
(0.0114035 0.254971 0)
(0.00882559 0.218799 0)
(0.00676716 0.171222 0)
(0.00677045 0.105547 0)
(-2.85532e-05 0.0282737 0)
(-0.00144015 -0.0615068 0)
(-0.00112598 0.00129055 0)
(0.0003315 0.111187 0)
(0.00535427 0.210141 0)
(0.009785 0.281456 0)
(0.0131398 0.33368 0)
(0.0160686 0.364983 0)
(0.0200987 0.38151 0)
(0.0232882 0.384455 0)
(0.0254594 0.384554 0)
(0.0262403 0.385374 0)
(0.0273083 0.381618 0)
(0.0270621 0.372435 0)
(0.0272116 0.36084 0)
(0.0259627 0.349768 0)
(0.02529 0.339275 0)
(0.0238887 0.328515 0)
(0.0206879 0.316975 0)
(0.0163431 0.303774 0)
(0.0118271 0.288354 0)
(0.00899679 0.261874 0)
(0.00660453 0.224219 0)
(0.00518234 0.176369 0)
(0.00513324 0.112491 0)
(-0.00164335 0.0371628 0)
(-0.00263782 -0.052824 0)
(0.000366211 0.00418864 0)
(-0.000210894 0.109667 0)
(0.00483728 0.20483 0)
(0.0106197 0.274684 0)
(0.0154093 0.32624 0)
(0.0189793 0.356515 0)
(0.0226371 0.371468 0)
(0.0252209 0.376603 0)
(0.0250654 0.378943 0)
(0.0246627 0.381039 0)
(0.024176 0.377749 0)
(0.0242535 0.368824 0)
(0.0235776 0.359173 0)
(0.0221319 0.350297 0)
(0.0205526 0.340598 0)
(0.0188804 0.332154 0)
(0.0154452 0.323597 0)
(0.0121928 0.311126 0)
(0.00918355 0.293734 0)
(0.00789079 0.266486 0)
(0.0059873 0.228657 0)
(0.00452737 0.17987 0)
(0.00401177 0.117908 0)
(-0.00369048 0.0445473 0)
(-0.00389887 -0.0469289 0)
(3.92584e-05 0.00980439 0)
(-0.000904252 0.112532 0)
(0.00199948 0.201221 0)
(0.00744609 0.26935 0)
(0.0132711 0.317662 0)
(0.0188595 0.347498 0)
(0.0232833 0.362913 0)
(0.0254552 0.371351 0)
(0.0256487 0.375263 0)
(0.0249607 0.377146 0)
(0.0243839 0.37623 0)
(0.0235853 0.370051 0)
(0.0220215 0.361611 0)
(0.0195661 0.353736 0)
(0.0171634 0.345716 0)
(0.0147904 0.33799 0)
(0.0126055 0.329744 0)
(0.0105518 0.316131 0)
(0.00892208 0.296302 0)
(0.00888676 0.267475 0)
(0.00780086 0.230478 0)
(0.00597328 0.182002 0)
(0.00394194 0.122848 0)
(-0.00470299 0.0505206 0)
(-0.00363515 -0.043028 0)
(0.000201658 0.0151552 0)
(-3.87265e-05 0.116545 0)
(0.00024959 0.199301 0)
(0.00395252 0.263208 0)
(0.00939997 0.30822 0)
(0.0166839 0.338245 0)
(0.0211464 0.355718 0)
(0.023783 0.366583 0)
(0.0238872 0.372575 0)
(0.0227893 0.375403 0)
(0.0222586 0.373816 0)
(0.0204641 0.370274 0)
(0.0182854 0.365545 0)
(0.0159688 0.35815 0)
(0.0141655 0.350059 0)
(0.0121752 0.341904 0)
(0.0117659 0.332388 0)
(0.0111409 0.317631 0)
(0.0117574 0.296216 0)
(0.0116594 0.267451 0)
(0.0106804 0.231643 0)
(0.00790404 0.186331 0)
(0.00429922 0.130549 0)
(-0.004378 0.056798 0)
(-0.00293377 -0.0379978 0)
(0.000719415 0.0199115 0)
(0.00151839 0.121803 0)
(0.000851271 0.201182 0)
(0.00293194 0.259324 0)
(0.00600053 0.299738 0)
(0.0121515 0.329497 0)
(0.0163058 0.349264 0)
(0.0189592 0.361697 0)
(0.0200247 0.370232 0)
(0.0196019 0.374743 0)
(0.0179743 0.375435 0)
(0.0158439 0.371859 0)
(0.0141312 0.367551 0)
(0.0134086 0.362301 0)
(0.0131559 0.353656 0)
(0.0129346 0.342826 0)
(0.014105 0.330324 0)
(0.0149025 0.315009 0)
(0.0150521 0.295022 0)
(0.0131145 0.26845 0)
(0.0109865 0.235305 0)
(0.00781724 0.19306 0)
(0.00352709 0.138285 0)
(-0.00416268 0.0627604 0)
(-0.00247616 -0.0332602 0)
(0.00147022 0.0226851 0)
(0.00361046 0.125634 0)
(0.00436123 0.202111 0)
(0.00539661 0.257656 0)
(0.00686222 0.295429 0)
(0.010739 0.322394 0)
(0.0140653 0.3433 0)
(0.016751 0.356966 0)
(0.0182693 0.366936 0)
(0.0180774 0.373217 0)
(0.0167975 0.375414 0)
(0.0151149 0.372432 0)
(0.0141487 0.366556 0)
(0.0140039 0.359303 0)
(0.0147908 0.351089 0)
(0.0157897 0.340311 0)
(0.0169096 0.327742 0)
(0.0169377 0.314608 0)
(0.0153355 0.297627 0)
(0.012223 0.273919 0)
(0.00890694 0.241074 0)
(0.00582841 0.198649 0)
(0.00285703 0.144125 0)
(-0.00320103 0.0669498 0)
(-0.00197509 -0.0286277 0)
(0.00321514 0.0223718 0)
(0.00727793 0.126056 0)
(0.00711371 0.202787 0)
(0.00764863 0.256477 0)
(0.00997573 0.291413 0)
(0.0125108 0.317629 0)
(0.0157677 0.338835 0)
(0.0185122 0.35308 0)
(0.0201255 0.364656 0)
(0.0194392 0.372036 0)
(0.0183948 0.374092 0)
(0.0172993 0.371099 0)
(0.0164283 0.365731 0)
(0.0156762 0.358842 0)
(0.0157844 0.349053 0)
(0.0165309 0.337421 0)
(0.0170381 0.326219 0)
(0.016134 0.316268 0)
(0.0136088 0.301774 0)
(0.0103917 0.27856 0)
(0.0075175 0.2458 0)
(0.00484901 0.203526 0)
(0.00280169 0.148611 0)
(-0.0019805 0.0711159 0)
(-0.00166683 -0.0236452 0)
(0.00520315 0.0194558 0)
(0.0102417 0.123812 0)
(0.00852764 0.200847 0)
(0.00983469 0.252649 0)
(0.0140849 0.287279 0)
(0.0170866 0.312658 0)
(0.0199368 0.333682 0)
(0.0216168 0.349226 0)
(0.022747 0.36261 0)
(0.0223576 0.371089 0)
(0.0214926 0.373183 0)
(0.0201436 0.37044 0)
(0.0191785 0.364833 0)
(0.0183049 0.357261 0)
(0.0181089 0.346966 0)
(0.0173316 0.33549 0)
(0.0163499 0.325405 0)
(0.0143451 0.317705 0)
(0.012201 0.305492 0)
(0.0091927 0.284138 0)
(0.00693667 0.250492 0)
(0.00459725 0.208064 0)
(0.00307693 0.15273 0)
(-0.00094387 0.0753292 0)
(-0.00143643 -0.0190465 0)
(0.00604753 0.0171846 0)
(0.00989355 0.120136 0)
(0.00855022 0.196015 0)
(0.01203 0.245997 0)
(0.0175367 0.279755 0)
(0.0207089 0.306715 0)
(0.0233198 0.329463 0)
(0.0240973 0.346934 0)
(0.0235566 0.360806 0)
(0.0229404 0.369429 0)
(0.0220442 0.372261 0)
(0.0208501 0.369715 0)
(0.0197837 0.364155 0)
(0.0191199 0.356602 0)
(0.0183884 0.346841 0)
(0.0168036 0.335873 0)
(0.0150411 0.327122 0)
(0.0126008 0.320713 0)
(0.0108052 0.308975 0)
(0.00871614 0.287725 0)
(0.00750507 0.253802 0)
(0.00476134 0.211476 0)
(0.00409183 0.1557 0)
(0.000494369 0.0804946 0)
(-0.000445334 -0.0132758 0)
(0.0052213 0.0151464 0)
(0.00813307 0.115543 0)
(0.0074266 0.189801 0)
(0.0127378 0.238202 0)
(0.0176256 0.272054 0)
(0.0201633 0.300131 0)
(0.0215818 0.323579 0)
(0.0217807 0.343815 0)
(0.0209226 0.359485 0)
(0.0194294 0.368352 0)
(0.0177904 0.371096 0)
(0.016296 0.368975 0)
(0.0147478 0.36284 0)
(0.0143771 0.354965 0)
(0.0143668 0.346289 0)
(0.0138304 0.337106 0)
(0.0121653 0.330002 0)
(0.0105771 0.323803 0)
(0.00953648 0.31173 0)
(0.00875869 0.289853 0)
(0.0082909 0.256717 0)
(0.00564284 0.215093 0)
(0.00506811 0.159384 0)
(0.00240873 0.0873417 0)
(0.000816615 -0.00484024 0)
(0.00378102 0.0130988 0)
(0.00642421 0.111994 0)
(0.00590982 0.184225 0)
(0.0107022 0.231011 0)
(0.0142851 0.265725 0)
(0.0157276 0.297126 0)
(0.015474 0.321272 0)
(0.0138231 0.341301 0)
(0.0123184 0.357723 0)
(0.0110083 0.368448 0)
(0.00977965 0.371897 0)
(0.00813895 0.369361 0)
(0.00685724 0.363109 0)
(0.00623306 0.353817 0)
(0.00658167 0.344835 0)
(0.0071812 0.337426 0)
(0.00695126 0.331931 0)
(0.00664409 0.325413 0)
(0.0068468 0.313089 0)
(0.00720683 0.29066 0)
(0.00666182 0.259951 0)
(0.00519285 0.219522 0)
(0.00481211 0.163838 0)
(0.00280786 0.0943883 0)
(0.000948295 0.00403349 0)
(0.00374388 0.0123011 0)
(0.0058724 0.110448 0)
(0.00489498 0.181393 0)
(0.00733891 0.226112 0)
(0.00920417 0.262186 0)
(0.00945304 0.2951 0)
(0.00923396 0.322267 0)
(0.0067591 0.343027 0)
(0.00430969 0.35822 0)
(0.00256666 0.367671 0)
(0.00169734 0.37125 0)
(0.000740383 0.36875 0)
(0.000115819 0.361625 0)
(-1.53696e-05 0.35312 0)
(-0.000218367 0.344465 0)
(0.000139492 0.337558 0)
(0.000219391 0.332806 0)
(0.00113656 0.325983 0)
(0.00289484 0.312944 0)
(0.00398687 0.292428 0)
(0.00449298 0.262466 0)
(0.00387992 0.221358 0)
(0.00362279 0.16775 0)
(0.00197042 0.101192 0)
(0.000743243 0.0108612 0)
(0.00415544 0.0117322 0)
(0.00521356 0.111359 0)
(0.00351422 0.181568 0)
(0.00382132 0.224353 0)
(0.00347382 0.261402 0)
(0.00232158 0.294321 0)
(0.00147107 0.321383 0)
(-8.26481e-05 0.343749 0)
(-0.00163335 0.359117 0)
(-0.0029497 0.367339 0)
(-0.00361954 0.369636 0)
(-0.0038445 0.367395 0)
(-0.00412271 0.360634 0)
(-0.00444048 0.352409 0)
(-0.00476783 0.344432 0)
(-0.00520275 0.33887 0)
(-0.00562238 0.333155 0)
(-0.00413693 0.323875 0)
(-0.00159512 0.310585 0)
(0.000578686 0.290731 0)
(0.00221835 0.26224 0)
(0.00209566 0.223796 0)
(0.0015276 0.171697 0)
(0.000862035 0.106707 0)
(0.000737841 0.0162192 0)
(0.00373326 0.0125277 0)
(0.00457935 0.113535 0)
(0.00145391 0.183339 0)
(0.000880044 0.227266 0)
(-0.00209611 0.262457 0)
(-0.00445592 0.294671 0)
(-0.00702912 0.321469 0)
(-0.00820949 0.34251 0)
(-0.00901865 0.356807 0)
(-0.00891118 0.365259 0)
(-0.00903578 0.36775 0)
(-0.00868368 0.365359 0)
(-0.00827531 0.359249 0)
(-0.00787044 0.352889 0)
(-0.008179 0.346494 0)
(-0.00853491 0.340758 0)
(-0.00775126 0.33286 0)
(-0.0065858 0.321245 0)
(-0.00489488 0.30732 0)
(-0.00281364 0.28766 0)
(-0.00114533 0.260709 0)
(-0.000242002 0.223702 0)
(-0.000344769 0.173447 0)
(0.000594917 0.109439 0)
(0.000543144 0.0193565 0)
(0.00314043 0.0155735 0)
(0.00391514 0.117301 0)
(-0.0016186 0.186702 0)
(-0.00306507 0.232471 0)
(-0.00733228 0.266991 0)
(-0.0102297 0.298022 0)
(-0.013187 0.322138 0)
(-0.0143597 0.341601 0)
(-0.0151178 0.3547 0)
(-0.0149915 0.362329 0)
(-0.0150882 0.365277 0)
(-0.0144025 0.361868 0)
(-0.0131857 0.355773 0)
(-0.011592 0.350317 0)
(-0.0104361 0.345369 0)
(-0.00956408 0.339902 0)
(-0.00841759 0.33212 0)
(-0.00795134 0.320442 0)
(-0.00644084 0.304798 0)
(-0.00469764 0.284803 0)
(-0.00259177 0.258124 0)
(-0.00137305 0.221749 0)
(-0.000585742 0.17288 0)
(0.000415776 0.110564 0)
(0.000657216 0.0210111 0)
(0.00247314 0.0213187 0)
(0.00283011 0.122844 0)
(-0.00473074 0.191771 0)
(-0.00653493 0.2385 0)
(-0.0108555 0.272189 0)
(-0.0130481 0.300353 0)
(-0.0152072 0.323229 0)
(-0.0158068 0.340518 0)
(-0.0162731 0.352624 0)
(-0.0167177 0.359661 0)
(-0.0175194 0.361577 0)
(-0.0178259 0.357864 0)
(-0.0171414 0.351791 0)
(-0.0156075 0.347113 0)
(-0.0136201 0.343026 0)
(-0.0115847 0.337993 0)
(-0.00980751 0.331213 0)
(-0.00866164 0.31981 0)
(-0.00745755 0.303075 0)
(-0.00533017 0.281088 0)
(-0.00264051 0.253853 0)
(-0.000541633 0.218842 0)
(0.000509083 0.172544 0)
(0.000676914 0.11313 0)
(0.000890978 0.02347 0)
(0.00153774 0.028861 0)
(0.00172378 0.130463 0)
(-0.00590365 0.197087 0)
(-0.00741087 0.243532 0)
(-0.0112345 0.275247 0)
(-0.0134073 0.301951 0)
(-0.0147294 0.322048 0)
(-0.0149234 0.338888 0)
(-0.0149886 0.352081 0)
(-0.0157922 0.359181 0)
(-0.0171848 0.360816 0)
(-0.0185119 0.356844 0)
(-0.0191121 0.349622 0)
(-0.0184628 0.344032 0)
(-0.0168254 0.339915 0)
(-0.0143984 0.335383 0)
(-0.0120522 0.329174 0)
(-0.0101085 0.317125 0)
(-0.00797082 0.299767 0)
(-0.0053958 0.276205 0)
(-0.00291334 0.248805 0)
(-7.9581e-06 0.215002 0)
(0.000617968 0.173892 0)
(0.000787682 0.115883 0)
(0.000956527 0.0263691 0)
(0.00105214 0.0368538 0)
(0.00140989 0.137554 0)
(-0.00460447 0.203148 0)
(-0.00605776 0.247489 0)
(-0.00954456 0.279478 0)
(-0.0118086 0.301937 0)
(-0.0131696 0.320824 0)
(-0.0139002 0.336823 0)
(-0.0145996 0.349916 0)
(-0.0153318 0.358616 0)
(-0.0162314 0.361576 0)
(-0.0173745 0.357986 0)
(-0.0184848 0.350209 0)
(-0.0187014 0.343755 0)
(-0.018491 0.338243 0)
(-0.016763 0.332347 0)
(-0.0149615 0.325817 0)
(-0.0128186 0.313716 0)
(-0.0104442 0.295239 0)
(-0.00748122 0.271667 0)
(-0.00436217 0.243961 0)
(-0.00134473 0.212456 0)
(-0.000944757 0.174491 0)
(7.97717e-05 0.116797 0)
(0.000532081 0.0283527 0)
(0.000572747 0.0434509 0)
(0.000425063 0.142728 0)
(-0.00443552 0.20776 0)
(-0.00560494 0.252221 0)
(-0.00901093 0.28124 0)
(-0.0104333 0.304214 0)
(-0.0127531 0.321663 0)
(-0.0140173 0.337923 0)
(-0.0156413 0.350622 0)
(-0.0165532 0.358384 0)
(-0.0168558 0.361427 0)
(-0.0168357 0.358878 0)
(-0.0168961 0.351831 0)
(-0.0171625 0.345199 0)
(-0.0168584 0.337757 0)
(-0.0165998 0.330582 0)
(-0.0158564 0.322058 0)
(-0.0138659 0.308656 0)
(-0.0114287 0.289244 0)
(-0.00908036 0.264757 0)
(-0.00552446 0.236591 0)
(-0.00352169 0.209305 0)
(-0.00252749 0.172912 0)
(-0.00145612 0.115337 0)
(3.16391e-05 0.0285321 0)
(-2.89547e-05 0.0520193 0)
(-0.00074502 0.150036 0)
(-0.00551941 0.213726 0)
(-0.00716995 0.256372 0)
(-0.0105903 0.28521 0)
(-0.0126085 0.305382 0)
(-0.013692 0.323772 0)
(-0.0149061 0.338903 0)
(-0.0155683 0.351677 0)
(-0.0162786 0.358431 0)
(-0.0158918 0.359719 0)
(-0.0143278 0.355818 0)
(-0.0125766 0.34923 0)
(-0.0113893 0.343312 0)
(-0.0104729 0.337121 0)
(-0.0104078 0.329882 0)
(-0.00975867 0.319327 0)
(-0.00862121 0.304166 0)
(-0.0071202 0.284379 0)
(-0.00538356 0.259233 0)
(-0.00321846 0.232294 0)
(-0.00291792 0.206936 0)
(-0.00252987 0.170445 0)
(-0.00234629 0.112717 0)
(-0.000717866 0.0278501 0)
(-0.000279997 0.0610754 0)
(-0.0011629 0.156544 0)
(-0.00505588 0.220236 0)
(-0.00689769 0.263205 0)
(-0.0107321 0.290827 0)
(-0.0133748 0.309757 0)
(-0.0154552 0.324732 0)
(-0.0158124 0.338918 0)
(-0.0155332 0.350482 0)
(-0.0146103 0.356186 0)
(-0.0134574 0.356118 0)
(-0.0116264 0.352002 0)
(-0.00989193 0.345864 0)
(-0.0084862 0.340126 0)
(-0.00646521 0.334294 0)
(-0.00456974 0.327032 0)
(-0.00269491 0.316364 0)
(-0.00146061 0.300631 0)
(-9.75218e-05 0.280657 0)
(0.000937359 0.256131 0)
(0.00114272 0.232303 0)
(0.000635582 0.207057 0)
(-0.000519521 0.170544 0)
(-0.00224034 0.111833 0)
(-0.00124564 0.0283774 0)
(-0.000469298 0.0694136 0)
(-0.00111513 0.162342 0)
(-0.00424453 0.22606 0)
(-0.00554746 0.269011 0)
(-0.00834984 0.298076 0)
(-0.0109323 0.315736 0)
(-0.0135392 0.328637 0)
(-0.0146971 0.339361 0)
(-0.0151289 0.348119 0)
(-0.0140432 0.352641 0)
(-0.0125987 0.352395 0)
(-0.0110549 0.348451 0)
(-0.00947719 0.342361 0)
(-0.00749672 0.335517 0)
(-0.00457232 0.328389 0)
(-0.0013073 0.320599 0)
(0.00184375 0.31105 0)
(0.00411092 0.296624 0)
(0.00570028 0.277821 0)
(0.00621216 0.256044 0)
(0.00490023 0.233344 0)
(0.00430201 0.208976 0)
(0.00145572 0.173468 0)
(-0.00227015 0.114169 0)
(-0.00148312 0.0302455 0)
(-0.000259094 0.0768389 0)
(-0.000357577 0.167293 0)
(-0.00244033 0.22946 0)
(-0.00315883 0.272353 0)
(-0.00460016 0.301678 0)
(-0.00604808 0.321309 0)
(-0.00859886 0.333183 0)
(-0.0110857 0.342333 0)
(-0.0127684 0.348335 0)
(-0.0125862 0.350283 0)
(-0.0120342 0.349208 0)
(-0.0109295 0.344349 0)
(-0.00911755 0.33663 0)
(-0.00659372 0.328283 0)
(-0.00348761 0.320508 0)
(-0.000248902 0.313282 0)
(0.00286411 0.304469 0)
(0.00539691 0.291575 0)
(0.00659226 0.274734 0)
(0.00680385 0.255916 0)
(0.00563319 0.236505 0)
(0.00473402 0.213117 0)
(0.00187415 0.177552 0)
(-0.00196439 0.117346 0)
(-0.00150774 0.0327899 0)
(0.00047165 0.0819925 0)
(0.000959179 0.17056 0)
(0.000550724 0.232189 0)
(0.000500385 0.274635 0)
(-0.000666711 0.3041 0)
(-0.00170406 0.324132 0)
(-0.00366762 0.338194 0)
(-0.00575577 0.346602 0)
(-0.00766036 0.350463 0)
(-0.00836355 0.350221 0)
(-0.00830933 0.346917 0)
(-0.00752777 0.339629 0)
(-0.00676593 0.330768 0)
(-0.00515743 0.322032 0)
(-0.00351872 0.31431 0)
(-0.00191851 0.307404 0)
(-8.99015e-05 0.299085 0)
(0.00176554 0.287641 0)
(0.00315101 0.27277 0)
(0.0036488 0.255892 0)
(0.00342347 0.237963 0)
(0.00271655 0.216724 0)
(0.00178884 0.180787 0)
(-0.0010829 0.11926 0)
(-0.00168635 0.0357456 0)
(0.000889897 0.0841671 0)
(0.00189349 0.171478 0)
(0.00223425 0.2318 0)
(0.00356662 0.276304 0)
(0.00267301 0.305802 0)
(0.00181507 0.326064 0)
(0.000621622 0.339666 0)
(-0.00058701 0.348158 0)
(-0.00136425 0.351153 0)
(-0.00135872 0.349755 0)
(-0.00164556 0.345843 0)
(-0.00211523 0.338702 0)
(-0.0026566 0.32942 0)
(-0.00231625 0.320173 0)
(-0.00294917 0.312866 0)
(-0.00330702 0.304905 0)
(-0.00316015 0.295285 0)
(-0.00211175 0.283755 0)
(-0.000801827 0.270954 0)
(0.000515195 0.255738 0)
(0.00084452 0.238573 0)
(0.000554134 0.2178 0)
(0.00166226 0.181532 0)
(-0.000529972 0.120894 0)
(-0.00181496 0.0391289 0)
(0.000608692 0.085472 0)
(0.00205852 0.171998 0)
(0.00144111 0.231401 0)
(0.00328687 0.275167 0)
(0.00334319 0.306975 0)
(0.00316275 0.326666 0)
(0.00222268 0.34111 0)
(0.00154857 0.349095 0)
(0.00193827 0.350914 0)
(0.00214808 0.349671 0)
(0.00152639 0.346152 0)
(0.00108768 0.339537 0)
(0.000967996 0.329475 0)
(0.000711477 0.320949 0)
(-0.000177637 0.313933 0)
(-0.00113419 0.305253 0)
(-0.00223545 0.295323 0)
(-0.00282145 0.282718 0)
(-0.0024001 0.26827 0)
(-0.00139766 0.253533 0)
(-0.000588815 0.23894 0)
(-0.000304594 0.217405 0)
(0.00176918 0.180403 0)
(-0.000778421 0.122125 0)
(-0.00164207 0.0418612 0)
(0.000430197 0.0866002 0)
(0.00221415 0.173616 0)
(0.00114407 0.231747 0)
(0.00203141 0.273947 0)
(0.00249475 0.307013 0)
(0.00274534 0.328575 0)
(0.00235457 0.341209 0)
(0.00252991 0.34745 0)
(0.00317114 0.348651 0)
(0.00372036 0.348222 0)
(0.00391486 0.346044 0)
(0.00425864 0.338283 0)
(0.00458134 0.329653 0)
(0.00431959 0.321585 0)
(0.00359749 0.314353 0)
(0.00259454 0.306615 0)
(0.00106968 0.296717 0)
(0.000199033 0.283022 0)
(-0.000312084 0.266962 0)
(-0.000460435 0.252638 0)
(-0.000326004 0.237145 0)
(0.000885367 0.215159 0)
(0.00279802 0.179949 0)
(-0.000394347 0.124386 0)
(-0.00124026 0.0452065 0)
(0.000389816 0.0873901 0)
(0.00254015 0.17347 0)
(0.00245376 0.233051 0)
(0.00163516 0.274621 0)
(0.00179192 0.306269 0)
(0.0018912 0.326801 0)
(0.00235707 0.340415 0)
(0.00271913 0.3459 0)
(0.00362675 0.347331 0)
(0.00425333 0.346665 0)
(0.00521862 0.343148 0)
(0.00591267 0.336272 0)
(0.00640398 0.329113 0)
(0.00609866 0.322469 0)
(0.00530157 0.314521 0)
(0.0048207 0.306928 0)
(0.00464315 0.295457 0)
(0.00438955 0.282045 0)
(0.0037897 0.268804 0)
(0.002938 0.254322 0)
(0.00255007 0.236139 0)
(0.00316961 0.213186 0)
(0.00370274 0.181226 0)
(0.000419478 0.127746 0)
(-0.000565296 0.0505571 0)
(0.000627052 0.0883194 0)
(0.00194527 0.171687 0)
(0.00320363 0.234602 0)
(0.00211091 0.274694 0)
(0.00246886 0.306283 0)
(0.0025095 0.326483 0)
(0.0033755 0.34011 0)
(0.0042303 0.344558 0)
(0.00512572 0.344801 0)
(0.00593724 0.342547 0)
(0.00648822 0.339089 0)
(0.00697752 0.333716 0)
(0.00707706 0.325989 0)
(0.00681166 0.319593 0)
(0.0060661 0.313237 0)
(0.00598052 0.303384 0)
(0.00651435 0.292643 0)
(0.00651395 0.281012 0)
(0.00639484 0.268506 0)
(0.00585359 0.254729 0)
(0.00568734 0.236529 0)
(0.00465672 0.215148 0)
(0.00399373 0.184203 0)
(0.00092073 0.131833 0)
(0.000111322 0.0568009 0)
(0.000762016 0.0890721 0)
(0.0009147 0.170782 0)
(0.00203747 0.232691 0)
(0.00242837 0.274302 0)
(0.00315311 0.30367 0)
(0.00465886 0.324339 0)
(0.00637555 0.336032 0)
(0.00845655 0.341506 0)
(0.00964619 0.342108 0)
(0.0101933 0.340475 0)
(0.00970825 0.338428 0)
(0.00862492 0.330923 0)
(0.00748565 0.324244 0)
(0.00660183 0.318153 0)
(0.00601756 0.310847 0)
(0.00583367 0.301012 0)
(0.00629297 0.292813 0)
(0.00708139 0.28196 0)
(0.00742776 0.268841 0)