/*--------------------------------*- C++ -*----------------------------------*\
| =========                 |                                                 |
| \\      /  F ield         | OpenFOAM: The Open Source CFD Toolbox           |
|  \\    /   O peration     | Version:  2312                                  |
|   \\  /    A nd           | Website:  www.openfoam.com                      |
|    \\/     M anipulation  |                                                 |
\*---------------------------------------------------------------------------*/
FoamFile
{
    version     2.0;
    format      ascii;
    arch        "LSB;label=32;scalar=64";
    class       volVectorField;
    location    "82";
    object      Ur;
}
// * * * * * * * * * * * * * * * * * * * * * * * * * * * * * * * * * * * * * //

dimensions      [0 1 -1 0 0 0 0];

internalField   nonuniform List<vector> 
1875
(
(-0.0117617 0.233297 0)
(-0.0162339 0.23292 0)
(-0.00624759 0.232963 0)
(-0.00085928 0.23295 0)
(0.00545044 0.232183 0)
(0.00953987 0.229885 0)
(0.0112447 0.232152 0)
(0.00999531 0.233312 0)
(0.00681634 0.232494 0)
(0.00172379 0.230841 0)
(-0.0041734 0.228677 0)
(-0.0117045 0.225201 0)
(-0.0184193 0.219078 0)
(-0.0268148 0.211823 0)
(-0.0350591 0.207065 0)
(-0.0430675 0.203641 0)
(-0.0500698 0.201522 0)
(-0.0552612 0.199669 0)
(-0.0571718 0.198019 0)
(-0.0551616 0.19802 0)
(-0.0480815 0.199974 0)
(-0.037603 0.20208 0)
(-0.0242358 0.202799 0)
(-0.0181213 0.20413 0)
(-0.0104097 0.206403 0)
(-0.00278188 0.287322 0)
(0.00208037 0.288905 0)
(0.0131965 0.289746 0)
(0.0188788 0.289756 0)
(0.024504 0.288707 0)
(0.0278962 0.287475 0)
(0.0307888 0.28307 0)
(0.0324876 0.278971 0)
(0.0326151 0.275754 0)
(0.0308327 0.272771 0)
(0.0270065 0.27028 0)
(0.0210401 0.268602 0)
(0.0138552 0.268699 0)
(0.00529253 0.269215 0)
(-0.00409071 0.268172 0)
(-0.0114383 0.266773 0)
(-0.0147281 0.26478 0)
(-0.01657 0.263089 0)
(-0.0185109 0.262347 0)
(-0.0186516 0.262132 0)
(-0.0170678 0.262363 0)
(-0.0162821 0.263006 0)
(-0.0153409 0.264076 0)
(-0.0149889 0.263408 0)
(-0.00874631 0.264678 0)
(0.0024476 0.283831 0)
(0.013609 0.285803 0)
(0.0239799 0.284802 0)
(0.0299413 0.284089 0)
(0.0359149 0.283199 0)
(0.0409314 0.282332 0)
(0.0449619 0.280488 0)
(0.0475204 0.278552 0)
(0.0484316 0.276597 0)
(0.0475901 0.274592 0)
(0.0452947 0.272686 0)
(0.0414129 0.270902 0)
(0.0358998 0.26917 0)
(0.0291666 0.267469 0)
(0.0220552 0.265468 0)
(0.0134253 0.262505 0)
(0.00464719 0.258975 0)
(-0.0020791 0.256068 0)
(-0.0061299 0.254587 0)
(-0.00837511 0.254068 0)
(-0.00993536 0.254636 0)
(-0.00976967 0.256087 0)
(-0.00680365 0.259542 0)
(-0.00702703 0.261966 0)
(-0.00402616 0.263568 0)
(0.0144503 0.287274 0)
(0.0259882 0.288859 0)
(0.0261951 0.286391 0)
(0.0314729 0.284523 0)
(0.0375929 0.282816 0)
(0.0425098 0.281038 0)
(0.0457599 0.279174 0)
(0.0470557 0.277299 0)
(0.0463331 0.275494 0)
(0.0443593 0.273733 0)
(0.0412644 0.271975 0)
(0.0372624 0.270186 0)
(0.032332 0.268315 0)
(0.0266555 0.266426 0)
(0.0207781 0.264443 0)
(0.014236 0.262929 0)
(0.00681053 0.261853 0)
(0.00113654 0.261057 0)
(-0.0013287 0.260934 0)
(-0.00252307 0.261073 0)
(-0.00220991 0.261286 0)
(-0.00423512 0.261297 0)
(-0.00183579 0.26218 0)
(-0.00211264 0.263538 0)
(-0.000783664 0.265528 0)
(0.015014 0.271954 0)
(0.0217736 0.273976 0)
(0.0199963 0.273532 0)
(0.0293859 0.27226 0)
(0.037512 0.270648 0)
(0.0432934 0.268854 0)
(0.0465757 0.266986 0)
(0.0473901 0.26521 0)
(0.0459414 0.263656 0)
(0.0427551 0.2623 0)
(0.0381776 0.261056 0)
(0.0322408 0.259822 0)
(0.0252469 0.258701 0)
(0.0177808 0.257741 0)
(0.0102877 0.257048 0)
(0.00374815 0.256877 0)
(-0.0013246 0.257928 0)
(-0.00380242 0.259025 0)
(-0.00431675 0.259118 0)
(-0.00368718 0.259375 0)
(-0.001953 0.260227 0)
(0.00150524 0.262938 0)
(0.00103114 0.263555 0)
(0.00152373 0.263381 0)
(0.00145931 0.264076 0)
(0.0251159 0.26225 0)
(0.029579 0.265752 0)
(0.0185149 0.26465 0)
(0.0296503 0.263115 0)
(0.0384286 0.261271 0)
(0.0431459 0.259119 0)
(0.0449396 0.257156 0)
(0.0440644 0.255565 0)
(0.0408117 0.254404 0)
(0.0354258 0.253598 0)
(0.0280548 0.25318 0)
(0.0194941 0.253308 0)
(0.0108413 0.25345 0)
(0.00288269 0.253873 0)
(-0.00358093 0.254799 0)
(-0.00797807 0.256187 0)
(-0.00997506 0.25764 0)
(-0.0101527 0.259126 0)
(-0.00901811 0.260915 0)
(-0.00650178 0.262433 0)
(-0.00333068 0.26334 0)
(-0.000115713 0.262796 0)
(0.00122387 0.262401 0)
(0.00429128 0.261944 0)
(0.00435387 0.261857 0)
(0.0343756 0.252351 0)
(0.0357453 0.255158 0)
(0.0142473 0.254269 0)
(0.0274939 0.252544 0)
(0.033933 0.249687 0)
(0.0358672 0.247137 0)
(0.0352978 0.245483 0)
(0.0315047 0.244864 0)
(0.0253242 0.245176 0)
(0.0175607 0.246352 0)
(0.00949353 0.24739 0)
(0.00152223 0.246909 0)
(-0.00573786 0.248807 0)
(-0.0112583 0.251671 0)
(-0.0149272 0.254248 0)
(-0.0165881 0.256625 0)
(-0.0164534 0.258946 0)
(-0.0148061 0.26102 0)
(-0.0117219 0.262878 0)
(-0.00774842 0.264195 0)
(-0.0037347 0.264844 0)
(-0.000525866 0.264742 0)
(0.000747487 0.26438 0)
(0.00492959 0.26361 0)
(0.00541525 0.263285 0)
(0.0388332 0.247686 0)
(0.0367855 0.248616 0)
(0.00785804 0.247955 0)
(0.0181707 0.245992 0)
(0.0193698 0.243044 0)
(0.020026 0.241461 0)
(0.0182148 0.241178 0)
(0.0135169 0.242042 0)
(0.00726073 0.243118 0)
(0.000213842 0.242047 0)
(-0.00702207 0.242622 0)
(-0.0132205 0.249368 0)
(-0.0174471 0.253046 0)
(-0.0202207 0.255395 0)
(-0.0216816 0.258576 0)
(-0.0211542 0.260929 0)
(-0.0191065 0.263194 0)
(-0.0156032 0.26511 0)
(-0.0113266 0.266506 0)
(-0.00691218 0.267253 0)
(-0.00314895 0.267323 0)
(-0.000380542 0.266854 0)
(0.000608998 0.266179 0)
(0.00527808 0.265331 0)
(0.00552453 0.265094 0)
(0.0386424 0.247962 0)
(0.0305739 0.246853 0)
(-0.00334566 0.245262 0)
(0.00542926 0.243665 0)
(0.00464108 0.242132 0)
(0.00663751 0.242257 0)
(0.00541664 0.243426 0)
(0.00222242 0.245627 0)
(-0.00234076 0.248918 0)
(-0.00881082 0.256933 0)
(-0.0124169 0.261501 0)
(-0.0168124 0.260067 0)
(-0.0215435 0.259907 0)
(-0.0233713 0.261977 0)
(-0.0224856 0.263121 0)
(-0.0204683 0.265548 0)
(-0.0170394 0.267386 0)
(-0.0128605 0.268748 0)
(-0.00857159 0.269484 0)
(-0.00473545 0.269634 0)
(-0.00184921 0.269279 0)
(0.000308357 0.268633 0)
(0.00091486 0.2679 0)
(0.00576833 0.267039 0)
(0.00583909 0.266934 0)
(0.0331959 0.250731 0)
(0.0183006 0.247963 0)
(-0.0137275 0.247572 0)
(-0.00344638 0.247127 0)
(-0.00372384 0.247279 0)
(-0.000555892 0.248366 0)
(-0.00141665 0.250055 0)
(-0.00424286 0.252184 0)
(-0.0090387 0.254255 0)
(-0.0141705 0.255645 0)
(-0.0188658 0.258347 0)
(-0.0220124 0.2614 0)
(-0.0214573 0.263448 0)
(-0.0207611 0.265411 0)
(-0.0191265 0.267849 0)
(-0.0164415 0.269451 0)
(-0.0130525 0.270684 0)
(-0.00952257 0.27141 0)
(-0.00624171 0.27164 0)
(-0.00345715 0.271478 0)
(-0.00135667 0.271045 0)
(0.000497365 0.270494 0)
(0.00117569 0.269925 0)
(0.00663364 0.269338 0)
(0.00626099 0.26923 0)
(0.0235043 0.252162 0)
(0.0115079 0.249083 0)
(-0.0142034 0.251263 0)
(-0.0068785 0.251987 0)
(-0.0062032 0.253097 0)
(-0.00325852 0.25437 0)
(-0.00386611 0.255969 0)
(-0.00638843 0.257686 0)
(-0.0102301 0.259476 0)
(-0.0139795 0.260844 0)
(-0.0168947 0.262099 0)
(-0.0178682 0.26422 0)
(-0.0179954 0.267018 0)
(-0.0172909 0.268947 0)
(-0.0157623 0.270339 0)
(-0.0137205 0.271419 0)
(-0.0114434 0.272144 0)
(-0.00913052 0.272532 0)
(-0.00689899 0.272645 0)
(-0.00480219 0.272572 0)
(-0.00294608 0.272393 0)
(-0.000900191 0.272179 0)
(0.000166422 0.271987 0)
(0.00700112 0.271754 0)
(0.00694727 0.272075 0)
(0.017965 0.254579 0)
(0.011412 0.253098 0)
(-0.0100118 0.255014 0)
(-0.00666401 0.256363 0)
(-0.00610361 0.257667 0)
(-0.00407717 0.258779 0)
(-0.00460117 0.259975 0)
(-0.00654008 0.261274 0)
(-0.00904005 0.262806 0)
(-0.0114355 0.264259 0)
(-0.0134636 0.265764 0)
(-0.014677 0.267424 0)
(-0.0152216 0.268866 0)
(-0.015089 0.270083 0)
(-0.0145304 0.271062 0)
(-0.0136374 0.271817 0)
(-0.0124591 0.272374 0)
(-0.0110339 0.272768 0)
(-0.00939734 0.273039 0)
(-0.00757736 0.273222 0)
(-0.00568051 0.273359 0)
(-0.00320545 0.273503 0)
(-0.00166022 0.273638 0)
(0.00703545 0.273608 0)
(0.00752219 0.27381 0)
(0.0150856 0.258082 0)
(0.0103738 0.256866 0)
(-0.00751111 0.25802 0)
(-0.00509489 0.259238 0)
(-0.00564168 0.259969 0)
(-0.00427786 0.261155 0)
(-0.00464388 0.26256 0)
(-0.0056793 0.263648 0)
(-0.00703167 0.264829 0)
(-0.00892845 0.265922 0)
(-0.0108484 0.266987 0)
(-0.0125065 0.268004 0)
(-0.0137565 0.268943 0)
(-0.0145394 0.269772 0)
(-0.0148886 0.270493 0)
(-0.0148 0.271121 0)
(-0.0142999 0.271665 0)
(-0.0134271 0.272133 0)
(-0.0122409 0.27253 0)
(-0.0107483 0.272867 0)
(-0.00897642 0.273194 0)
(-0.00665346 0.273561 0)
(-0.00559917 0.273878 0)
(0.00332524 0.274403 0)
(0.00507592 0.273466 0)
(0.0101978 0.261311 0)
(0.00758561 0.259248 0)
(-0.00485651 0.260109 0)
(-0.00309225 0.261012 0)
(-0.00416571 0.262379 0)
(-0.00314151 0.263223 0)
(-0.00331641 0.26368 0)
(-0.00373646 0.264523 0)
(-0.00494138 0.265221 0)
(-0.00694659 0.265831 0)
(-0.00922176 0.266408 0)
(-0.0114368 0.266988 0)
(-0.0133102 0.267584 0)
(-0.0147107 0.268187 0)
(-0.0155934 0.268788 0)
(-0.0159696 0.269372 0)
(-0.0158854 0.269924 0)
(-0.0153917 0.270431 0)
(-0.0145562 0.270891 0)
(-0.013304 0.271318 0)
(-0.0117566 0.271738 0)
(-0.0101548 0.272205 0)
(-0.0104695 0.272737 0)
(-0.00622123 0.273484 0)
(-0.00155169 0.271668 0)
(0.00495011 0.261376 0)
(0.00414546 0.258861 0)
(-0.00220042 0.261627 0)
(-0.00126422 0.262087 0)
(-0.00180829 0.262767 0)
(-0.00100746 0.262936 0)
(-0.000884317 0.263184 0)
(-0.00141109 0.263767 0)
(-0.00302587 0.263981 0)
(-0.0053979 0.264153 0)
(-0.00809845 0.26438 0)
(-0.0107208 0.264703 0)
(-0.0129718 0.265126 0)
(-0.0147194 0.265627 0)
(-0.0159215 0.26618 0)
(-0.016591 0.266756 0)
(-0.0167683 0.267334 0)
(-0.0164853 0.267901 0)
(-0.0157692 0.268448 0)
(-0.0146028 0.268984 0)
(-0.0130839 0.269461 0)
(-0.0112038 0.269879 0)
(-0.0108992 0.270592 0)
(-0.0134923 0.27225 0)
(-0.00824417 0.271349 0)
(-0.000689199 0.264038 0)
(0.00101547 0.261508 0)
(-0.00015862 0.262332 0)
(0.000244771 0.262333 0)
(0.000320852 0.262374 0)
(0.00119623 0.262867 0)
(0.00153052 0.262858 0)
(0.000976902 0.262343 0)
(-0.000894267 0.262203 0)
(-0.0034284 0.262019 0)
(-0.00634488 0.261948 0)
(-0.00923175 0.262035 0)
(-0.0117813 0.26228 0)
(-0.0138348 0.262658 0)
(-0.0153251 0.263136 0)
(-0.0162407 0.263685 0)
(-0.0166046 0.26428 0)
(-0.016442 0.264902 0)
(-0.0157449 0.265532 0)
(-0.0146165 0.26615 0)
(-0.0130503 0.266732 0)
(-0.0100992 0.26732 0)
(-0.00674644 0.267884 0)
(-0.0118331 0.26899 0)
(-0.0095782 0.269255 0)
(-0.00494217 0.265827 0)
(-0.00234202 0.264398 0)
(0.0027534 0.262495 0)
(0.00181383 0.262439 0)
(0.00242233 0.262451 0)
(0.00334793 0.2621 0)
(0.00403209 0.261961 0)
(0.0038642 0.261488 0)
(0.00192951 0.260638 0)
(-0.000840223 0.260119 0)
(-0.00396781 0.259755 0)
(-0.00703145 0.259556 0)
(-0.00977931 0.259536 0)
(-0.0120524 0.2597 0)
(-0.0137652 0.260021 0)
(-0.014889 0.260474 0)
(-0.0154247 0.261027 0)
(-0.0153973 0.261653 0)
(-0.0148052 0.262318 0)
(-0.0136337 0.262973 0)
(-0.012047 0.263608 0)
(-0.00915924 0.264116 0)
(-0.00414788 0.264232 0)
(-0.0086934 0.264183 0)
(-0.0083351 0.263809 0)
(-0.007172 0.263896 0)
(-0.00334188 0.263265 0)
(0.00585734 0.263205 0)
(0.00417459 0.262988 0)
(0.00472329 0.262762 0)
(0.0056598 0.262234 0)
(0.00642652 0.261439 0)
(0.0066434 0.26046 0)
(0.00544852 0.259557 0)
(0.00280729 0.258684 0)
(-0.000542711 0.257965 0)
(-0.00395868 0.257502 0)
(-0.00697427 0.257271 0)
(-0.00943615 0.257194 0)
(-0.011305 0.2573 0)
(-0.0125624 0.257579 0)
(-0.0132228 0.258009 0)
(-0.013322 0.258558 0)
(-0.0129201 0.259189 0)
(-0.0119654 0.259839 0)
(-0.01053 0.260437 0)
(-0.00871491 0.260944 0)
(-0.00417133 0.26091 0)
(-0.0104574 0.261046 0)
(-0.0108385 0.260212 0)
(-0.00945101 0.263901 0)
(-0.00753842 0.264053 0)
(0.00426651 0.263556 0)
(0.00459799 0.263357 0)
(0.00539383 0.263059 0)
(0.00652741 0.262492 0)
(0.0076573 0.261647 0)
(0.00828958 0.26057 0)
(0.0080183 0.25927 0)
(0.00640579 0.258077 0)
(0.00360864 0.257257 0)
(0.000274782 0.256432 0)
(-0.00311259 0.255707 0)
(-0.00601647 0.255404 0)
(-0.00817736 0.255307 0)
(-0.00961365 0.255401 0)
(-0.0103834 0.255666 0)
(-0.0105737 0.256077 0)
(-0.0103214 0.256599 0)
(-0.00970339 0.257184 0)
(-0.00876238 0.257747 0)
(-0.00816484 0.258208 0)
(-0.00455306 0.258299 0)
(-0.0132801 0.258173 0)
(-0.0133865 0.257165 0)
(-0.0110182 0.262468 0)
(-0.0111022 0.263398 0)
(0.000952105 0.263324 0)
(0.00492137 0.263214 0)
(0.00644308 0.263078 0)
(0.00751601 0.262702 0)
(0.00871385 0.261986 0)
(0.00947777 0.260983 0)
(0.00965704 0.259779 0)
(0.00898456 0.258029 0)
(0.00736143 0.255289 0)
(0.00484354 0.254584 0)
(0.00183833 0.255056 0)
(-0.00132731 0.25442 0)
(-0.00399502 0.254117 0)
(-0.00586898 0.254049 0)
(-0.00695881 0.254177 0)
(-0.00735549 0.254457 0)
(-0.0072601 0.254854 0)
(-0.00686276 0.255328 0)
(-0.00635524 0.255827 0)
(-0.00682891 0.256286 0)
(-0.00394059 0.256509 0)
(-0.0149776 0.256185 0)
(-0.0152042 0.25521 0)
(-0.0112443 0.264078 0)
(-0.0110519 0.264597 0)
(0.000908785 0.265116 0)
(0.00599437 0.264625 0)
(0.00875071 0.264169 0)
(0.00976639 0.263655 0)
(0.010539 0.262929 0)
(0.0111562 0.261923 0)
(0.0112442 0.260653 0)
(0.0110864 0.259852 0)
(0.00989202 0.257572 0)
(0.00825468 0.254712 0)
(0.00577773 0.253995 0)
(0.0034265 0.254311 0)
(0.000899047 0.253748 0)
(-0.00130662 0.253498 0)
(-0.00286119 0.253493 0)
(-0.00370719 0.253674 0)
(-0.00397898 0.253981 0)
(-0.00388862 0.254368 0)
(-0.00364583 0.254782 0)
(-0.00481382 0.255246 0)
(-0.00234167 0.255567 0)
(-0.0158825 0.255682 0)
(-0.0168477 0.254994 0)
(-0.0104926 0.266368 0)
(-0.0105947 0.267007 0)
(8.90178e-05 0.267444 0)
(0.0044833 0.266867 0)
(0.00889593 0.265969 0)
(0.0109647 0.265095 0)
(0.0118594 0.264196 0)
(0.0123068 0.263144 0)
(0.0122576 0.261964 0)
(0.0117951 0.260096 0)
(0.0105136 0.26268 0)
(0.00910949 0.261852 0)
(0.00830841 0.25642 0)
(0.00658314 0.254421 0)
(0.00499626 0.254324 0)
(0.00325262 0.253752 0)
(0.00163454 0.253534 0)
(0.000442196 0.253579 0)
(-0.00027229 0.253791 0)
(-0.000631561 0.254109 0)
(-0.00061048 0.254436 0)
(-0.0021414 0.254824 0)
(0.000335197 0.255147 0)
(-0.0154651 0.255022 0)
(-0.0178439 0.254955 0)
(-0.00846884 0.266863 0)
(-0.00849472 0.267968 0)
(-0.000300705 0.268316 0)
(0.00206711 0.268242 0)
(0.00676917 0.267459 0)
(0.0102422 0.26643 0)
(0.0120925 0.265389 0)
(0.0127486 0.264325 0)
(0.0129079 0.263184 0)
(0.0121354 0.261923 0)
(0.0123001 0.26013 0)
(0.0117051 0.261215 0)
(0.0102766 0.260599 0)
(0.00921878 0.256489 0)
(0.00783919 0.254725 0)
(0.0067306 0.254804 0)
(0.00552471 0.25437 0)
(0.00435761 0.254173 0)
(0.00338813 0.254193 0)
(0.00253213 0.254361 0)
(0.00211827 0.254564 0)
(0.000168388 0.254784 0)
(0.00129297 0.255032 0)
(-0.0143741 0.254268 0)
(-0.016356 0.25511 0)
(-0.00578755 0.266557 0)
(-0.00571615 0.26787 0)
(0.000190842 0.267997 0)
(0.000808092 0.268295 0)
(0.00384498 0.268003 0)
(0.00748455 0.267194 0)
(0.0103102 0.266169 0)
(0.0117435 0.265108 0)
(0.0121844 0.264044 0)
(0.0119139 0.263004 0)
(0.0113545 0.260974 0)
(0.0108092 0.258237 0)
(0.0102632 0.259783 0)
(0.0095884 0.260445 0)
(0.00903149 0.258141 0)
(0.008292 0.25622 0)
(0.00773407 0.255761 0)
(0.00694871 0.25535 0)
(0.00609502 0.255145 0)
(0.00504655 0.25512 0)
(0.00416162 0.255206 0)
(0.00217592 0.255296 0)
(0.000988364 0.255516 0)
(-0.0134916 0.254863 0)
(-0.0137403 0.255998 0)
(-0.00259249 0.265201 0)
(-0.00254906 0.267057 0)
(0.000923272 0.267376 0)
(0.000970931 0.267365 0)
(0.00203604 0.267354 0)
(0.00441969 0.266961 0)
(0.00721785 0.266192 0)
(0.0092895 0.265258 0)
(0.0102987 0.264317 0)
(0.0104575 0.263379 0)
(0.0101223 0.262362 0)
(0.0094261 0.261308 0)
(0.00879444 0.259467 0)
(0.00848344 0.259014 0)
(0.00840665 0.259151 0)
(0.00834821 0.258199 0)
(0.00831844 0.25734 0)
(0.00814689 0.256733 0)
(0.0076601 0.256334 0)
(0.00680132 0.256101 0)
(0.00573143 0.256008 0)
(0.00369418 0.25596 0)
(0.00156335 0.255883 0)
(-0.0114012 0.255903 0)
(-0.0113348 0.256948 0)
(0.00335882 0.263607 0)
(0.00512717 0.26601 0)
(0.00150924 0.266432 0)
(-0.000833493 0.266153 0)
(0.000425562 0.266102 0)
(0.00174136 0.266044 0)
(0.00373838 0.265676 0)
(0.00590886 0.265036 0)
(0.00739353 0.264228 0)
(0.00794617 0.263421 0)
(0.00792293 0.262637 0)
(0.00763983 0.261891 0)
(0.00726473 0.261123 0)
(0.00695364 0.260998 0)
(0.00702916 0.260693 0)
(0.00729779 0.259485 0)
(0.00763416 0.258524 0)
(0.00790681 0.258053 0)
(0.00784727 0.257546 0)
(0.00724883 0.257152 0)
(0.00620402 0.25687 0)
(0.00350105 0.256706 0)
(0.00204066 0.256402 0)
(-0.00823077 0.256647 0)
(-0.0090575 0.257685 0)
(0.0108202 0.260855 0)
(0.0137838 0.263634 0)
(0.00175672 0.263706 0)
(-0.0031187 0.263624 0)
(-0.00102844 0.26419 0)
(2.19804e-05 0.264444 0)
(0.00112793 0.264503 0)
(0.00241047 0.264291 0)
(0.00365758 0.263786 0)
(0.0046531 0.263216 0)
(0.00508548 0.262637 0)
(0.00519337 0.262098 0)
(0.00517762 0.261604 0)
(0.00521954 0.260543 0)
(0.00551525 0.260227 0)
(0.00589937 0.260505 0)
(0.0063611 0.25995 0)
(0.00681246 0.259215 0)
(0.00707263 0.258692 0)
(0.0067325 0.258251 0)
(0.00588612 0.257899 0)
(0.00293235 0.25771 0)
(0.00215787 0.257608 0)
(-0.00513839 0.257612 0)
(-0.00657323 0.258597 0)
(0.0153985 0.261708 0)
(0.0158259 0.262509 0)
(0.000779308 0.26078 0)
(-0.00085968 0.261946 0)
(-0.000283438 0.262362 0)
(-0.00013648 0.262681 0)
(-5.59979e-06 0.262898 0)
(0.000173037 0.262955 0)
(0.00070514 0.262886 0)
(0.00153421 0.262659 0)
(0.00213388 0.262343 0)
(0.00262116 0.262033 0)
(0.00302413 0.261726 0)
(0.00336332 0.261393 0)
(0.00379085 0.26119 0)
(0.00432537 0.260957 0)
(0.00495695 0.260493 0)
(0.00546424 0.260073 0)
(0.00586473 0.259628 0)
(0.00577342 0.259203 0)
(0.00523178 0.258855 0)
(0.00282779 0.258646 0)
(0.00216944 0.258711 0)
(-0.00309748 0.258498 0)
(-0.0044727 0.259367 0)
(0.0158106 0.262898 0)
(0.0139664 0.261758 0)
(-0.00081349 0.260704 0)
(0.00170446 0.261593 0)
(0.000609144 0.26147 0)
(-0.000361145 0.2616 0)
(-0.00088825 0.261745 0)
(-0.0011328 0.261844 0)
(-0.00106853 0.261956 0)
(-0.000796757 0.261957 0)
(-0.000296307 0.261901 0)
(0.000334519 0.261813 0)
(0.000977699 0.261683 0)
(0.00162069 0.26153 0)
(0.00226082 0.261139 0)
(0.00294049 0.260952 0)
(0.00360227 0.260925 0)
(0.00413327 0.260651 0)
(0.00454841 0.260305 0)
(0.00463513 0.259935 0)
(0.00439914 0.259625 0)
(0.00268676 0.259385 0)
(0.00201688 0.259419 0)
(-0.00137064 0.259035 0)
(-0.00245413 0.259858 0)
(0.0125023 0.260996 0)
(0.00992804 0.259915 0)
(-0.00172523 0.260709 0)
(0.00144843 0.260641 0)
(9.26239e-05 0.260795 0)
(-0.00106972 0.260853 0)
(-0.00184111 0.260975 0)
(-0.0024359 0.261099 0)
(-0.00267212 0.261225 0)
(-0.00257953 0.26133 0)
(-0.00209715 0.261432 0)
(-0.00146341 0.261528 0)
(-0.000677208 0.261559 0)
(0.00018705 0.261579 0)
(0.000966378 0.261516 0)
(0.00169115 0.261363 0)
(0.00236338 0.261219 0)
(0.00292367 0.261028 0)
(0.00335037 0.260776 0)
(0.0035744 0.260508 0)
(0.00350006 0.260277 0)
(0.0022946 0.259981 0)
(0.0016645 0.259941 0)
(-2.82595e-05 0.25998 0)
(-0.000753397 0.260684 0)
(0.010333 0.259711 0)
(0.00788416 0.259306 0)
(-0.00138076 0.2598 0)
(0.0012057 0.259906 0)
(-0.000510754 0.260036 0)
(-0.0017014 0.260149 0)
(-0.00267535 0.26028 0)
(-0.00352554 0.260441 0)
(-0.00395147 0.260632 0)
(-0.00393505 0.260898 0)
(-0.00341962 0.261165 0)
(-0.00272648 0.261238 0)
(-0.00185516 0.261394 0)
(-0.00090867 0.261474 0)
(-5.42167e-05 0.261514 0)
(0.000710511 0.261474 0)
(0.0013939 0.261384 0)
(0.00197114 0.261239 0)
(0.00248745 0.261064 0)
(0.00289299 0.260875 0)
(0.00259659 0.260685 0)
(0.0015578 0.260394 0)
(0.000862875 0.260237 0)
(0.00105044 0.258511 0)
(0.000896268 0.259106 0)
(0.010015 0.258807 0)
(0.00818144 0.258859 0)
(-0.00041433 0.259331 0)
(0.00137158 0.259461 0)
(-0.000805643 0.259497 0)
(-0.00217469 0.259634 0)
(-0.00342908 0.259755 0)
(-0.00441155 0.259944 0)
(-0.0048814 0.260179 0)
(-0.00485198 0.260271 0)
(-0.00427182 0.259988 0)
(-0.00352619 0.261065 0)
(-0.00261902 0.261249 0)
(-0.00167191 0.261383 0)
(-0.000823347 0.261468 0)
(-6.83707e-05 0.261474 0)
(0.000606355 0.261423 0)
(0.00122045 0.261326 0)
(0.00180646 0.261202 0)
(0.0022116 0.261032 0)
(0.00168087 0.260757 0)
(0.000683432 0.260589 0)
(-0.000247527 0.260445 0)
(0.00176002 0.260768 0)
(0.00256035 0.261392 0)
(0.00997482 0.258871 0)
(0.00863896 0.259082 0)
(-8.44527e-05 0.259424 0)
(0.000992193 0.259271 0)
(-0.00118223 0.259201 0)
(-0.00266909 0.259277 0)
(-0.00411016 0.259368 0)
(-0.00502803 0.259581 0)
(-0.00535475 0.259854 0)
(-0.00521769 0.259123 0)
(-0.00490508 0.259915 0)
(-0.00409568 0.260829 0)
(-0.00316141 0.261085 0)
(-0.00223703 0.261255 0)
(-0.00142404 0.261368 0)
(-0.000692638 0.261408 0)
(-2.29546e-05 0.261397 0)
(0.00062716 0.261347 0)
(0.00115853 0.261256 0)
(0.00110665 0.261079 0)
(0.000694587 0.260808 0)
(-1.54808e-05 0.26075 0)
(-0.00166178 0.260611 0)
(0.0023752 0.262155 0)
(0.00384866 0.262626 0)
(0.010559 0.258979 0)
(0.00939232 0.259179 0)
(-0.000834127 0.259612 0)
(-0.000498899 0.259247 0)
(-0.00213813 0.259107 0)
(-0.0034612 0.259065 0)
(-0.00478513 0.25913 0)
(-0.00544662 0.259329 0)
(-0.00555019 0.259629 0)
(-0.00530894 0.260925 0)
(-0.0049176 0.262049 0)
(-0.00424544 0.260563 0)
(-0.00334863 0.260897 0)
(-0.00254534 0.261101 0)
(-0.00179912 0.261238 0)
(-0.00110841 0.261316 0)
(-0.000441522 0.261348 0)
(0.000169155 0.26134 0)
(0.000438374 0.261266 0)
(0.000119554 0.261129 0)
(-8.95068e-06 0.261049 0)
(-0.000776098 0.261054 0)
(-0.00280065 0.260916 0)
(0.00254307 0.259863 0)
(0.00454796 0.260124 0)
(0.0104538 0.258492 0)
(0.0102631 0.258203 0)
(-0.00124262 0.258646 0)
(-0.00250577 0.258735 0)
(-0.00354833 0.258783 0)
(-0.0046497 0.258795 0)
(-0.00553419 0.25894 0)
(-0.00587353 0.259189 0)
(-0.00586531 0.2595 0)
(-0.00556944 0.261138 0)
(-0.00497421 0.261223 0)
(-0.00394282 0.260511 0)
(-0.00332217 0.260785 0)
(-0.00259777 0.260991 0)
(-0.0019415 0.261135 0)
(-0.00128492 0.261233 0)
(-0.000647617 0.261293 0)
(-0.00018488 0.261303 0)
(-8.75012e-05 0.261245 0)
(-0.000240089 0.261201 0)
(-0.000104007 0.261214 0)
(-0.00115396 0.261209 0)
(-0.00285678 0.261229 0)
(0.00328597 0.261435 0)
(0.00490803 0.261326 0)
(0.0091739 0.257939 0)
(0.00910166 0.257346 0)
(-0.000350673 0.257376 0)
(-0.00164781 0.258069 0)
(-0.00381631 0.25831 0)
(-0.00504844 0.258509 0)
(-0.00566351 0.258791 0)
(-0.0058499 0.259126 0)
(-0.00572036 0.259489 0)
(-0.00538275 0.259274 0)
(-0.00452465 0.258972 0)
(-0.00380883 0.260522 0)
(-0.00319586 0.260732 0)
(-0.0025603 0.260915 0)
(-0.00195351 0.261054 0)
(-0.0013184 0.261158 0)
(-0.000754828 0.261224 0)
(-0.000449673 0.261237 0)
(-0.000349028 0.261219 0)
(-0.000392753 0.261224 0)
(-0.000309963 0.261231 0)
(-0.00127002 0.261182 0)
(-0.00213779 0.261317 0)
(0.00398103 0.261686 0)
(0.00486173 0.26142 0)
(0.00778057 0.258232 0)
(0.00710875 0.25773 0)
(0.000464516 0.257696 0)
(3.70203e-05 0.258103 0)
(-0.00341672 0.258264 0)
(-0.00468614 0.258507 0)
(-0.00523752 0.258819 0)
(-0.00535449 0.259153 0)
(-0.00515399 0.259516 0)
(-0.00472027 0.259528 0)
(-0.00415921 0.260097 0)
(-0.0036525 0.260439 0)
(-0.00302116 0.260658 0)
(-0.00244704 0.260832 0)
(-0.00185901 0.260973 0)
(-0.00125235 0.26108 0)
(-0.00077799 0.261147 0)
(-0.000540733 0.261176 0)
(-0.000429072 0.261205 0)
(-0.000420284 0.261235 0)
(-0.000439776 0.261283 0)
(-0.0011362 0.261303 0)
(-0.00107129 0.261557 0)
(0.0041949 0.261777 0)
(0.00426244 0.26124 0)
(0.00674296 0.258648 0)
(0.00603396 0.258255 0)
(0.000529485 0.258377 0)
(0.000116443 0.258352 0)
(-0.00328413 0.258428 0)
(-0.00428921 0.258649 0)
(-0.00473455 0.258935 0)
(-0.00479733 0.259244 0)
(-0.00456239 0.259558 0)
(-0.00418936 0.259765 0)
(-0.00375448 0.260124 0)
(-0.00325962 0.260384 0)
(-0.0027262 0.260591 0)
(-0.00220267 0.260759 0)
(-0.00164181 0.260898 0)
(-0.00108761 0.261002 0)
(-0.000679254 0.261067 0)
(-0.000434562 0.26111 0)
(-0.000257748 0.261159 0)
(-0.000164736 0.261209 0)
(-7.92798e-05 0.261285 0)
(-0.000236418 0.261377 0)
(-7.6608e-05 0.261712 0)
(0.00331988 0.261685 0)
(0.00308614 0.260917 0)
(0.00581136 0.258852 0)
(0.00513693 0.258475 0)
(0.000394485 0.258592 0)
(-4.44816e-05 0.258507 0)
(-0.00303646 0.258601 0)
(-0.00376772 0.258819 0)
(-0.00412685 0.259081 0)
(-0.00416913 0.259361 0)
(-0.0039564 0.259645 0)
(-0.00363578 0.259901 0)
(-0.00325898 0.260151 0)
(-0.00282188 0.260366 0)
(-0.00236839 0.26055 0)
(-0.00188528 0.2607 0)
(-0.00135637 0.260824 0)
(-0.000867225 0.260912 0)
(-0.0004977 0.260965 0)
(-0.000219293 0.261 0)
(1.1671e-05 0.261034 0)
(0.00020335 0.261056 0)
(0.00041805 0.261044 0)
(0.00088022 0.261124 0)
(0.000690538 0.261481 0)
(0.00151813 0.261342 0)
(0.00136399 0.260466 0)
(0.00489329 0.259065 0)
(0.00427872 0.258709 0)
(0.000213208 0.258813 0)
(-0.000211618 0.258723 0)
(-0.00269742 0.258833 0)
(-0.00323462 0.259035 0)
(-0.00353422 0.259261 0)
(-0.00355191 0.259504 0)
(-0.00337018 0.259745 0)
(-0.0030986 0.259969 0)
(-0.00277319 0.260177 0)
(-0.00239264 0.260362 0)
(-0.00199579 0.260517 0)
(-0.00155462 0.26065 0)
(-0.00107416 0.260755 0)
(-0.000659082 0.260827 0)
(-0.000335829 0.260872 0)
(-6.29491e-05 0.260902 0)
(0.000160733 0.260903 0)
(0.000258533 0.260934 0)
(0.000697226 0.261177 0)
(0.00205603 0.26128 0)
(0.00118328 0.261572 0)
(-0.000496625 0.26077 0)
(-0.000260014 0.260504 0)
(0.0040734 0.259252 0)
(0.00350586 0.25893 0)
(4.01157e-05 0.259019 0)
(-0.000311349 0.25895 0)
(-0.0022992 0.25906 0)
(-0.00270868 0.25924 0)
(-0.00297769 0.259419 0)
(-0.0029842 0.259623 0)
(-0.00282992 0.259836 0)
(-0.00259525 0.260028 0)
(-0.00230251 0.260205 0)
(-0.00197431 0.260347 0)
(-0.00162037 0.260491 0)
(-0.00120655 0.260606 0)
(-0.000777365 0.260697 0)
(-0.000411159 0.26076 0)
(-9.80275e-05 0.260813 0)
(0.000179776 0.260854 0)
(0.000513603 0.261015 0)
(0.000954631 0.261092 0)
(0.00168736 0.259724 0)
(0.00424214 0.259806 0)
(0.00168913 0.261356 0)
(-0.0030792 0.260413 0)
(-0.0015915 0.260434 0)
(0.00330733 0.259404 0)
(0.00281242 0.259109 0)
(-6.43064e-05 0.259225 0)
(-0.000363135 0.259155 0)
(-0.00192416 0.259244 0)
(-0.00226527 0.25938 0)
(-0.00251001 0.25958 0)
(-0.00246451 0.259769 0)
(-0.00232897 0.2599 0)
(-0.00213015 0.260052 0)
(-0.00189124 0.260185 0)
(-0.00159079 0.260373 0)
(-0.00123367 0.260453 0)
(-0.000848193 0.26056 0)
(-0.000465132 0.260624 0)
(-0.000103802 0.260676 0)
(0.000228253 0.26068 0)
(0.000517584 0.260709 0)
(0.000950594 0.259607 0)
(0.00167812 0.259493 0)
(0.00244607 0.261644 0)
(0.00488778 0.261475 0)
(0.00207896 0.259676 0)
(-0.00430006 0.261658 0)
(-0.00288859 0.259881 0)
(0.00265073 0.25957 0)
(0.00217306 0.259364 0)
(-0.000113702 0.259155 0)
(-0.000352014 0.25936 0)
(-0.00165697 0.259458 0)
(-0.00191537 0.259634 0)
(-0.00208971 0.259388 0)
(-0.00194349 0.259439 0)
(-0.0018268 0.259991 0)
(-0.00171877 0.260106 0)
(-0.00151823 0.260315 0)
(-0.00115811 0.259607 0)
(-0.000809307 0.260415 0)
(-0.000573254 0.260468 0)
(-0.000212144 0.26054 0)
(8.17168e-05 0.260524 0)
(0.00041909 0.260679 0)
(0.000878136 0.260665 0)
(0.00129711 0.260292 0)
(0.00147298 0.260309 0)
(0.00173576 0.260658 0)
(0.00326779 0.260337 0)
(0.0024985 0.259754 0)
(-0.00356526 0.260548 0)
(-0.00381553 0.259813 0)
(0.00206207 0.259732 0)
(0.00180172 0.259156 0)
(-0.000113126 0.25871 0)
(-0.00042982 0.25961 0)
(-0.00135683 0.25964 0)
(-0.00142871 0.259215 0)
(-0.00151701 0.258967 0)
(-0.0016496 0.259126 0)
(-0.00164307 0.260053 0)
(-0.00142527 0.260275 0)
(-0.00108585 0.259441 0)
(-0.0007783 0.259822 0)
(-0.000738812 0.260511 0)
(-0.000339381 0.260557 0)
(-8.46547e-05 0.260431 0)
(0.000181106 0.26063 0)
(0.000547674 0.259607 0)
(0.000910637 0.259449 0)
(0.00118702 0.262451 0)
(0.00148392 0.262468 0)
(0.00168379 0.259145 0)
(0.00153252 0.25913 0)
(0.00271428 0.260065 0)
(-0.00260344 0.259763 0)
(-0.00467271 0.259999 0)
(0.0016959 0.25977 0)
(0.00134318 0.258822 0)
(-0.000281539 0.260986 0)
(-0.000410438 0.2591 0)
(-0.000955007 0.259701 0)
(-0.00109248 0.25902 0)
(-0.00134209 0.261243 0)
(-0.00137844 0.261413 0)
(-0.00131351 0.260077 0)
(-0.000954936 0.25915 0)
(-0.000690307 0.25976 0)
(-0.000700503 0.262035 0)
(-0.000560022 0.25927 0)
(-0.000124147 0.259454 0)
(0.00017331 0.260637 0)
(0.000567385 0.259263 0)
(0.000822874 0.25995 0)
(0.000703744 0.260054 0)
(0.000804047 0.259866 0)
(0.00153691 0.259731 0)
(0.00188985 0.26223 0)
(0.00152087 0.261433 0)
(0.0033602 0.259648 0)
(-0.00207955 0.260591 0)
(-0.00486331 0.260072 0)
(0.00127413 0.259295 0)
(0.000926812 0.261057 0)
(-0.000221098 0.259595 0)
(-0.000256861 0.259033 0)
(-0.00101534 0.259189 0)
(-0.00111036 0.261408 0)
(-0.00135362 0.259826 0)
(-0.00101318 0.259901 0)
(-0.000617387 0.259285 0)
(-0.000566799 0.259805 0)
(-0.000638493 0.26195 0)
(-0.000392955 0.25992 0)
(0.000203712 0.260041 0)
(9.66833e-05 0.259921 0)
(0.000390692 0.259053 0)
(0.000670486 0.260108 0)
(0.00070688 0.262114 0)
(0.00104107 0.26225 0)
(0.0013404 0.259038 0)
(0.00152798 0.259065 0)
(0.00194149 0.259626 0)
(0.00209314 0.260218 0)
(0.00448048 0.259341 0)
(-0.00141511 0.259923 0)
(-0.00508153 0.259726 0)
(0.000816907 0.259234 0)
(0.000788062 0.259607 0)
(3.91491e-05 0.258757 0)
(-0.000234837 0.261327 0)
(-0.000853381 0.25924 0)
(-0.000925609 0.259712 0)
(-0.000653256 0.258825 0)
(-0.000716474 0.258817 0)
(-0.000704879 0.259569 0)
(-0.000743318 0.261975 0)
(-0.000514994 0.259758 0)
(-2.52037e-05 0.25886 0)
(3.47199e-05 0.262146 0)
(0.000278426 0.262043 0)
(0.00037787 0.259979 0)
(0.000359199 0.262294 0)
(0.000634373 0.25986 0)
(0.0014034 0.25965 0)
(0.00179727 0.262005 0)
(0.00207124 0.261972 0)
(0.00261057 0.258675 0)
(0.00239106 0.260442 0)
(0.00539258 0.260801 0)
(-0.00122839 0.259288 0)
(-0.00583964 0.260169 0)
(0.000716558 0.261261 0)
(0.000474194 0.258657 0)
(-0.00028131 0.261619 0)
(-0.000258713 0.259533 0)
(-0.000501128 0.261373 0)
(-0.000676856 0.258622 0)
(-0.000774571 0.261766 0)
(-0.000754497 0.261837 0)
(-0.000707281 0.261698 0)
(-0.000562475 0.259536 0)
(-0.000173312 0.258815 0)
(-0.00032174 0.262085 0)
(-0.00019384 0.259595 0)
(0.000382431 0.259743 0)
(0.000512662 0.262292 0)
(0.000729691 0.259519 0)
(0.00111469 0.258803 0)
(0.000989494 0.258804 0)
(0.00139726 0.259278 0)
(0.00207463 0.259098 0)
(0.0022764 0.261525 0)
(0.00186328 0.259507 0)
(0.00407092 0.259735 0)
(-0.00103919 0.258437 0)
(-0.00439304 0.259145 0)