/*--------------------------------*- C++ -*----------------------------------*\
| =========                 |                                                 |
| \\      /  F ield         | OpenFOAM: The Open Source CFD Toolbox           |
|  \\    /   O peration     | Version:  2312                                  |
|   \\  /    A nd           | Website:  www.openfoam.com                      |
|    \\/     M anipulation  |                                                 |
\*---------------------------------------------------------------------------*/
FoamFile
{
    version     2.0;
    format      ascii;
    arch        "LSB;label=32;scalar=64";
    class       volVectorField;
    location    "0.925/water";
    object      U.gas;
}
// * * * * * * * * * * * * * * * * * * * * * * * * * * * * * * * * * * * * * //

dimensions      [0 1 -1 0 0 0 0];

internalField   nonuniform List<vector> 
1504
(
(0.0373827940855 1.48824007489 0)
(0.0719387856034 1.3472702925 0)
(0.0676242333242 1.29196383761 0)
(0.069682699254 1.24401074094 0)
(0.0795015556075 1.16353160174 0)
(0.0932172948375 1.06557311074 0)
(0.108567232046 0.976082764484 0)
(0.123815639527 0.903881397988 0)
(0.13529589636 0.850746282654 0)
(0.141127659925 0.810958668921 0)
(0.143943581148 0.776486320759 0)
(0.145200611588 0.742964928198 0)
(0.14445533111 0.709400010726 0)
(0.141138495335 0.679948768915 0)
(0.130776569555 0.66034897182 0)
(0.113611536142 0.642730131993 0)
(0.0972232631215 0.609748954493 0)
(0.0852627800799 0.554532759871 0)
(0.0769057514681 0.511283621414 0)
(0.0689594132406 0.487298739967 0)
(0.0376471017536 1.54108131037 0)
(0.0735186370167 1.35710275314 0)
(0.0702257872921 1.27403386761 0)
(0.0726161218038 1.20829279579 0)
(0.083183197521 1.13000603049 0)
(0.0980588061043 1.04629322939 0)
(0.11507318955 0.971307856858 0)
(0.130638535741 0.911659872997 0)
(0.140586961717 0.867152399488 0)
(0.145524146417 0.830836394572 0)
(0.148245854083 0.797578678179 0)
(0.149030380456 0.76419448676 0)
(0.147715683629 0.730772581589 0)
(0.142975479292 0.702479039301 0)
(0.130638163519 0.685243753297 0)
(0.113931277001 0.666909992818 0)
(0.0997811292335 0.635676668925 0)
(0.0882941629408 0.582331606028 0)
(0.0785845861553 0.531514597992 0)
(0.069279194448 0.500161990311 0)
(0.038294358626 1.59035961287 0)
(0.076199072348 1.36671671886 0)
(0.0745098951246 1.2569733305 0)
(0.0772497137514 1.17694531909 0)
(0.0881066106156 1.10204884041 0)
(0.103672578885 1.03101424813 0)
(0.121089340485 0.96992646397 0)
(0.135087336153 0.922393667055 0)
(0.143104878908 0.884530115938 0)
(0.147564086363 0.850987419929 0)
(0.150049384347 0.818408175028 0)
(0.150188821049 0.784751776401 0)
(0.148056389253 0.751141460691 0)
(0.141223696669 0.7235987477 0)
(0.127478668842 0.707765585781 0)
(0.11304240831 0.689482069263 0)
(0.10167137254 0.661444474157 0)
(0.0896405304695 0.612640968378 0)
(0.0775578268676 0.552308516049 0)
(0.0669125424738 0.513012391998 0)
(0.0381053358591 1.63342123392 0)
(0.0778523165055 1.37351472556 0)
(0.0790876047569 1.24172830197 0)
(0.083085110164 1.1531490597 0)
(0.0944782646797 1.08301290125 0)
(0.110186012052 1.02303954911 0)
(0.125839575605 0.974715311134 0)
(0.136691513742 0.936762466463 0)
(0.143284466808 0.903512232346 0)
(0.147467807042 0.871670188563 0)
(0.149136341849 0.838876643091 0)
(0.148133047782 0.804266899796 0)
(0.14431531739 0.769891129065 0)
(0.135141122729 0.742369678069 0)
(0.121684976099 0.726343802315 0)
(0.110462881727 0.709006147802 0)
(0.100915543157 0.685508163747 0)
(0.0878995706448 0.642751890429 0)
(0.0742101007401 0.574470130724 0)
(0.0630126591704 0.526251948863 0)
(0.0365031959775 1.67590381755 0)
(0.0771238701102 1.37852325229 0)
(0.0819890184664 1.23105779589 0)
(0.0876996462413 1.13962020921 0)
(0.0998526168697 1.07554021476 0)
(0.114296002625 1.02520517701 0)
(0.12660223223 0.987409032628 0)
(0.135128186599 0.955692753418 0)
(0.141009077048 0.925252393023 0)
(0.144190275479 0.893619965814 0)
(0.144194153964 0.859387643456 0)
(0.141353200378 0.823014905376 0)
(0.135266403968 0.787299145142 0)
(0.124505866447 0.758887727492 0)
(0.112564438071 0.740920853324 0)
(0.104108427256 0.72521929627 0)
(0.09547935188 0.707185468081 0)
(0.0831259667578 0.670407969819 0)
(0.0701228521334 0.600192430309 0)
(0.0584225437795 0.540582691556 0)
(0.0391364674012 1.70415997695 0)
(0.086494537983 1.38478716666 0)
(0.0934072033207 1.23284257498 0)
(0.0957810800098 1.14239185123 0)
(0.105220609523 1.08381831381 0)
(0.115855211713 1.04077991317 0)
(0.124425003037 1.00958511658 0)
(0.131219733876 0.981097044081 0)
(0.13575842863 0.951244783113 0)
(0.136706353616 0.917872451718 0)
(0.134087060459 0.880601158729 0)
(0.128680322586 0.841631360244 0)
(0.120445019017 0.804168453531 0)
(0.109304340576 0.773608146098 0)
(0.0994735631014 0.752161910896 0)
(0.0930649126157 0.73819293621 0)
(0.0858406057045 0.725783888305 0)
(0.0760936115276 0.694055481083 0)
(0.0645795806056 0.627840461204 0)
(0.0521586321763 0.555112569115 0)
(0.0432352668254 1.70682750409 0)
(0.0986745498046 1.39873476171 0)
(0.106416465369 1.25609503739 0)
(0.102881067095 1.17017303649 0)
(0.106989355896 1.11453231007 0)
(0.113108788203 1.07404275636 0)
(0.118878169818 1.04432746312 0)
(0.123556830639 1.01561971254 0)
(0.125269116577 0.983592786468 0)
(0.122806146702 0.945746050632 0)
(0.116457539696 0.902557796274 0)
(0.10814303967 0.859778277304 0)
(0.0986393929697 0.820113966822 0)
(0.0887802927768 0.786253524549 0)
(0.0817165985289 0.760148644082 0)
(0.0773525056478 0.746096083038 0)
(0.0728377516257 0.738308712953 0)
(0.0666585693742 0.711434361154 0)
(0.0569309571073 0.653170977538 0)
(0.0443411256944 0.569102672748 0)
(0.047524988471 1.70771463973 0)
(0.107541212529 1.43137851619 0)
(0.11220262676 1.30767558267 0)
(0.101987152959 1.23144330698 0)
(0.100333803006 1.17500963968 0)
(0.102368021401 1.12918133364 0)
(0.104955405091 1.09440019097 0)
(0.106252626201 1.06093623051 0)
(0.103579700598 1.02239217717 0)
(0.0954142754509 0.974549828009 0)
(0.0847192415219 0.921143992078 0)
(0.0756596818491 0.874223920556 0)
(0.0682808351717 0.832512862917 0)
(0.0622280404436 0.795040831012 0)
(0.0583310641804 0.763744140758 0)
(0.0567464755154 0.746043879711 0)
(0.0568477738464 0.740349238007 0)
(0.0555819393095 0.719759863607 0)
(0.048668151927 0.672444303688 0)
(0.0368174574456 0.583379318365 0)
(0.0519076103906 1.71761667964 0)
(0.110896843152 1.48233142542 0)
(0.10749474766 1.38480218894 0)
(0.0900309309851 1.32476345856 0)
(0.0799554939698 1.26365160928 0)
(0.0754931242979 1.20313735806 0)
(0.0726962273638 1.15471935315 0)
(0.067744165649 1.10972061775 0)
(0.0581310915862 1.05804020273 0)
(0.0465929229237 0.994350914614 0)
(0.0386005934421 0.928621403454 0)
(0.0347947233201 0.879135368521 0)
(0.0326836865187 0.836541842562 0)
(0.031365790266 0.796389715007 0)
(0.0311717544059 0.7609261082 0)
(0.033671358719 0.737359377012 0)
(0.0393666953968 0.72940220463 0)
(0.0433781510781 0.71667131461 0)
(0.0410579219246 0.682023483236 0)
(0.0315502638948 0.597765825745 0)
(0.0555068195517 1.71338758522 0)
(0.107593653542 1.52801876792 0)
(0.0917465603131 1.45900551682 0)
(0.0683378341626 1.41974994935 0)
(0.0494050201809 1.3554437111 0)
(0.0351413991279 1.27907908462 0)
(0.0231102334104 1.21167093956 0)
(0.0118341891243 1.14823204314 0)
(0.0021575467512 1.07779817536 0)
(-0.00331058751036 0.996474326319 0)
(-0.00425904006968 0.919979860728 0)
(-0.00276305728489 0.869109379679 0)
(-6.74414204093e-05 0.827500555585 0)
(0.00316789997213 0.787030036621 0)
(0.00713457702705 0.750147863375 0)
(0.0136973621974 0.722053347674 0)
(0.0234605352498 0.708038415461 0)
(0.0320649733311 0.701937393723 0)
(0.0347027679107 0.680528749708 0)
(0.0284803812307 0.60897840224 0)
(0.0556962628143 1.68009427304 0)
(0.100202642813 1.54508729134 0)
(0.0777693589074 1.50168657806 0)
(0.0566114476234 1.48280818078 0)
(0.0366317156538 1.4253657144 0)
(0.0161775604491 1.34413655974 0)
(-0.002916263213 1.26087279024 0)
(-0.016875305569 1.17578466157 0)
(-0.0240922466808 1.08379562181 0)
(-0.0261093572582 0.985579026608 0)
(-0.0253099196535 0.89958896188 0)
(-0.0224046708493 0.845849368723 0)
(-0.0173639107785 0.806777966722 0)
(-0.011314217792 0.768532582737 0)
(-0.00475625889416 0.732942424533 0)
(0.00360183638654 0.703318623834 0)
(0.0145057371894 0.683343372672 0)
(0.0254846052301 0.678767678532 0)
(0.0308551483941 0.670756513971 0)
(0.0279726623276 0.613583300845 0)
(0.0497174111022 1.63885867892 0)
(0.0901914939022 1.54158300328 0)
(0.0755265654975 1.51630872262 0)
(0.0654438062675 1.51338993014 0)
(0.0533734228329 1.47557609293 0)
(0.0358537756412 1.40416541474 0)
(0.0161178007068 1.31318530087 0)
(6.06379245088e-05 1.20752970043 0)
(-0.0097392566907 1.09272087781 0)
(-0.0148413134483 0.977547438653 0)
(-0.0171548155828 0.880929940156 0)
(-0.0164670370039 0.820579917176 0)
(-0.0124512407685 0.783164787372 0)
(-0.00665919222789 0.747939479741 0)
(-0.00032929793654 0.714697783494 0)
(0.00713422314983 0.6853989183 0)
(0.0165007768392 0.66189554867 0)
(0.0267568929243 0.653314121117 0)
(0.0325720627206 0.656769738515 0)
(0.0312991689701 0.61210551451 0)
(0.049463327021 1.60760083007 0)
(0.0940565431358 1.53478349342 0)
(0.0869684598678 1.51897837327 0)
(0.0830337226012 1.52638194957 0)
(0.0775122686152 1.51261883129 0)
(0.06659445724 1.46269567649 0)
(0.0509111089195 1.37425736152 0)
(0.035206804143 1.25278760146 0)
(0.023239059368 1.1162157128 0)
(0.0152246339848 0.983814685446 0)
(0.0101905394643 0.875366677391 0)
(0.00814916921213 0.805458736216 0)
(0.00939010894474 0.766442343656 0)
(0.0127278806185 0.732959116447 0)
(0.0167748947731 0.701445537407 0)
(0.0218006308459 0.672598600433 0)
(0.0283827158455 0.647144548271 0)
(0.0356425090251 0.632392360711 0)
(0.0399524891037 0.641508912616 0)
(0.0383284598181 0.608167846285 0)
(0.0504253013027 1.57667131136 0)
(0.0977946610197 1.52204677562 0)
(0.0934766033794 1.51336260756 0)
(0.091464925634 1.52786478922 0)
(0.0892564157973 1.53279119259 0)
(0.0839513808307 1.50788652986 0)
(0.0739878095955 1.43320396241 0)
(0.0618519333927 1.30428733557 0)
(0.0515649430818 1.15001659487 0)
(0.0444898401772 1.00246645616 0)
(0.039968058298 0.883333130743 0)
(0.0375506386694 0.804165271351 0)
(0.0371935393975 0.760898372432 0)
(0.0381394268443 0.727182910086 0)
(0.0395165101525 0.696120173552 0)
(0.0417881421589 0.667197233327 0)
(0.0454867042178 0.640328845396 0)
(0.0493685620198 0.620221301321 0)
(0.0515015951144 0.628029356741 0)
(0.0484571855862 0.605533102477 0)
(0.0481986239149 1.54769866623 0)
(0.0940084989549 1.50183777432 0)
(0.0911268716071 1.49788095005 0)
(0.0907871590501 1.51811294473 0)
(0.0908073686381 1.53570790162 0)
(0.0892323317558 1.53146563698 0)
(0.084197417097 1.47678053725 0)
(0.0767802652165 1.34897503868 0)
(0.0704493209669 1.18313495444 0)
(0.066470566162 1.02485364662 0)
(0.0642712713573 0.898201411368 0)
(0.0633205451993 0.812421805524 0)
(0.0631367945816 0.764716260253 0)
(0.0629300405429 0.729633238541 0)
(0.0623967923357 0.698201754783 0)
(0.0624020422204 0.668901404 0)
(0.0638392472221 0.640955573464 0)
(0.0655361755914 0.617174202034 0)
(0.0657520526966 0.619004978548 0)
(0.0604484837875 0.606093513896 0)
(0.0474952988852 1.52082250792 0)
(0.0941212064374 1.47362388033 0)
(0.0924809528452 1.47553173425 0)
(0.0919212785206 1.50101529389 0)
(0.0923866530726 1.52791667908 0)
(0.0923096991129 1.53830958004 0)
(0.090067224048 1.50259530723 0)
(0.0863870724515 1.37958279821 0)
(0.0839207140815 1.20817333082 0)
(0.0831756804461 1.04444958878 0)
(0.0835631094555 0.914142406014 0)
(0.0845847008273 0.825020743898 0)
(0.0853631038337 0.774297612857 0)
(0.0848987627425 0.737786372569 0)
(0.0832377724388 0.705804621257 0)
(0.0815483508631 0.676080820905 0)
(0.0812981395192 0.647320829856 0)
(0.0820648321283 0.621288659984 0)
(0.0809191153532 0.615660552355 0)
(0.0726522406066 0.610074642206 0)
(0.0467959054199 1.49111589866 0)
(0.0942596745757 1.43607434806 0)
(0.0939998112859 1.44828506873 0)
(0.0933128526814 1.48063680183 0)
(0.093890316257 1.5152534304 0)
(0.0943214922339 1.53583141934 0)
(0.0938417862364 1.51371059275 0)
(0.0934317955653 1.39487759299 0)
(0.0945571111265 1.22264361029 0)
(0.0967914578111 1.05854599578 0)
(0.0996681367656 0.928434994361 0)
(0.102799008933 0.839171677513 0)
(0.104819377877 0.787303232393 0)
(0.10439259792 0.749840448349 0)
(0.101810767806 0.717424001716 0)
(0.0985391190078 0.687191809331 0)
(0.0969159562774 0.657822036788 0)
(0.0974944806814 0.630585804218 0)
(0.0954281154017 0.618383350218 0)
(0.0847693650028 0.617633229081 0)
(0.0450878267361 1.46400474615 0)
(0.0916226535489 1.39603868822 0)
(0.0929232147391 1.41427143892 0)
(0.0932494346637 1.45749285944 0)
(0.0941095779834 1.50018208138 0)
(0.0947801135053 1.52793357295 0)
(0.0958878685053 1.51164576713 0)
(0.0987860242042 1.39503591978 0)
(0.10342163529 1.2265541623 0)
(0.108650573489 1.06697699965 0)
(0.114194488717 0.940689811398 0)
(0.119487674639 0.854167596521 0)
(0.122548806037 0.802817787846 0)
(0.121933523151 0.765056188648 0)
(0.11807390939 0.732297052295 0)
(0.112922543764 0.701251381976 0)
(0.110184732615 0.671417038569 0)
(0.111106375008 0.643760248296 0)
(0.108672239423 0.626895521214 0)
(0.0964989956487 0.628575678528 0)
(0.0425135866863 1.44680788631 0)
(0.0869927343021 1.36263991572 0)
(0.0890628121943 1.3772184481 0)
(0.0903705134311 1.43171313451 0)
(0.0922053238944 1.48400411794 0)
(0.0936414473323 1.51589633234 0)
(0.097006990737 1.4969575853 0)
(0.103635965681 1.3818679885 0)
(0.111916523085 1.22187022363 0)
(0.120165543065 1.07107926724 0)
(0.128198241388 0.951617776523 0)
(0.135172021665 0.870262411419 0)
(0.138695899077 0.82063967422 0)
(0.137294280341 0.783253430497 0)
(0.131322983415 0.749928988555 0)
(0.123969067834 0.717607572354 0)
(0.120723967256 0.687512317743 0)
(0.122324476923 0.659855043048 0)
(0.119696161421 0.639986214999 0)
(0.106483913166 0.642261411907 0)
(0.0370220799609 1.45898578937 0)
(0.0756673856863 1.34691386367 0)
(0.0769976484986 1.34797011466 0)
(0.079257318147 1.40453481056 0)
(0.0840808442435 1.46471701766 0)
(0.0892669100091 1.49697418621 0)
(0.0972663641072 1.47039835469 0)
(0.108414826996 1.3590126198 0)
(0.120123169615 1.21133177867 0)
(0.13093861842 1.0722810783 0)
(0.141022228906 0.961981013292 0)
(0.149108084994 0.887811422737 0)
(0.152396422127 0.840804614823 0)
(0.149121439846 0.804230151989 0)
(0.13998185275 0.769691673446 0)
(0.130806238914 0.73568854145 0)
(0.128056848716 0.705712783102 0)
(0.130330060244 0.678114308115 0)
(0.127602055891 0.656275012941 0)
(0.113938397671 0.658370201659 0)
(0.034730798402 1.5042320048 0)
(0.0707682850048 1.35352958571 0)
(0.0693775283188 1.33634756627 0)
(0.0691580582689 1.38342794511 0)
(0.0754111880415 1.44333392883 0)
(0.0846024563419 1.47050586732 0)
(0.0973209920386 1.43563964216 0)
(0.112168464931 1.33062314716 0)
(0.12648735141 1.19703715948 0)
(0.139486049974 1.07144871116 0)
(0.151295110752 0.972356077084 0)
(0.159748237043 0.906738757916 0)
(0.161528474211 0.862923231322 0)
(0.154694646457 0.827115455495 0)
(0.142323946449 0.790655228674 0)
(0.133155022147 0.755134911186 0)
(0.131881984082 0.725619289023 0)
(0.134681814739 0.697908382601 0)
(0.131987404614 0.674609193303 0)
(0.118322045652 0.676310757416 0)
(0.0341543669371 1.56633798957 0)
(0.0691362746255 1.37906869093 0)
(0.0652837704495 1.34505057118 0)
(0.0621077348593 1.37649974477 0)
(0.0679265399391 1.42627558737 0)
(0.0792725432053 1.44127826746 0)
(0.0951263851853 1.39758198064 0)
(0.112624114675 1.29930706511 0)
(0.129165210986 1.17993776383 0)
(0.144270179126 1.06892958237 0)
(0.156975591728 0.982916922157 0)
(0.164127831205 0.926097687728 0)
(0.162499259128 0.885812804789 0)
(0.151742516666 0.850429671388 0)
(0.138549806631 0.811875847773 0)
(0.131652816844 0.775516801261 0)
(0.132072229628 0.746505585792 0)
(0.135079937374 0.718458923756 0)
(0.132462837029 0.693738511091 0)
(0.119315467516 0.694996682934 0)
(0.0351814641133 1.62795279939 0)
(0.0715274855587 1.4166295238 0)
(0.066946427998 1.37018791534 0)
(0.0609560660588 1.38641508691 0)
(0.0640003932921 1.41898085734 0)
(0.074575287915 1.41410016156 0)
(0.0913170468203 1.35933181236 0)
(0.11013422733 1.2663633609 0)
(0.128129913388 1.16064639089 0)
(0.14426026085 1.06510027233 0)
(0.15589973174 0.993216469934 0)
(0.159506113606 0.94425463315 0)
(0.153295047357 0.907786369283 0)
(0.140826720039 0.872822348604 0)
(0.130398114989 0.832401674041 0)
(0.126936542334 0.796019467733 0)
(0.128493384215 0.767219201216 0)
(0.131292107574 0.738727982571 0)
(0.129021041175 0.712396676038 0)
(0.117235758788 0.712870433788 0)
(0.0371357503676 1.67044461589 0)
(0.0763711438574 1.4600742299 0)
(0.0722842121786 1.40879861747 0)
(0.0637958751635 1.41516258709 0)
(0.0630087977134 1.42529422133 0)
(0.0712758419135 1.39250096358 0)
(0.0873364448696 1.32372019701 0)
(0.10599010426 1.23379974913 0)
(0.123747328664 1.14073903391 0)
(0.138178300726 1.06106992408 0)
(0.145783105734 1.00225151112 0)
(0.144496838768 0.959963582097 0)
(0.136280009703 0.927801641784 0)
(0.12635904425 0.892955519251 0)
(0.11997430633 0.850915759384 0)
(0.119104972889 0.815376078567 0)
(0.121016297185 0.786391954794 0)
(0.123502137735 0.757523341435 0)
(0.122087045961 0.729491679862 0)
(0.112899109324 0.727973367576 0)
(0.0382502543348 1.69907184365 0)
(0.0794982252048 1.51362586148 0)
(0.0756535924894 1.46399022857 0)
(0.0642636185111 1.46613017866 0)
(0.0598581665817 1.44631412131 0)
(0.0662621329288 1.37810142038 0)
(0.0811752531294 1.29303544793 0)
(0.0983127305448 1.20388647524 0)
(0.113571484466 1.12270437179 0)
(0.123721957749 1.05805389916 0)
(0.12650437936 1.00944896238 0)
(0.122969202763 0.972812070551 0)
(0.116452889284 0.944163695561 0)
(0.110222713921 0.908458142321 0)
(0.10766013299 0.866187751749 0)
(0.108637045784 0.83188563729 0)
(0.110251316881 0.802656891804 0)
(0.112737084628 0.773688381923 0)
(0.112938958458 0.744281466428 0)
(0.107434385575 0.738788483217 0)
(0.0423816943475 1.73665446516 0)
(0.0884461873042 1.58580738359 0)
(0.0813288117784 1.54662273182 0)
(0.0612030025874 1.54674459638 0)
(0.0507529615385 1.48032651079 0)
(0.0551522919081 1.3707279785 0)
(0.0681372016624 1.26801477463 0)
(0.0825641200578 1.17760075998 0)
(0.09408953317 1.10811351096 0)
(0.100146521686 1.055638342 0)
(0.10082264365 1.01413226545 0)
(0.0982939881675 0.981230317962 0)
(0.0951324574209 0.95360289872 0)
(0.0936974550626 0.917182488274 0)
(0.0950697478233 0.877080449966 0)
(0.0969185942309 0.844000577216 0)
(0.098192651427 0.815011113998 0)
(0.101134629582 0.786437161898 0)
(0.103658235085 0.756495816421 0)
(0.10233628687 0.745218974612 0)
(0.0466979985247 1.79316625816 0)
(0.093080947779 1.67637987655 0)
(0.0743183622251 1.66463328762 0)
(0.0417441742056 1.6538329265 0)
(0.0267707953799 1.51586615416 0)
(0.030874753226 1.36413169657 0)
(0.0423228228408 1.24418963357 0)
(0.054567333941 1.15176907574 0)
(0.0638474405178 1.09369505708 0)
(0.0691565222018 1.04997886677 0)
(0.0716686062889 1.01344585582 0)
(0.073129623834 0.982625088752 0)
(0.0755481984821 0.954480621241 0)
(0.0798232832575 0.918986356294 0)
(0.0843261797422 0.882313341877 0)
(0.0866017932197 0.850683883043 0)
(0.0878183373127 0.822696591326 0)
(0.091466830319 0.795260998564 0)
(0.0967433155857 0.766051384291 0)
(0.0993237821945 0.748822053732 0)
(0.0493905230062 1.85521855668 0)
(0.0833879798532 1.78044158151 0)
(0.043413807768 1.80792030403 0)
(0.00725897012027 1.75118868268 0)
(-0.00411556937689 1.53224308018 0)
(0.000763198820428 1.34655189983 0)
(0.0117305117257 1.21354439828 0)
(0.023652571383 1.12069900736 0)
(0.0333253302604 1.07214436731 0)
(0.0409681744309 1.03542428271 0)
(0.0479746702342 1.00354751933 0)
(0.055279419351 0.97518984981 0)
(0.063704551025 0.947367700665 0)
(0.0722096923777 0.914399919417 0)
(0.078188847487 0.881142290867 0)
(0.0807172804105 0.851584399487 0)
(0.0823211940734 0.825377623582 0)
(0.0868987344289 0.799991135456 0)
(0.0947050142171 0.772830607935 0)
(0.100095618917 0.751664781954 0)
(0.0422841700162 1.90329228017 0)
(0.0559323759527 1.91019450277 0)
(0.0110265381359 1.9336376822 0)
(-0.00846392113934 1.79169534763 0)
(-0.0111569589016 1.52092805781 0)
(-0.00706216827522 1.31656879281 0)
(0.00203551098196 1.17718771064 0)
(0.0129681385848 1.085588334 0)
(0.0229973752874 1.04201639546 0)
(0.0327680320503 1.01111998479 0)
(0.0432586139654 0.984011087266 0)
(0.0542136498528 0.958874264064 0)
(0.0650970921219 0.933073501572 0)
(0.0742111638334 0.903671263042 0)
(0.0799732893707 0.874139410693 0)
(0.082621919728 0.847474617156 0)
(0.0846781274 0.823744303741 0)
(0.0899214259975 0.801121720768 0)
(0.0990827596241 0.776862586703 0)
(0.105648201227 0.754528186597 0)
(0.0374712876893 1.91882464099 0)
(0.0434134956799 2.10279165767 0)
(0.0104213708965 1.981655363 0)
(0.0125622231608 1.76715650925 0)
(0.0173402060689 1.49361348804 0)
(0.0204837771889 1.28811552354 0)
(0.0262818467209 1.14806078771 0)
(0.0346019557926 1.05741988206 0)
(0.0434319437843 1.0135134567 0)
(0.0529076502633 0.9856336089 0)
(0.0633031068514 0.961769296002 0)
(0.0736012337897 0.939150352677 0)
(0.0828651286317 0.915726626026 0)
(0.0897437261689 0.889969884103 0)
(0.0935565824397 0.864370431022 0)
(0.0950724297521 0.840953874573 0)
(0.0966794525075 0.819942783736 0)
(0.101509423745 0.800121308608 0)
(0.110050481561 0.778809877665 0)
(0.116105097117 0.757075347674 0)
(0.0419536753355 1.88930716498 0)
(0.0726397677397 2.25540020493 0)
(0.0599647900325 1.97831162909 0)
(0.0609778502814 1.72433701842 0)
(0.0642557692804 1.47128545868 0)
(0.0663458447359 1.27520304143 0)
(0.070417905895 1.13739296226 0)
(0.0771859311818 1.04673636114 0)
(0.0849451913594 0.999477303448 0)
(0.0927316906752 0.971033877665 0)
(0.100518255455 0.9476163019 0)
(0.107794834723 0.925647727639 0)
(0.113726597805 0.903432415628 0)
(0.117354276372 0.880023084726 0)
(0.118253524323 0.857095899929 0)
(0.117349831755 0.836070910208 0)
(0.117111904921 0.817089311739 0)
(0.120071411798 0.799166412781 0)
(0.126308008163 0.779869762041 0)
(0.130753920843 0.759031207592 0)
(0.0342551748968 1.88961519762 0)
(0.0733347478429 2.25136540359 0)
(0.0835256256706 1.94204623903 0)
(0.0931057512182 1.68276161942 0)
(0.0998757131582 1.4544587891 0)
(0.105015017482 1.27348697076 0)
(0.111343453889 1.14158445964 0)
(0.11983600804 1.05236569214 0)
(0.128792750001 1.00253650606 0)
(0.136007148074 0.971738999277 0)
(0.141344271309 0.946638572892 0)
(0.145562994471 0.923623455028 0)
(0.148364656375 0.901100741761 0)
(0.148960519941 0.878264107261 0)
(0.147150229616 0.856114849789 0)
(0.143853605699 0.835771797843 0)
(0.141205368556 0.817269605421 0)
(0.141389668968 0.799673978757 0)
(0.144597523684 0.780825525081 0)
(0.147124500483 0.76011857621 0)
(0.0298929813239 1.96734036087 0)
(0.0732748169709 2.13030561789 0)
(0.0952629577743 1.85699606529 0)
(0.110306204244 1.62596317515 0)
(0.121841477819 1.42938844288 0)
(0.131679661789 1.27014725118 0)
(0.142259414615 1.1501245152 0)
(0.154561466957 1.06680578674 0)
(0.166244983665 1.01777981435 0)
(0.173655283849 0.98482894382 0)
(0.177191438408 0.957284134832 0)
(0.17900224022 0.932357854626 0)
(0.179160737391 0.908457595242 0)
(0.17718001543 0.884769560163 0)
(0.173077574807 0.861869515349 0)
(0.167736168133 0.840586166937 0)
(0.162926242648 0.820883304785 0)
(0.160495012819 0.801881214059 0)
(0.160998787374 0.781788227865 0)
(0.161944795576 0.759948602568 0)
(0.0370672484071 2.03348071071 0)
(0.0834532805249 1.99686099369 0)
(0.10144232394 1.7630385737 0)
(0.118311307846 1.56210640264 0)
(0.133973084961 1.39701387196 0)
(0.149013332208 1.26266416612 0)
(0.165032770322 1.15941151805 0)
(0.182051935198 1.08696748912 0)
(0.1956489403 1.04127890873 0)
(0.201960317301 1.00660018469 0)
(0.203616278392 0.976675658466 0)
(0.203464142472 0.949500739775 0)
(0.20137498826 0.923555637707 0)
(0.197144390974 0.898054864359 0)
(0.191013344937 0.873315670533 0)
(0.183881039189 0.849895862742 0)
(0.177293166307 0.827698611513 0)
(0.172931521584 0.805851146902 0)
(0.171609679287 0.782921357573 0)
(0.171738605914 0.758427642065 0)
(0.033927596531 2.07971734111 0)
(0.0789013496062 1.90425646976 0)
(0.0999701638002 1.67807269876 0)
(0.120317874642 1.50038769702 0)
(0.140576677067 1.36327022867 0)
(0.160963904034 1.25439193995 0)
(0.182582387981 1.17123613932 0)
(0.202418490244 1.11225492605 0)
(0.214206795486 1.06980905213 0)
(0.217866101825 1.03400978994 0)
(0.218049630323 1.00218710198 0)
(0.216149483355 0.972693940897 0)
(0.211966961191 0.944349292097 0)
(0.205682213209 0.91650763809 0)
(0.19769983527 0.889263366276 0)
(0.188995795236 0.862950615748 0)
(0.181002056907 0.83738922766 0)
(0.17522162504 0.81162688436 0)
(0.172733951526 0.78455533492 0)
(0.172892396168 0.75589314253 0)
(0.0358689296436 2.12917271726 0)
(0.0866303447743 1.83191275727 0)
(0.109935676074 1.6096408927 0)
(0.129121898413 1.45007092371 0)
(0.151088605522 1.33732563243 0)
(0.17474990742 1.25325034179 0)
(0.198206189349 1.1900831261 0)
(0.2144165748 1.14214725061 0)
(0.220703075304 1.10200666707 0)
(0.221790521149 1.06588794513 0)
(0.220385920955 1.03222426296 0)
(0.216214571395 1.00013760928 0)
(0.209635510387 0.969118527407 0)
(0.20113384874 0.938644194263 0)
(0.191367400031 0.908528822213 0)
(0.181292286378 0.87885109269 0)
(0.171890414086 0.849132207378 0)
(0.164644464519 0.818652461986 0)
(0.161269374513 0.786882196748 0)
(0.161443422135 0.753302685099 0)
(0.0390072162479 2.1486891125 0)
(0.0994378769242 1.78044441421 0)
(0.127247020553 1.56892167861 0)
(0.144299387705 1.42328223249 0)
(0.166138143144 1.33091603909 0)
(0.188153343186 1.26758230232 0)
(0.204752708462 1.21925177885 0)
(0.212089609256 1.17815179883 0)
(0.214151418325 1.14004144349 0)
(0.213421512437 1.10287842334 0)
(0.209303426301 1.0661503163 0)
(0.20211101392 1.03056841267 0)
(0.192665071753 0.996373363762 0)
(0.181929014494 0.962910580177 0)
(0.170661143834 0.929462007863 0)
(0.159080164032 0.895577378796 0)
(0.148178681239 0.860980957656 0)
(0.140455238594 0.825827633416 0)
(0.13715399607 0.789676089747 0)
(0.137071445561 0.75153899866 0)
(0.0432757274431 2.15510580059 0)
(0.115080772325 1.75921175194 0)
(0.146966386997 1.56143998053 0)
(0.158724870996 1.42613548593 0)
(0.174042664122 1.34991079946 0)
(0.185240410904 1.30069817746 0)
(0.190954282572 1.26183608222 0)
(0.0044414136057 0.455269906625 0)
(0.00227029864447 0.456598426775 0)
(0.000698017322054 0.456981532126 0)
(-0.000459956663057 0.45596808516 0)
(-0.0012152731458 0.452781272938 0)
(-0.00150178296813 0.446536267338 0)
(-0.00133814983301 0.436863689462 0)
(-0.000897756743416 0.424327355661 0)
(-0.000370765158334 0.409947350134 0)
(0.000137514316073 0.394534541483 0)
(0.000578182526074 0.378541623804 0)
(0.000917202772066 0.362146207056 0)
(0.00112612446348 0.345325825529 0)
(0.00117258243786 0.327916097725 0)
(0.00100819722218 0.309699560947 0)
(0.000649612222383 0.290642816069 0)
(0.00021638791243 0.271573807493 0)
(0.0587723502268 0.478356006836 0)
(0.0433189779611 0.470429860395 0)
(0.0242059886957 0.45720590652 0)
(0.012919800897 0.459121925017 0)
(0.00966952686569 0.459869969074 0)
(0.00715172575453 0.45961028843 0)
(0.00519660106893 0.457800211653 0)
(0.00379764772074 0.453620236183 0)
(0.00298918166962 0.446307661938 0)
(0.00268317278372 0.435763858592 0)
(0.00266689548256 0.422723894073 0)
(0.00275335460868 0.408157927717 0)
(0.00284401080612 0.392765677779 0)
(0.0028864567126 0.376924964478 0)
(0.00284349328535 0.360772265597 0)
(0.00268057767445 0.344260224869 0)
(0.00236918359765 0.327205813037 0)
(0.00186778439339 0.30938574641 0)
(0.00118624960594 0.290780553877 0)
(0.000405275094269 0.272125501963 0)
(0.0580706785876 0.487194413682 0)
(0.0446553964641 0.48116479138 0)
(0.0291127595502 0.462721657948 0)
(0.0185659883971 0.463925384807 0)
(0.0147446209575 0.46400611938 0)
(0.0116647189674 0.463009285631 0)
(0.00922064082205 0.460300297958 0)
(0.00743308413751 0.455055136836 0)
(0.0063038795565 0.446679853943 0)
(0.00568822007345 0.435334693083 0)
(0.00535467091122 0.421856847212 0)
(0.00512842436752 0.407138848378 0)
(0.00491715162116 0.391779808415 0)
(0.00466832705882 0.37609477525 0)
(0.00434216697409 0.360186111544 0)
(0.00390321225787 0.343984400035 0)
(0.00331823567065 0.327286343564 0)
(0.00255522345498 0.309857865461 0)
(0.0016467315229 0.291699282227 0)
(0.000583854226658 0.273488352234 0)
(0.0550769371047 0.49533748134 0)
(0.041797037617 0.489428662024 0)
(0.0294601314696 0.468741515478 0)
(0.0215646443087 0.469083183625 0)
(0.0175479492566 0.468506034439 0)
(0.0142157066712 0.466738058908 0)
(0.0115468952661 0.463076864334 0)
(0.00959457664128 0.456743786541 0)
(0.00832580811964 0.447354323713 0)
(0.0075531015343 0.435296031183 0)
(0.0070435526208 0.421448489362 0)
(0.00663777395342 0.406613988327 0)
(0.00625008758599 0.391303877072 0)
(0.00582863544174 0.3757811873 0)
(0.00533316906899 0.360120078419 0)
(0.00472210713973 0.344232392709 0)
(0.00396430401546 0.327893696259 0)
(0.00303453082688 0.310852573739 0)
(0.00199350539642 0.293131953907 0)
(0.00073216490826 0.275395673215 0)
(0.0509459176062 0.502969940476 0)
(0.0365041730403 0.495547486291 0)
(0.0268677485114 0.474914194564 0)
(0.0226176292164 0.474341223571 0)
(0.018471022972 0.473120257318 0)
(0.0150136768899 0.470539786428 0)
(0.0122703692142 0.465871175399 0)
(0.0103020726414 0.458438616547 0)
(0.00902806356399 0.448091751644 0)
(0.00822647285527 0.435399499786 0)
(0.00766977052967 0.421235999503 0)
(0.00721185268107 0.406310808306 0)
(0.00677144465045 0.391059909198 0)
(0.00629810366823 0.375702891134 0)
(0.00575017924866 0.360290929632 0)
(0.00508510243819 0.344720017775 0)
(0.00426248515843 0.328744219429 0)
(0.0032652689592 0.312087241489 0)
(0.00220426793059 0.294792028306 0)
(0.000842402378783 0.277555856728 0)
(0.0458748582108 0.510578511586 0)
(0.0304789282773 0.500247194509 0)
(0.0229172594251 0.482144725597 0)
(0.0216230253181 0.479980725378 0)
(0.0174235651309 0.477915084883 0)
(0.0139268636382 0.474352334717 0)
(0.0112423655753 0.468548240847 0)