/*--------------------------------*- C++ -*----------------------------------*\
| =========                 |                                                 |
| \\      /  F ield         | OpenFOAM: The Open Source CFD Toolbox           |
|  \\    /   O peration     | Version:  2312                                  |
|   \\  /    A nd           | Website:  www.openfoam.com                      |
|    \\/     M anipulation  |                                                 |
\*---------------------------------------------------------------------------*/
FoamFile
{
    version     2.0;
    format      ascii;
    arch        "LSB;label=32;scalar=64";
    class       volScalarField;
    location    "30";
    object      alpha.air;
}
// * * * * * * * * * * * * * * * * * * * * * * * * * * * * * * * * * * * * * //

dimensions      [0 0 0 0 0 0 0];

internalField   nonuniform List<scalar> 
1875
(
0.12655
0.126973
0.136439
0.150811
0.166915
0.183806
0.200841
0.217003
0.232679
0.247359
0.260501
0.273095
0.285033
0.295813
0.300986
0.296323
0.288816
0.273418
0.244577
0.216299
0.232499
0.264227
0.241971
0.203017
0.184323
0.106352
0.105423
0.11139
0.118967
0.126491
0.132785
0.137401
0.142116
0.147935
0.155586
0.167093
0.184432
0.208704
0.237316
0.26807
0.311026
0.314447
0.285928
0.228665
0.178184
0.170509
0.218594
0.240368
0.235578
0.16281
0.103756
0.131756
0.179709
0.193258
0.194033
0.183536
0.17091
0.162587
0.156689
0.156214
0.161072
0.179589
0.210508
0.246038
0.283749
0.314641
0.313033
0.29382
0.222175
0.165048
0.145714
0.182091
0.234186
0.235167
0.163321
0.106352
0.191028
0.302127
0.316177
0.321876
0.301178
0.27387
0.254869
0.23517
0.221992
0.22488
0.246104
0.279977
0.308877
0.314577
0.312995
0.309565
0.264438
0.193359
0.148297
0.134899
0.167901
0.230048
0.227931
0.162466
0.103702
0.23544
0.352297
0.356574
0.352533
0.325463
0.308152
0.305599
0.306337
0.298678
0.299149
0.311026
0.31286
0.313537
0.312958
0.289236
0.255646
0.200871
0.15399
0.134342
0.134667
0.162935
0.22624
0.21439
0.167672
0.106218
0.199915
0.340183
0.35998
0.360574
0.353951
0.341107
0.324784
0.311119
0.304999
0.301836
0.299982
0.292377
0.278562
0.255911
0.216158
0.176357
0.145725
0.133233
0.133425
0.134773
0.16447
0.219799
0.210251
0.177056
0.101155
0.197168
0.33105
0.353506
0.34939
0.331662
0.31282
0.298416
0.286033
0.276276
0.262845
0.244616
0.222307
0.195932
0.168467
0.146298
0.134525
0.132992
0.133425
0.132714
0.14103
0.170134
0.201
0.198721
0.177145
0.105775
0.193727
0.328833
0.353492
0.348406
0.311704
0.281775
0.258314
0.237693
0.218294
0.19732
0.175735
0.156062
0.141306
0.134359
0.133425
0.133094
0.133425
0.132499
0.133425
0.141555
0.158879
0.172831
0.191372
0.177796
0.101106
0.181066
0.320833
0.353573
0.341866
0.283506
0.241123
0.209969
0.18443
0.164078
0.148291
0.138542
0.134247
0.133287
0.133425
0.132506
0.133425
0.132079
0.133425
0.132661
0.135571
0.140747
0.151399
0.173281
0.177481
0.105775
0.163773
0.305884
0.352638
0.342636
0.261394
0.20624
0.1747
0.155431
0.145305
0.139891
0.136888
0.134682
0.133425
0.13261
0.133425
0.131809
0.133425
0.132042
0.133425
0.133359
0.134297
0.14689
0.159315
0.173551
0.101038
0.14931
0.278651
0.349701
0.352707
0.276347
0.213328
0.178532
0.158153
0.148104
0.142648
0.138647
0.135277
0.132982
0.133425
0.131508
0.133425
0.1315
0.133425
0.132456
0.133651
0.141192
0.158948
0.159592
0.168584
0.105775
0.133518
0.237801
0.33635
0.35247
0.321196
0.255994
0.205512
0.174507
0.158067
0.149882
0.144307
0.13921
0.133548
0.131661
0.133425
0.131182
0.133425
0.13178
0.133425
0.1402
0.155026
0.159795
0.15963
0.166428
0.106732
0.122382
0.194528
0.302214
0.34949
0.349494
0.316209
0.258851
0.20732
0.174228
0.159329
0.154608
0.153408
0.147097
0.133425
0.130796
0.133425
0.131133
0.133425
0.139548
0.158969
0.166484
0.159355
0.152993
0.160309
0.150371
0.138569
0.175541
0.264362
0.339689
0.349895
0.336482
0.287269
0.227938
0.18607
0.168939
0.167203
0.177399
0.1808
0.150879
0.133425
0.130166
0.133425
0.132969
0.166524
0.186617
0.189813
0.167888
0.15166
0.149926
0.178981
0.184673
0.190851
0.263517
0.338447
0.348075
0.330979
0.280988
0.225102
0.189141
0.17973
0.187287
0.205045
0.2167
0.180115
0.129763
0.133425
0.130523
0.134466
0.185608
0.226209
0.241179
0.216108
0.169826
0.143587
0.201561
0.220079
0.203952
0.263679
0.337206
0.344841
0.314754
0.262123
0.218567
0.198079
0.215827
0.254414
0.257909
0.259704
0.219262
0.141787
0.129454
0.133425
0.133169
0.174946
0.238932
0.247557
0.248248
0.211748
0.142112
0.218342
0.250508
0.204085
0.251163
0.326714
0.338199
0.312489
0.263245
0.226092
0.23162
0.296101
0.312692
0.313371
0.295827
0.263981
0.203949
0.133425
0.130225
0.133425
0.154735
0.211339
0.245759
0.247557
0.234567
0.141928
0.225321
0.276433
0.230778
0.25362
0.306887
0.327232
0.313286
0.279367
0.260943
0.283338
0.31269
0.313303
0.307503
0.292669
0.283502
0.260386
0.186987
0.133425
0.132465
0.143954
0.188417
0.23742
0.247189
0.233994
0.143505
0.218568
0.280421
0.283901
0.275058
0.292583
0.311433
0.308746
0.298728
0.296177
0.304562
0.308847
0.304477
0.292371
0.275209
0.271101
0.266487
0.233712
0.155229
0.133425
0.144293
0.182636
0.231757
0.244348
0.226787
0.143598
0.214152
0.275712
0.283891
0.274767
0.282755
0.291039
0.29471
0.293995
0.294393
0.294073
0.28525
0.270032
0.266113
0.266224
0.261916
0.251577
0.226559
0.180815
0.141696
0.150746
0.184481
0.229891
0.24297
0.223562
0.143419
0.211894
0.265487
0.276007
0.259722
0.268422
0.27102
0.275863
0.284217
0.288658
0.282931
0.263445
0.248316
0.247608
0.252121
0.255423
0.243704
0.215915
0.184334
0.158721
0.162678
0.187195
0.227476
0.243021
0.222358
0.141707
0.198495
0.232902
0.260398
0.250699
0.252357
0.256453
0.263052
0.273116
0.283254
0.282804
0.271616
0.25241
0.247531
0.250818
0.254666
0.254422
0.23928
0.201879
0.17223
0.165103
0.179858
0.219301
0.242625
0.216484
0.138716
0.179593
0.18706
0.217164
0.23776
0.245089
0.250694
0.25693
0.264187
0.27413
0.281637
0.281053
0.26908
0.246796
0.243465
0.248969
0.253961
0.25395
0.237721
0.184664
0.164843
0.165234
0.195976
0.232535
0.204671
0.138786
0.16038
0.166591
0.185869
0.217035
0.237184
0.24655
0.252481
0.257733
0.264618
0.272768
0.274079
0.267513
0.250331
0.238174
0.239899
0.247764
0.252649
0.252172
0.224859
0.166418
0.162529
0.176623
0.212524
0.183907
0.138619
0.154995
0.16822
0.18983
0.20968
0.21838
0.226531
0.231421
0.235729
0.241123
0.249177
0.253699
0.251602
0.242968
0.230106
0.222604
0.225808
0.232863
0.248986
0.245838
0.191201
0.16232
0.176893
0.196625
0.156709
0.139133
0.154472
0.179686
0.190475
0.194184
0.187186
0.18688
0.190652
0.194421
0.200291
0.210253
0.219069
0.224815
0.224303
0.218436
0.214139
0.214754
0.222207
0.247038
0.243605
0.198206
0.164354
0.178737
0.161667
0.13893
0.13886
0.154995
0.184232
0.186856
0.173177
0.166152
0.171776
0.181945
0.185059
0.185084
0.185621
0.188003
0.19253
0.193508
0.196484
0.215627
0.258473
0.270792
0.270753
0.238143
0.198522
0.18145
0.175723
0.147863
0.138589
0.138786
0.153959
0.175212
0.170365
0.161072
0.164263
0.191049
0.213204
0.214392
0.197449
0.189134
0.194585
0.207931
0.222739
0.241993
0.259592
0.267593
0.267893
0.257888
0.227304
0.206194
0.195724
0.178288
0.151453
0.138786
0.138311
0.154995
0.158337
0.154995
0.160749
0.22075
0.270933
0.273076
0.244084
0.22067
0.216384
0.232651
0.246869
0.254565
0.25803
0.258901
0.256879
0.24959
0.236471
0.218477
0.206106
0.194861
0.180478
0.162072
0.140374
0.138786
0.151857
0.15348
0.15441
0.218713
0.270933
0.275084
0.270933
0.26699
0.257405
0.255806
0.257444
0.257614
0.251225
0.242549
0.233547
0.225894
0.220038
0.213554
0.206971
0.201038
0.197009
0.189975
0.175037
0.145363
0.13803
0.15348
0.151274
0.167392
0.247187
0.272921
0.270933
0.274167
0.26379
0.256888
0.25345
0.251638
0.241622
0.226151
0.211057
0.200003
0.194628
0.192797
0.192927
0.193473
0.195423
0.201561
0.202469
0.186464
0.149648
0.138786
0.151331
0.153446
0.165167
0.239611
0.270283
0.273719
0.270933
0.272928
0.245209
0.240936
0.235016
0.215336
0.195262
0.179453
0.169653
0.166879
0.168592
0.17258
0.179563
0.189396
0.200534
0.202422
0.194516
0.155651
0.137554
0.153403
0.152414
0.158906
0.209573
0.257768
0.270933
0.274337
0.270933
0.264838
0.231368
0.227166
0.220396
0.202764
0.175559
0.151643
0.142481
0.142485
0.142481
0.161473
0.182637
0.198146
0.202411
0.196817
0.161365
0.138786
0.151099
0.153403
0.156893
0.177618
0.217276
0.256952
0.270933
0.271447
0.270933
0.255427
0.262872
0.256319
0.235673
0.199741
0.1724
0.151867
0.142481
0.142485
0.147295
0.167096
0.188058
0.200396
0.194947
0.163738
0.136971
0.153403
0.153142
0.152563
0.154532
0.180796
0.239101
0.271217
0.268319
0.267466
0.264107
0.264433
0.260387
0.242377
0.235511
0.239787
0.224813
0.188681
0.149683
0.138219
0.151656
0.175921
0.19483
0.188893
0.163963
0.138786
0.151833
0.154206
0.142234
0.145894
0.190664
0.249887
0.270899
0.259527
0.260183
0.254119
0.240793
0.225164
0.234223
0.274437
0.278564
0.254267
0.224997
0.168678
0.137951
0.14416
0.165637
0.183179
0.179391
0.163688
0.136872
0.153403
0.15451
0.142102
0.161568
0.224627
0.261792
0.263348
0.243114
0.228396
0.205954
0.205072
0.205218
0.222476
0.278562
0.274437
0.251633
0.192789
0.148996
0.135653
0.138967
0.156039
0.166716
0.1664
0.161026
0.138786
0.152097
0.157179
0.142434
0.193829
0.245259
0.260147
0.239686
0.207258
0.181056
0.142709
0.160237
0.263303
0.275388
0.26827
0.242677
0.201385
0.152566
0.137281
0.135588
0.138376
0.148748
0.153846
0.15576
0.154633
0.136918
0.184526
0.164593
0.148993
0.20638
0.244553
0.24829
0.202044
0.15814
0.142709
0.142283
0.205071
0.275348
0.274437
0.245493
0.196366
0.1545
0.13682
0.135986
0.135864
0.143303
0.150787
0.153457
0.153354
0.148893
0.141878
0.224145
0.185706
0.154264
0.201574
0.237243
0.226084
0.168577
0.142709
0.141268
0.142709
0.229839
0.274437
0.27551
0.216087
0.166758
0.143603
0.138505
0.137704
0.142089
0.152638
0.158226
0.159158
0.155143
0.150177
0.152478
0.227872
0.214911
0.175334
0.191395
0.221911
0.218839
0.179511
0.14341
0.142709
0.142164
0.222193
0.274639
0.274437
0.227006
0.168173
0.144753
0.141371
0.143737
0.156017
0.17042
0.176472
0.176467
0.166212
0.156009
0.154073
0.227722
0.215532
0.203026
0.195289
0.207642
0.221541
0.221482
0.180247
0.141051
0.142709
0.193953
0.256051
0.274303
0.262475
0.197198
0.153182
0.146031
0.149835
0.166981
0.185688
0.198941
0.206133
0.197751
0.174588
0.154337
0.22369
0.205191
0.197239
0.193812
0.197616
0.209419
0.224345
0.243265
0.20921
0.14964
0.153235
0.200283
0.256879
0.261756
0.241481
0.181753
0.15092
0.15342
0.168228
0.189602
0.210306
0.229746
0.231473
0.209933
0.154689
0.195659
0.17759
0.175346
0.178299
0.184895
0.1982
0.233853
0.250256
0.247103
0.202948
0.163078
0.170644
0.215249
0.255357
0.252884
0.210073
0.161749
0.160934
0.172836
0.196545
0.220069
0.238088
0.238158
0.230023
0.15876
0.16686
0.163378
0.163796
0.165136
0.173739
0.19896
0.249113
0.247103
0.249702
0.238563
0.190586
0.175609
0.190369
0.237467
0.250814
0.228071
0.179873
0.172806
0.185043
0.210418
0.22705
0.236787
0.237329
0.232799
0.165702
0.163527
0.163796
0.162692
0.163796
0.173077
0.219584
0.247103
0.248959
0.247103
0.237625
0.204224
0.183588
0.193138
0.228456
0.251167
0.244273
0.212675
0.195849
0.203094
0.217931
0.226071
0.229714
0.230943
0.230687
0.175972
0.163796
0.162297
0.163796
0.163109
0.179213
0.232357
0.247405
0.247103
0.242951
0.22547
0.195486
0.190622
0.200419
0.228755
0.251717
0.253627
0.246632
0.234986
0.227783
0.222379
0.219891
0.219038
0.220271
0.226263
0.186526
0.162593
0.163796
0.164248
0.198525
0.203239
0.229764
0.240615
0.241536
0.23368
0.212242
0.191777
0.190858
0.200958
0.22713
0.25336
0.25392
0.253802
0.250678
0.241969
0.229289
0.221632
0.218629
0.219038
0.22455
0.195964
0.163796
0.162698
0.202899
0.258771
0.244796
0.228683
0.226438
0.232093
0.226212
0.209916
0.193876
0.195218
0.208096
0.233554
0.253342
0.253186
0.252363
0.249272
0.241673
0.235442
0.228863
0.219038
0.218089
0.226347
0.20516
0.161804
0.182402
0.252831
0.25889
0.250603
0.222291
0.217939
0.226533
0.220179
0.206682
0.203896
0.221334
0.236316
0.244355
0.248195
0.245303
0.24463
0.243795
0.240696
0.23662
0.229976
0.21835
0.219038
0.232732
0.214083
0.163796
0.221358
0.256191
0.256192
0.232983
0.21497
0.218319
0.225911
0.220074
0.214546
0.228602
0.236341
0.236206
0.235109
0.229189
0.226163
0.229596
0.23449
0.237507
0.234725
0.227189
0.219038
0.218088
0.237363
0.216563
0.16191
0.232949
0.250604
0.250386
0.221459
0.212738
0.218494
0.228107
0.226076
0.227864
0.236295
0.236197
0.235404
0.216506
0.205493
0.204144
0.21568
0.227496
0.234076
0.229772
0.222777
0.219694
0.226277
0.237343
0.218669
0.163796
0.235213
0.238785
0.244328
0.220139
0.212688
0.218918
0.23228
0.234809
0.235993
0.236196
0.236295
0.233546
0.211997
0.190304
0.184572
0.20533
0.223618
0.227296
0.222259
0.220432
0.222017
0.226088
0.227273
0.221718
0.163132
0.23489
0.230068
0.237579
0.224766
0.214126
0.223131
0.231941
0.232215
0.230627
0.231788
0.234652
0.232586
0.217018
0.189299
0.181595
0.205138
0.220518
0.220732
0.219979
0.216944
0.21353
0.205077
0.197474
0.212445
0.16389
0.234838
0.226269
0.232674
0.231851
0.230729
0.233342
0.224723
0.224581
0.225208
0.222825
0.226751
0.228368
0.21597
0.186157
0.181376
0.20716
0.220636
0.221234
0.217573
0.210117
0.196759
0.183154
0.178471
0.186433
0.164894
0.233761
0.218537
0.227635
0.232007
0.237913
0.237965
0.235528
0.228303
0.212244
0.205189
0.210004
0.218177
0.210687
0.180507
0.177539
0.205377
0.22342
0.228993
0.228748
0.229719
0.219811
0.199807
0.178188
0.171871
0.164704
0.232422
0.208598
0.216943
0.228351
0.23305
0.234252
0.235538
0.234034
0.221802
0.205926
0.19675
0.19654
0.193131
0.174066
0.172897
0.195183
0.219384
0.236272
0.249522
0.283454
0.303485
0.264529
0.219048
0.170862
0.164637
0.232065
0.205492
0.201454
0.211014
0.21744
0.223669
0.228339
0.22899
0.226779
0.215214
0.197666
0.182501
0.175371
0.172883
0.173266
0.181644
0.20532
0.228359
0.256379
0.302278
0.306756
0.306888
0.273933
0.171871
0.164842
0.222912
0.209798
0.199835
0.195524
0.195301
0.200191
0.206337
0.211477
0.216383
0.212522
0.2027
0.187682
0.175355
0.173266
0.171696
0.173281
0.188065
0.213133
0.249784
0.297104
0.305827
0.299166
0.288901
0.173228
0.167271
0.202347
0.217833
0.211357
0.199273
0.192859
0.187271
0.186433
0.187162
0.190676
0.196771
0.196136
0.191311
0.180395
0.172447
0.173266
0.173541
0.179652
0.199889
0.242209
0.29202
0.300568
0.290223
0.289081
0.185677
0.167027
0.188286
0.225657
0.230315
0.221849
0.208879
0.194806
0.18681
0.179512
0.179323
0.179574
0.181822
0.185385
0.182661
0.173947
0.171706
0.174
0.180263
0.200912
0.247094
0.291293
0.29224
0.280319
0.287477
0.192629
0.164273
0.197949
0.230153
0.230872
0.230757
0.227954
0.218167
0.204116
0.190512
0.182244
0.183538
0.18977
0.191058
0.188244
0.179946
0.173268
0.178309
0.18699
0.213531
0.26438
0.288564
0.282537
0.267423
0.285206
0.192616
0.163796
0.215892
0.230406
0.228385
0.228332
0.227731
0.229381
0.228427
0.226838
0.226665
0.234318
0.244821
0.228726
0.203351
0.189291
0.183845
0.191334
0.209362
0.245321
0.275687
0.280261
0.270039
0.253436
0.284993
0.188868
0.16233
0.217518
0.217898
0.211806
0.213005
0.224999
0.246099
0.262901
0.285166
0.301648
0.301783
0.300621
0.260575
0.22207
0.211408
0.210809
0.226096
0.251003
0.27044
0.274385
0.268867
0.25659
0.246352
0.284758
0.183496
0.163796
0.20076
0.195369
0.191027
0.19346
0.230562
0.279499
0.300319
0.301648
0.30161
0.29756
0.280825
0.255691
0.243987
0.241336
0.247102
0.256303
0.264645
0.267725
0.264828
0.253467
0.240932
0.239654
0.276503
0.174933
0.161053
0.190867
0.191027
0.190894
0.207192
0.245486
0.271212
0.279406
0.279625
0.269119
0.255184
0.241226
0.233653
0.232799
0.234656
0.241069
0.246082
0.24849
0.246382
0.238305
0.231049
0.231045
0.231912
0.261177
0.174931
0.286927
0.367207
0.354464
0.366609
0.387855
0.394404
0.385798
0.372611
0.345361
0.309195
0.269718
0.231781
0.203986
0.200747
0.200691
0.200748
0.200693
0.20404
0.223139
0.251169
0.2795
0.294152
0.305089
0.335129
0.261976
0.81441
0.829567
0.831063
0.837105
0.840264
0.837351
0.835127
0.835073
0.830953
0.819796
0.782879
0.689283
0.577875
0.499383
0.5036
0.497176
0.501145
0.550015
0.639163
0.706853
0.742104
0.745142
0.739698
0.73511
0.754384
0.990969
0.987963
0.987666
0.988629
0.989546
0.99058
0.9921
0.993776
0.995392
0.996905
0.997867
0.996717
0.988726
0.981982
0.973167
0.976895
0.977173
0.984328
0.989056
0.98983
0.98778
0.985261
0.98336
0.983411
0.989485
0.999944
0.999818
0.999702
0.99974
0.999812
0.999878
0.999939
0.999975
0.999992
0.999997
0.999997
0.999996
0.999998
0.999999
0.999998
0.999996
0.999988
0.999971
0.999944
0.999921
0.999876
0.999835
0.999825
0.999907
0.999966
1
0.999999
0.999998
0.999998
0.999999
1
1
1
1
1
1
1
1
1
1
1
1
1
1
1
1
1
1
1
1
1
1
1
1
1
1
1
1
1
1
1
1
1
1
1
1
1
1
1
1
1
1
1
1
1
1
1
1
1
1
1
1
1
1
1
1
1
1
1
1
1
1
1
1
1
1
1
1
1
1
1
1
1
1
1
1
1
1
1
1
1
1
1
1
1
1
1
1
1
1
1
1
1
1
1
1
1
1
1
1
1
1
1
1
1
1
1
1
1
1
1
1
1
1
1
1
1
1
1
1
)
;

boundaryField
{
    inlet
    {
        type            fixedValue;
        value           uniform 0.5;
    }
    outlet
    {
        type            inletOutlet;
        phi             phi.air;
        inletValue      uniform 1;
        value           nonuniform List<scalar> 
25
(
1
1
1
1
1
1
1
1
1
1
1
1
1
1
1
1
1
1
1
1
1
1
1
1
1
)
;
    }
    walls
    {
        type            zeroGradient;
    }
    defaultFaces
    {
        type            empty;
    }
}


// ************************************************************************* //
