/*--------------------------------*- C++ -*----------------------------------*\
| =========                 |                                                 |
| \\      /  F ield         | OpenFOAM: The Open Source CFD Toolbox           |
|  \\    /   O peration     | Version:  2312                                  |
|   \\  /    A nd           | Website:  www.openfoam.com                      |
|    \\/     M anipulation  |                                                 |
\*---------------------------------------------------------------------------*/
FoamFile
{
    version     2.0;
    format      ascii;
    arch        "LSB;label=32;scalar=64";
    class       volScalarField;
    location    "0.925/water";
    object      Ct2;
}
// * * * * * * * * * * * * * * * * * * * * * * * * * * * * * * * * * * * * * //

dimensions      [0 0 0 0 0 0 0];

internalField   nonuniform List<scalar> 
1504
(
1
1
1
1
1
1
1
1
1
1
1
1
1
1
1
1
1
1
1
1.05170294105
1
1
1
1
1
1
1
1
1
1
1
1
1
1
1
1
1
1
1
1.000069024
1
1
1
1
1
1
1
1
1
1
1
1
1
1
1
1
1
1
1
1.00000000001
1
1
1
1
1
1
1
1
1
1
1
1
1
1
1
1
1
1
1
1
1
1
1
1
1
1
1
1
1
1
1
1
1
1
1
1
1
1
1
1
1
1
1
1
1
1
1
1
1
1
1
1
1
1
1
1
1
1
1
1
1
1
1
1
1
1
1
1
1
1
1
1
1
1
1
1
1
1
1
1
1
1
1
1
1
1
1
1
1
1
1
1
1
1
1
1
1
1
1
1
1
1
1
1
1
1
1
1
1
1
1
1
1
1
1
1
1
1
1
1
1
1
1
1
1
1
1
1
1
1
1
1
1
1
1
1
1
1
1
1
1
1
1
1
1
1
1
1
1
1
1
1
1
1
1
1
1
1
1
1
1
1
1
1
1
1
1
1
1
1
1
1
1
1
1
1
1
1
1
1
1
1
1
1
1
1
1
1
1
1
1
1
1
1
1
1
1
1
1
1
1
1
1
1
1
1
1
1
1
1
1
1
1
1
1
1
1
1
1
1
1
1
1
1
1
1
1
1
1
1
1
1
1
1
1
1
1
1
1
1
1
1
1
1
1
1
1
1
1
1
1
1
1
1
1
1
1
1
1
1
1
1
1
1
1
1
1
1
1
1
1
1
1
1
1
1
1
1
1
1
1
1
1
1
1
1
1
1
1
1
1
1
1
1
1
1
1
1
1
1
1
1
1
1
1
1
1
1
1
1
1
1
1
1
1
1
1
1
1
1
1
1
1
1
1
1
1
1
1
1
1
1
1
1
1
1
1
1
1
1
1
1
1
1
1
1
1
1
1
1
1
1
1
1
1
1
1
1
1
1
1
1
1
1
1
1
1
1
1
1
1
1
1
1
1
1
1
1
1
1
1
1
1
1
1
1
1
1
1
1
1
1
1
1
1
1
1
1
1
1
1
1
1
1
1
1
1
1
1
1
1
1
1
1
1
1
1
1
1
1
1
1
1
1
1
1
1
1
1
1
1
1
1
1
1
1
1
1
1
1
1
1
1
1
1
1
1
1
1
1
1
1
1
1
1
1
1
1
1
1
1
1
1
1
1
1
1
1
1
1
1
1
1
1
1
1
1
1
1
1
1
1
1
1
1
1
1
1
1
1
1
1
1
1
1
1
1
1
1
1
1
1
1
1
1
1
1
1
1
1
1
1
1
1
1
1
1
1
1
1
1
1
1
1
1
1
1
1
1
1
1
1
1
1
1
1
1
1
1
1
1
1
1
1
1
1
1
1
1
1
1
1
1
1
1
1
1
1
1
1
1
1
1
1
1
1
1
1
1
1
1
1
1
1
1
1
1
1
1
1
1
1
1
1
1
1
1
1
1
1
1
1
1
1
1
1
1
1
1
1
1
1
1
1
1
1
1
1
1
1
1
1
1
1
1
1
1
1
1
1
1
1
1
1
1
1
1
1
1
1
1
1
1
1
1
1
1
1
1
1
1
1
1
1
1
1
1
1
1
1
1
1
1
1
1
1
1
1
1
1
1
1
1
1
1
1
1
1
1
1
1
1
1
1
1
1
1
1
1
1
1
1
1
1
1
1
1
8.96851109752
8.96982837759
8.97118037593
8.9721605869
8.97271986952
8.97299772829
8.97313750775
8.97321748046
8.97326967354
8.97330830598
8.97334138047
8.97337404269
8.97341008083
8.97345277534
8.97350429292
8.97355999534
8.97360474216
2.65797514141
8.71857644024
8.96878685681
8.96915411064
8.97037611668
8.97156831698
8.97238060402
8.97282419111
8.97304445461
8.97316002071
8.97322923287
8.97327593451
8.97331157715
8.97334295398
8.97337461896
8.97341006855
8.97345247478
8.97350429383
8.97356153098
8.97360804036
1.88092733361
8.33419942735
8.96944863703
8.96975350668
8.97086682522
8.97189513906
8.97255572259
8.9729052121
8.97308129188
8.97317806282
8.9732384288
8.97328044304
8.97331347396
8.97334334237
8.97337412414
8.9734090754
8.97345126529
8.9735034239
8.97356236681
8.97361110507
1.54626354144
7.6705993327
8.96934517935
8.97030744287
8.97129826625
8.97216460847
8.97269306959
8.97296785389
8.97311015017
8.9731920854
8.97324506746
8.97328304304
8.97331377564
8.97334230268
8.97337231435
8.9734068721
8.97344894377
8.97350150001
8.97356232434
8.97361381837
1.43109141066
6.71281895837
8.96602838534
8.97080773119
8.97166669921
8.97238081341
8.97279869494
8.97301549535
8.97313198073
8.97320206077
8.97324884978
8.97328335235
8.97331207965
8.9733394406
8.97336881805
8.97340312143
8.9734452185
8.97349826658
8.97356115343
8.97361600155
1.39490216139
5.57099189428
8.95484794615
8.97123948533
8.97196885264
8.97254805067
8.97287721539
8.97305005243
8.9731469068
8.9732075239
8.97324918591
8.9732807697
8.97330781132
8.9733342229
8.97336315032
8.97339739275
8.97343972185
8.97349340797
8.97355854791
8.97361743235
1.31566059754
4.44096904731
8.92935088891
8.97159078526
8.97220432555
8.97267102023
8.97293203425
8.9730724108
8.9731545477
8.97320776489
8.97324533196
8.97327458622
8.97330031771
8.97332605784
8.97335478041
8.97338921738
8.97343205269
8.97348657906
8.97355416045
8.97361785177
1.14577291668
3.46828308147
8.88021379585
8.97186511114
8.97237707078
8.97275511791
8.97296595658
8.97308308989
8.97315448899
8.97320215037
8.9732366377
8.97326418696
8.97328903511
8.97331443521
8.97334324876
8.973378184
8.97342185199
8.97347746115
8.97354763407
8.97361697339
1.01927396744
2.69229671573
8.79187829861
8.97207595319
8.9724961298
8.97280696287
8.97298205217
8.97308299469
8.97314680203
8.97319049592
8.97322283771
8.97324928687
8.97327368375
8.97329908879
8.97332830235
8.97336405042
8.97340889173
8.97346583077
8.97353864392
8.97361448803
1.00007951333
2.09705788533
8.62612241708
8.97224228161
8.97257415883
8.97283427686
8.97298409044
8.97307381788
8.97313232235
8.9731732755
8.97320422348
8.97323007541
8.97325439109
8.97328010215
8.97330998566
8.97334681997
8.97339313805
8.97345161191
8.97352693234
8.97361005113
1
1.67397018579
8.27278770627
8.9723069736
8.97262338766
8.97284433878
8.97297595052
8.97305771572
8.97311243504
8.97315148672
8.97318156332
8.97320717212
8.97323167095
8.97325790399
8.97328864644
8.97332675331
8.97337476377
8.97343489132
8.97351232698
8.97360324578
1
1.45041591893
7.472575927
8.96897883192
8.97265303306
8.97284268987
8.97296089448
8.97303680344
8.97308871116
8.97312639489
8.97315592294
8.9731815004
8.97320633561
8.97323320818
8.9732648964
8.97330434277
8.97335413098
8.97341590915
8.97349474958
8.97359352392
1
1.36886561983
5.86123362243
8.94561986568
8.97267343791
8.97283423812
8.97294197579
8.97301325298
8.97306289145
8.97309948462
8.97312861215
8.9731542392
8.97317945529
8.97320698161
8.97323958667
8.97328029412
8.97333177435
8.97339504412
8.97347422878
8.97358013228
1
1.02662655585
3.53145605134
8.8185999868
8.9724419829
8.97282246729
8.97292166276
8.97298909687
8.97303677869
8.97307239928
8.97310114862
8.973126799
8.97315234061
8.97318043018
8.97321379604
8.97325551491
8.97330838628
8.97337279366
8.97345091388
8.97356202199
1
1.00000000015
1.89039902711
8.24430208601
8.96878834625
8.97281169096
8.97290287344
8.97296679631
8.97301257639
8.97304715097
8.9730753877
8.97310089888
8.97312658383
8.97315501558
8.97318883114
8.97323110298
8.97328479196
8.97334972979
8.9734250615
8.97353773522
1
1
1.42787622013
6.37672749392
8.93461680417
8.97280520557
8.97289001144
8.97294983568
8.97299320855
8.97302627691
8.97305357736
8.97307855715
8.97310400867
8.9731323798
8.97316613582
8.97320824626
8.97326183857
8.97332636419
8.97339691297
8.97350523714
1
1
1.16202587627
3.35215257683
8.68868343626
8.97245318116
8.97288777303
8.97294160431
8.97298147333
8.97301217168
8.97303780913
8.97306162519
8.97308626451
8.97311398476
8.97314696554
8.97318792292
8.9732401077
8.97330283669
8.97336633756
8.97346160133
1
1
1.00000009343
1.69364005661
7.46519893227
8.96209525737
8.97289736716
8.97294382907
8.97297881383
8.97300609633
8.97302920668
8.97305111018
8.97307424927
8.97310060815
8.97313193349
8.97317047874
8.97321950366
8.97327845738
8.97333216946
8.9734023152
1
1
1
1.40115410605
4.59550463308
8.83837155805
8.97292243459
8.97295645475
8.97298491534
8.97300776751
8.97302753913
8.97304681966
8.9730677797
8.97309202651
8.97312068863
8.97315528164
8.97319886189
8.97325117059
8.97329110934
8.97331943388
1
1
1
1.06063755609
2.23261326608
8.11097910643
8.97069493614
8.9729774727
8.97299812163
8.97301561708
8.97303139307
8.97304748254
8.97306568945
8.97308712599
8.97311210116
8.97314106913
8.97317647232
8.97321790451
8.97323654048
8.97319632712
1
1
1
1.00000008925
1.50307827738
6.01245042739
8.92176001449
8.97300648715
8.97301613864
8.97302730661
8.9730385498
8.97305104845
8.97306611729
8.97308431032
8.97310504894
8.97312748286
8.97315251075
8.97317702953
8.97315769207
8.97299321153
1
1
1
1
1.38601498289
3.39120968793
8.59052647836
8.97280914144
8.97303700403
8.97304031846
8.97304646818
8.9730550681
8.97306675025
8.97308145361
8.97309771599
8.97311311115
8.97312530512
8.97312377812
8.97304175998
8.9726655245
1
1
1
1
1.08865686248
1.91729504896
7.36056859551
8.95808827928
8.97305809211
8.9730528353
8.97305291876
8.97305721867
8.97306526218
8.97307623129
8.97308773875
8.97309534402
8.97309173532
8.97306069144
8.97296629326
8.97277848878
1
1
1
1
1.00000896995
1.46400829699
4.90251195706
8.80177930977
8.97307009862
8.97306449907
8.97305713376
8.97305672836
8.97306124992
8.9730692256
8.97307796029
8.97308248723
8.97307396218
8.97304205046
8.97300375924
8.97304455082
1
1
1
1
1
1.3658072537
2.62728109326
7.99634659569
8.96339779496
8.97307669982
8.97305975049
8.97305370319
8.97305578364
8.97306417191
8.97307850137
8.97309984611
8.97313189786
8.97317966581
8.97324650115
8.97334333242
1
1
1
1
1
1.02664190685
1.62497632384
5.70482257026
8.80679750424
8.97255527287
8.97306116935
8.97305019849
8.9730501319
8.9730607333
8.97308296552
8.97312172904
8.97318570689
8.97328135751
8.97339844028
8.97350272472
1
1
1
1
1
1.00000000018
1.40289182278
2.92674645999
7.80803392096
8.93926562922
8.9730487007
8.97305315792
8.97305312516
8.97306863193
8.97310246749
8.97315918453
8.97324529319
8.97336230688
8.97348963988
8.97358291746
1
1
1
1
1
1
1.05564517229
1.61968644099
5.05106844597
8.54916278873
8.96541017048
8.97308677708
8.97309601004
8.97313281762
8.9731883848
8.97326104473
8.97335069014
8.97345400114
8.97355521747
8.97362539948
1
1
1
1
1
1
1
1.38928281368
2.40667969571
6.75982018794
8.80286995768
8.97163906144
8.97321718564
8.97327207163
8.97333285672
8.97339627681
8.9734627198
8.97353279093
8.97360034399
8.97364961558
1
1
1
1
1
1
1
1.0148937507
1.50844315582
3.80071368204
7.75123924281
8.89702916128
8.9729600227
8.97340182819
8.97344720029
8.97349069285
8.97353560677
8.97358373216
8.97363151958
8.9736685641
1
1
1
1
1
1
1
1
1.36430258513
1.94574149588
5.16265115476
8.24537931573
8.93875840374
8.97339862997
8.97351468971
8.97354636364
8.97358086795
8.97361853559
8.97365598978
8.97368659062
1
1
1
1
1
1
1
1
1.00736503611
1.43769134458
2.57236172602
6.02316600934
8.48915655836
8.95686089981
8.97259624169
8.97280826872
8.97299718401
8.97338470165
8.97361392431
8.97370144234
1
1
1
1
1
1
1
1
1
1.18691133915
1.5091142777
2.85361604759
6.16854127491
8.29737767253
8.76982086966
8.91881308288
8.93011828673
8.950285406
8.96753861194
8.97315456411
1
1
1
1
1
1
1
1
1
1
1.16294210014
1.45603136837
2.06563940595
2.2864392999
3.35501489409
7.93384488562
8.50800255981
8.71872534081
8.8864254936
8.95240018641
1
1
1
1
1
1
1
1
1
1
1
1.0000899254
1.01648290052
1
1.00013124492
2.4695416213
7.26985769825
8.26551247291
8.65078982553
8.79134488429
1
1
1
1
1
1
1
1
1
1
1
1
1
1
1
1
2.08296800447
8.04708524951
8.59945388791
8.61632934181
1
1
1
1
1
1
1
1
1
1
1
1
1
1
1
1
1
5.58729887744
8.60007643254
8.60053557236
1
1
1
1
1
1
1
1
1
1
1
1
1
1
1
1
1
1.98644989241
8.59974947281
8.60011638668
)
;

boundaryField
{
    emptyPatch
    {
        type            empty;
    }
    minY
    {
        type            calculated;
        value           nonuniform List<scalar> 0();
    }
    maxY
    {
        type            calculated;
        value           nonuniform List<scalar> 0();
    }
    maxX
    {
        type            calculated;
        value           nonuniform List<scalar> 
38
(
8.97369715408
8.97370006762
8.97370292144
8.97370573192
8.97370851921
8.97371130829
8.97371412969
8.97371701884
8.97372001422
8.97372315397
8.973726472
8.97372999368
8.97373373161
8.9737376812
8.97374181728
8.97374609228
8.97375043903
8.97375477938
8.97375903725
8.97376315124
8.97376708376
8.97377082386
8.9737743785
8.97377778457
8.97378108997
8.97378435801
8.97378764551
8.97379101113
8.97379452603
8.97379826782
8.97380229111
8.97380380357
8.97325026953
8.95246645855
8.79136608278
8.61633463649
8.60055332015
8.60014610625
)
;
    }
    water_to_heater
    {
        type            calculated;
        value           uniform 1;
    }
    procBoundary3to1
    {
        type            processor;
        value           nonuniform List<scalar> 
41
(
1
1
1
1
1
1
1
1
1
1
1
1
1
1
1
1
1
1
1
1
1
1
1
1
1
1
1
1
1
1
1
1
1
1
1
1
1
1
1.74043403269
8.59939445318
8.59968798103
)
;
    }
    procBoundary3to2
    {
        type            processor;
        value           nonuniform List<scalar> 
41
(
1
1
1
1
1
1
1
1
1
1
1
1
1
1
1
1
1
1
1
1.31856033417
8.96782131313
8.96922445684
8.97072875868
8.97188858728
8.97258618836
8.97293833463
8.97310969736
8.97320298965
8.97326168663
8.97330377586
8.97333877464
8.97337255881
8.97340927118
8.97345231197
8.97350356525
8.97355792726
8.97360138614
4.09361501224
8.89452234308
8.9680789521
8.9680789521
)
;
    }
}


// ************************************************************************* //
