/*--------------------------------*- C++ -*----------------------------------*\
| =========                 |                                                 |
| \\      /  F ield         | OpenFOAM: The Open Source CFD Toolbox           |
|  \\    /   O peration     | Version:  2312                                  |
|   \\  /    A nd           | Website:  www.openfoam.com                      |
|    \\/     M anipulation  |                                                 |
\*---------------------------------------------------------------------------*/
FoamFile
{
    version     2.0;
    format      ascii;
    arch        "LSB;label=32;scalar=64";
    class       volScalarField;
    location    "0.27/water";
    object      Tf.gasAndLiquid;
}
// * * * * * * * * * * * * * * * * * * * * * * * * * * * * * * * * * * * * * //

dimensions      [0 0 0 1 0 0 0];

internalField   nonuniform List<scalar> 
1497
(
300.504519364
300.414433489
300.347438148
300.29036617
300.236643572
300.18298504
300.128594333
300.078756357
300.040694571
300.017663663
300.006588627
300.002136334
300.000560313
339.860436093
312.394984338
304.622859704
302.147668913
301.232300585
300.826126462
300.614388306
300.487726896
300.403386333
300.33899898
300.283196977
300.230244803
300.176843161
300.123447492
300.075498389
300.03900934
300.01686319
300.006210226
300.001960579
300.000483488
337.154701542
310.024497086
303.631312601
301.764547693
301.07339137
300.753724044
300.576644462
300.465809651
300.388341632
300.327026066
300.272786567
300.220562537
300.167626262
300.11628263
300.070968595
300.036537744
300.015605273
300.005621436
300.001710267
300.000392188
333.632525879
308.500420712
302.771906105
301.400082439
300.910941916
300.674830301
300.534790892
300.440615762
300.370474664
300.312487714
300.259816413
300.208017202
300.156682895
300.108454746
300.066276425
300.034023995
300.014300801
300.005019483
300.001484272
300.000324489
331.700466953
308.671336988
302.415751524
301.159410654
300.783591084
300.607483073
300.496806984
300.416423023
300.352486045
300.297194032
300.245220235
300.194466647
300.146181204
300.101734389
300.062744919
300.032343317
300.013462888
300.004686811
300.001377302
300.000298992
329.626861642
309.991444738
302.812472459
301.133532879
300.721540637
300.564549451
300.469337887
300.397195778
300.336793075
300.282316179
300.231042873
300.182913393
300.138517874
300.097872478
300.061721927
300.032657296
300.013811807
300.004850798
300.001445614
300.000330325
325.155769593
310.063390029
303.39024841
301.309956233
300.735406626
300.55020858
300.454387693
300.383852855
300.32393695
300.270091698
300.220898172
300.176142046
300.135542176
300.098394552
300.064869229
300.036187149
300.015862678
300.005660326
300.001742513
300.000451022
320.353949951
308.955508309
303.513383404
301.468443252
300.788197339
300.557809039
300.449859168
300.376793959
300.31684386
300.264279292
300.217637558
300.176209442
300.139056138
300.104745611
300.072629673
300.04319412
300.019976314
300.007283805
300.002405622
300.000720587
316.847719789
307.74687856
303.37954581
301.538355711
300.841070403
300.580613107
300.458823832
300.381042405
300.320031066
300.268611829
300.224044649
300.185024823
300.149714919
300.116409978
300.084091277
300.052941925
300.02618922
300.010160985
300.003642603
300.001206277
315.332901905
307.36798796
303.568544346
301.814188681
301.020944941
300.66778266
300.498983275
300.403594659
300.337863237
300.285704316
300.241665966
300.202810741
300.166811929
300.13221648
300.098289718
300.064769879
300.034313328
300.014672829
300.005584341
300.0019403
316.56775076
308.949916444
305.037515669
302.772551373
301.507592447
300.873841193
300.583996269
300.449223872
300.373226356
300.317655698
300.270583578
300.228108609
300.188333325
300.150324045
300.113465363
300.077220739
300.044009142
300.020418599
300.008083692
300.002864053
324.672719819
313.538823497
307.025340886
303.554881707
301.82908677
301.020545631
300.66540615
300.507243511
300.42117808
300.358376262
300.304396356
300.255419191
300.210040383
300.167542172
300.12739361
300.08894777
300.05334978
300.026083128
300.0106203
300.003799906
342.871673297
316.461683006
307.268041206
303.416844499
301.743882496
301.015429753
300.698014226
300.548290164
300.459498766
300.391473269
300.331908656
300.277494605
300.227353541
300.181047176
300.138043043
300.097564417
300.060027086
300.030206803
300.012530277
300.004522954
351.544290853
317.336449537
306.846261837
303.021616211
301.543362697
300.948254986
300.691984181
300.562591426
300.478185466
300.409928184
300.348317924
300.291137656
300.238138979
300.189339424
300.14435371
300.102292185
300.063334482
300.032156472
300.013471151
300.004917665
353.755041564
317.242330136
306.4241093
302.705906763
301.37531151
300.879673102
300.672025034
300.561501311
300.483860322
300.417752704
300.356318673
300.298279858
300.243916567
300.193681159
300.147339126
300.103920183
300.063789171
300.032242925
300.013578566
300.005043026
352.60940386
317.206346627
306.346569998
302.608875176
301.302908088
300.840926864
300.655679448
300.556319579
300.483786339
300.419941503
300.359579841
300.301664176
300.246812553
300.195748708
300.148236998
300.103266512
300.062284197
300.031249505
300.013251775
300.005054882
347.885282649
317.043403251
306.569629236
302.723751283
301.333260324
300.841039988
300.650689514
300.552917683
300.482096406
300.419884431
300.360585564
300.303116446
300.248177258
300.196411414
300.147335973
300.100803151
300.05991095
300.029975794
300.012869338
300.005092388
343.402118445
316.513774353
306.737491849
302.88995756
301.414659874
300.869083908
300.657273665
300.552714174
300.480585032
300.41874418
300.360086026
300.303089702
300.248112727
300.195176834
300.144365017
300.097419174
300.057518636
300.028890157
300.012614631
300.005213792
341.910033849
316.078753976
306.770133594
303.004333446
301.494387426
300.906419517
300.670376624
300.554570912
300.478820834
300.416159001
300.357674688
300.301039047
300.24559071
300.191186034
300.139864791
300.093773313
300.055397409
300.02805073
300.012466846
300.005411355
342.384309938
315.986268389
306.780713329
303.066678559
301.547738344
300.935534726
300.680574657
300.555048938
300.475194477
300.41109894
300.352494134
300.295900977
300.239497249
300.184703528
300.13431671
300.089980474
300.053402634
300.027263577
300.01232394
300.005659521
344.236673726
316.38243197
306.944333047
303.137362299
301.577673997
300.946415697
300.681480217
300.550776031
300.467940381
300.402562745
300.343784933
300.286774684
300.229979534
300.176236079
300.127907649
300.085913878
300.051258154
300.026333036
300.012117875
300.005965589
348.596393929
317.374831318
307.201643358
303.13635301
301.541923147
300.925386664
300.66889951
300.539599047
300.455947855
300.390074465
300.331199991
300.273689346
300.217770581
300.166314333
300.120824913
300.081485667
300.048831824
300.025204512
300.011902176
300.006375583
351.646533496
317.528078671
306.691484118
302.826695587
301.410000971
300.871865547
300.642945874
300.521207584
300.43915629
300.373822219
300.314731116
300.257528835
300.20383068
300.155612664
300.113394537
300.076809418
300.046219097
300.024057615
300.011878123
300.006897031
342.189518653
316.442743271
305.753576324
302.379187744
301.230452784
300.800162561
300.608024133
300.497313767
300.418685462
300.354215441
300.2950625
300.23971401
300.189426388
300.145022741
300.106176409
300.072219841
300.043806267
300.023378385
300.012189469
300.007458891
341.016581942
314.723368995
304.643966433
301.895790543
301.045333316
300.725888718
300.570122037
300.470831525
300.395606623
300.331663599
300.274165858
300.222248669
300.17610932
300.135646031
300.099923445
300.06876161
300.042355098
300.023290723
300.012650113
300.007931536
351.67747205
312.621934787
303.490373432
301.471569537
300.891106391
300.661686774
300.53452117
300.443476048
300.371009568
300.309472596
300.255405491
300.207543237
300.165477709
300.128533117
300.096024306
300.066704839
300.041679792
300.023415132
300.013104484
300.008266297
346.254440803
310.218020297
302.617518453
301.18634162
300.786984893
300.614292072
300.503190311
300.418536028
300.349575792
300.291341092
300.240831974
300.196787048
300.158363752
300.124776688
300.094210947
300.066021148
300.041623197
300.023770549
300.013574798
300.008493092
332.181770675
308.472562963
302.158814719
301.037638344
300.728210372
300.581367149
300.479711748
300.399708253
300.334258398
300.279027252
300.231796807
300.191174086
300.155952309
300.12431677
300.094618525
300.066716111
300.042378984
300.024510742
300.014145816
300.008689284
322.946134832
307.300805873
302.104564527
301.00350132
300.702363334
300.563538558
300.466808916
300.390356542
300.32724295
300.274547685
300.230190095
300.192004816
300.158363891
300.127273249
300.09749333
300.069188128
300.044317079
300.025886315
300.014973467
300.00897712
317.669833662
306.925452229
302.307306558
301.014495765
300.688930463
300.559542417
300.468363116
300.393961621
300.332396811
300.281176058
300.237881277
300.200176934
300.166121675
300.134184045
300.103416615
300.073972118
300.047787942
300.028088222
300.016192088
300.009476492
315.919163582
307.382518473
302.705187847
301.041440133
300.708713136
300.583487756
300.493008148
300.418084419
300.355543555
300.302698899
300.256935883
300.216402001
300.179704597
300.145547327
300.112860106
300.081446365
300.053087386
300.0313601
300.018003381
300.010336135
319.365683706
309.765164865
303.541085231
301.223495912
300.787895898
300.646592298
300.549594193
300.468775775
300.399889568
300.340108695
300.287510502
300.240892597
300.199273522
300.161405135
300.125811549
300.091647387
300.060361135
300.035926124
300.020620008
300.011705769
333.148805144
312.407334696
304.254441901
301.480276998
300.914882437
300.744567955
300.633365156
300.538606692
300.45727058
300.38722096
300.32569136
300.271238871
300.223212286
300.18054397
300.141323438
300.103929495
300.069358736
300.041842266
300.024189848
300.013701789
342.494608665
314.006860078
304.614031569
301.685962178
301.019600931
300.824489882
300.704578839
300.600564462
300.509865232
300.4317327
300.362805189
300.301634951
300.247854789
300.200598122
300.157734201
300.117116642
300.079446075
300.048943357
300.028748725
300.016372373
345.084790104
314.852050271
304.940286102
301.833236849
301.077603252
300.862567588
300.741449153
300.638510075
300.547371213
300.466301116
300.393393462
300.32798088
300.270281381
300.219579468
300.173598897
300.13012685
300.089935356
300.056936228
300.034228246
300.019692369
345.698067907
315.294405788
305.210434237
301.967129123
301.119287336
300.882098945
300.760564792
300.66027542
300.571477981
300.491285262
300.417652475
300.350186283
300.289980965
300.236809916
300.188267835
300.142447457
300.100425096
300.0655739
300.040523283
300.023610677
345.840255032
315.432289146
305.39838305
302.095992296
301.167707657
300.900643788
300.775351028
300.676816524
300.58999199
300.510596412
300.43685096
300.368677557
300.307262606
300.252327233
300.201644279
300.15404759
300.110862202
300.074741486
300.047551229
300.028101122
345.846524454
315.437215322
305.601059718
302.27122605
301.244208589
300.928144783
300.791179329
300.692489179
300.606881431
300.528215062
300.454429122
300.385603059
300.323064245
300.266270237
300.213409333
300.164567969
300.120937187
300.084107755
300.055077149
300.033080263
300.000089765
300.000006133
300.000000299
300
300
300
300
300
300.000004774
300.000010027
300.000014552
300.000018049
300.000020387
300.000021772
300.000022509
300.00002292
300.000022944
300.00002264
300.000021765
300.000020713
300.000071137
300.000005094
300.000000128
300
300
300
300
300
300.000005527
300.000011787
300.000017877
300.000024296
300.000026999
300.000026098
300.00002463
300.000023806
300.000023206
300.000022656
300.000021946
300.000020883
300.000054088
300.000004283
300.000000049
300
300
300
300
300.000000567
300.000008644
300.000018934
300.000030567
300.000041494
300.0000457
300.000042216
300.000035429
300.000028196
300.000024078
300.000022106
300.000021279
300.000020049
300.000044142
300.000003651
300.000000021
300
300
300
300
300.000003523
300.000014872
300.000030467
300.000047773
300.000060544
300.000065017
300.000060543
300.000050417
300.000038874
300.000028512
300.000021385
300.000020477
300.000018999
300.000042772
300.000003564
300.000000084
300
300
300
300.0000014
300.000010159
300.000026337
300.000047675
300.000068905
300.000081607
300.000081773
300.00007222
300.000058562
300.000044305
300.000031571
300.000020282
300.000019386
300.000017693
300.000056987
300.000007675
300.000000539
300.000000044
300.000000064
300.000000927
300.000007463
300.00002287
300.000046426
300.000073353
300.000094031
300.000100075
300.000091001
300.000073674
300.000056096
300.000041355
300.000028729
300.000018898
300.000018255
300.000017148
300.000103066
300.00002236
300.000004257
300.000000618
300.000001059
300.000006364
300.000021056
300.000047253
300.000080525
300.000108997
300.000119942
300.000110048
300.000087622
300.000064109
300.000045306
300.000030878
300.000021479
300.000015968
300.00001614
300.000016176
300.000204293
300.000056592
300.000015566
300.00000503
300.000006958
300.000020609
300.000049278
300.000090721
300.000129544
300.000145145
300.00013015
300.000096531
300.000063658
300.000040683
300.000026822
300.000016648
300.000016853
300.000013375
300.000013937
300.00001545
300.000382726
300.00011905
300.000037296
300.000016242
300.000022535
300.000051894
300.000100569
300.000153254
300.000179183
300.000160908
300.000113408
300.000066621
300.000037449
300.000022936
300.000014373
300.000013174
300.000014881
300.000013481
300.000013809
300.000014442
300.000645015
300.000212183
300.000072669
300.000037955
300.000053877
300.000107761
300.000176703
300.000221027
300.000207769
300.000147288
300.000081166
300.000039024
300.000020302
300.000013913
300.000010595
300.000012344
300.000014278
300.000013834
300.000013846
300.000013627
300.000966952
300.000328044
300.00012275
300.000077236
300.000109602
300.000190389
300.00026598
300.000271835
300.000204206
300.000113959
300.000049588
300.00002081
300.000011904
300.000009172
300.000009873
300.000011035
300.000017631
300.000013625
300.00001345
300.000012849
300.001291242
300.000451232
300.000189243
300.000144433
300.000201132
300.000298075
300.000347283
300.000289589
300.000174151
300.000076806
300.00002697
300.000010747
300.000008128
300.000007775
300.000008899
300.000009757
300.000018436
300.000013202
300.000012918
300.000012164
300.001554774
300.000570494
300.000279994
300.000254399
300.00033783
300.000422286
300.000402024
300.000272975
300.000132548
300.000046996
300.000013755
300.000005745
300.000005979
300.00000712
300.000007996
300.000015064
300.000022623
300.000013428
300.000012726
300.000011732
300.001734474
300.000692259
300.0004128
300.000424574
300.000520568
300.000547126
300.000420275
300.000231773
300.000092659
300.000027293
300.000006823
300.000003185
300.000004421
300.00000622
300.000007239
300.000023195
300.000023477
300.000014201
300.000013261
300.000011722
300.001863462
300.000842922
300.000611952
300.000665884
300.00073512
300.000651873
300.00040616
300.0001795
300.000059613
300.000014928
300.000003163
300.000001566
300.000003827
300.000005442
300.000017874
300.000043185
300.000028245
300.000019651
300.000016727
300.000013069
300.002003768
300.001057262
300.000897027
300.000968298
300.000946279
300.000713419
300.000371177
300.000130224
300.000036146
300.00000791
300.000001458
300.000000608
300.000009595
300.000004976
300.000029962
300.000054411
300.000047672
300.00002006
300.000016636
300.000011142
300.002208985
300.001364174
300.001268717
300.001291878
300.00110297
300.000710973
300.000315882
300.000091311
300.000020991
300.000004114
300.00000054
300.00000044
300.000006632
300.000004649
300.000028285
300.000041959
300.000046832
300.000017379
300.000015153
300.000008912
300.002507311
300.001774415
300.00169798
300.001571351
300.001155238
300.000632039
300.000240018
300.000060454
300.000012367
300.000002197
300.000000439
300.000002375
300.000002806
300.000006129
300.000023377
300.000026666
300.000028163
300.000011762
300.000011335
300.00000869
300.002903923
300.002272193
300.002120346
300.001731812
300.001075153
300.000487066
300.000153311
300.000033956
300.00000658
300.00000099
300.000001689
300.000069975
300.000002777
300.000048475
300.000020642
300.000016469
300.000014858
300.000009629
300.000009491
300.000008379
300.003393472
300.002807193
300.002445237
300.00171926
300.000879851
300.00031799
300.00007952
300.000015507
300.000002834
300.000001323
300.000013265
300.000044138
300.00000293
300.000063712
300.000017743
300.000011399
300.00000957
300.00000878
300.000008782
300.000008162
300.003955758
300.00329389
300.002586042
300.001533169
300.000631957
300.000176069
300.000034663
300.000006247
300.00000119
300.000001408
300.000064873
300.000001023
300.000058158
300.000062683
300.000015509
300.000009105
300.000008257
300.000008462
300.000008499
300.000008002
300.004529669
300.003625073
300.002499718
300.001229075
300.000399629
300.000082998
300.000013493
300.000002583
300.000003064
300.000056032
300
300.000042178
300.000112166
300.000051254
300.000013155
300.000008132
300.000007974
300.000008319
300.000008366
300.000007902
300.005018617
300.003721454
300.002213346
300.00089262
300.000224659
300.000032871
300.000004993
300.000001484
300.000004925
300.00001312
300.00000003
300.000044323
300.000150075
300.000038708
300.000010627
300.000007781
300.000007877
300.000008253
300.000008301
300.00000785
300.005330256
300.003575951
300.001825942
300.000610268
300.000120068
300.000011568
300.00000215
300.000001795
300.000031715
300
300.000000053
300.000043158
300.000135293
300.000028282
300.000009119
300.000007647
300.00000789
300.000008266
300.000008303
300.000007846
300.005430362
300.003270922
300.001446613
300.000407977
300.000062341
300.000004537
300.000001089
300.000012577
300.000047687
300
300.000000185
300.000066163
300.000090705
300.000019406
300.000008691
300.000007678
300.000008012
300.000008379
300.000008391
300.000007907
300.005356369
300.002901851
300.001122338
300.000266991
300.000030211
300.000001492
300.000002279
300.000034007
300.000038369
300
300.000000248
300.000083204
300.000054272
300.000012979
300.000007951
300.000007773
300.000008243
300.000008596
300.000008569
300.00000804
300.005180633
300.002537575
300.000865915
300.00017296
300.000013767
300.000000574
300.000012204
300.000045358
300.000005432
300.000009503
300.000008598
300.000064736
300.000031573
300.000010027
300.000007863
300.000008063
300.000008583
300.000008902
300.000008828
300.000008243
300.004987713
300.002233003
300.000684524
300.000118766
300.00000687
300.00000265
300.000022391
300.000049864
300.000014178
300.000019863
300.000013856
300.000042688
300.000017866
300.000009586
300.000008206
300.000008478
300.000008987
300.000009267
300.000009141
300.000008495
300.004874554
300.002029797
300.000569604
300.00008905
300.000004265
300.000006004
300.000027136
300.000051353
300.000029927
300.000037988
300.000032736
300.000030891
300.000015173
300.000009914
300.00000874
300.000008915
300.000009377
300.000009626
300.000009458
300.00000876
300.00491867
300.001938108
300.000511088
300.000076187
300.000003595
300.000008026
300.000027303
300.000051428
300.000048253
300.000049272
300.000051252
300.000038432
300.000019486
300.000011987
300.000009732
300.000009405
300.000009706
300.000009933
300.000009729
300.000008988
300.00519711
300.001975404
300.000507873
300.000077736
300.000004016
300.000007737
300.000023622
300.000047699
300.000072511
300.000041901
300.000059263
300.000041578
300.000024112
300.000014944
300.000011333
300.00001015
300.000010061
300.000010196
300.00000997
300.000009145
300.005785859
300.002173832
300.000571616
300.000097751
300.000006835
300.000005241
300.000017401
300.000036947
300.000071975
300.000048375
300.000059093
300.000039586
300.000025176
300.00001687
300.00001291
300.000011073
300.00001044
300.000010386
300.000010195
300.000009208
300.006754938
300.002575916
300.000722931
300.000148503
300.000017658
300.00000272
300.000010806
300.000023939
300.000050601
300.000067312
300.000054534
300.0000336
300.000022239
300.000016554
300.000013591
300.000011711
300.000010678
300.000010394
300.000010226
300.000009133
300.008141853
300.003212326
300.000982881
300.000244935
300.000047078
300.000007597
300.000004534
300.000014469
300.000030664
300.000062484
300.000043341
300.000022999
300.000014951
300.000013593
300.000012776
300.000011398
300.000010385
300.000010047
300.000009887
300.000008909
300.009930537
300.0040737
300.00135306
300.000394452
300.000101879
300.000024164
300.000005686
300.00000538
300.000017584
300.000043196
300.000028723
300.000010672
300.000004824
300.000008275
300.000010371
300.000010038
300.000009493
300.000009351
300.000009305
300.000008601
300.012071156
300.005112129
300.001811598
300.000590735
300.000176518
300.000050159
300.00001309
300.000003468
300.00000462
300.000025715
300.000014458
300.000001803
300.000002987
300.000004449
300.000008342
300.000009114
300.00000888
300.00000882
300.000008819
300.000008272
300.014538766
300.006290695
300.002334094
300.000815694
300.000260886
300.000078809
300.000022175
300.000005059
300.000000899
300.000006781
300.000004759
300.000000637
300.000002432
300.000003933
300.000007629
300.000008672
300.000008443
300.00000836
300.000008345
300.00000794
300.017297426
300.00755013
300.002899825
300.001053493
)
;

boundaryField
{
    emptyPatch
    {
        type            empty;
    }
    minY
    {
        type            calculated;
        value           nonuniform List<scalar> 0();
    }
    maxY
    {
        type            calculated;
        value           nonuniform List<scalar> 0();
    }
    maxX
    {
        type            calculated;
        value           nonuniform List<scalar> 
37
(
300
300
300
300
300
300
300
300
300
300
300
300
300
300
300
300
300
300
300
300
300
300
300
300
300
300
300
300
300
300
300
300
300
300
300
300
300
)
;
    }
    water_to_heater
    {
        type            calculated;
        value           nonuniform List<scalar> 
60
(
795.93052932
795.944829546
795.941065557
795.953892558
795.952492424
795.960776126
795.958085687
795.944972854
795.901041193
795.913527704
795.893512776
795.915896323
795.917649876
795.942665949
795.943549538
795.968977201
795.979218926
796.001409794
796.120612182
796.113674749
796.160813584
796.13638603
796.140852093
796.106410662
796.061807594
796.066877273
796.024715438
796.043777534
796.029308221
796.049295651
796.044556786
796.065631715
796.059590768
796.080808285
796.06557113
796.086464761
796.071647
796.088889671
796.088058117
796.128285247
796.143535214
796.138749151
796.109671071
796.101786476
796.067654097
796.058535397
796.057551044
796.050548516
796.047466433
796.04470096
796.141537519
796.127266824
796.217887173
796.182343756
796.193178053
796.147346398
796.148736396
796.105088323
796.104450402
796.049328654
)
;
    }
    procBoundary1to0
    {
        type            processor;
        value           nonuniform List<scalar> 
41
(
346.060548949
315.595970533
305.954714043
302.548238124
301.37474571
300.976224942
300.812026919
300.708790771
300.623279277
300.545229192
300.471529494
300.402135034
300.338266031
300.279106636
300.224241604
300.174489909
300.130616192
300.093294231
300.062682137
300.038268608
300.000346763
300.000106239
300.000030213
300.000007098
300.000000222
300.000000786
300.000000339
300.000000142
300.000001904
300.000003464
300.000007432
300.000008154
300.000007943
300.0000079
300.00000792
300.000007592
300.020213901
300.008860118
300.003500578
300.000346763
300.001294066
)
;
    }
    procBoundary1to3
    {
        type            processor;
        value           nonuniform List<scalar> 
41
(
300.518361702
300.422238661
300.35255246
300.294279138
300.239834944
300.185752029
300.130924624
300.079964213
300.04103174
300.017702127
300.006603834
300.002170709
300.000592375
339.912654119
313.68810489
305.348587876
302.480503835
301.375925996
300.887230891
300.643193793
300.643193793
300.000101478
300.000007218
300.000000491
300
300
300
300
300
300.00000412
300.000009168
300.000013469
300.000016709
300.000018991
300.00002063
300.000021688
300.000022183
300.000022059
300.000021425
300.000020338
300.000019162
)
;
    }
}


// ************************************************************************* //
