/*--------------------------------*- C++ -*----------------------------------*\
| =========                 |                                                 |
| \\      /  F ield         | OpenFOAM: The Open Source CFD Toolbox           |
|  \\    /   O peration     | Version:  2312                                  |
|   \\  /    A nd           | Website:  www.openfoam.com                      |
|    \\/     M anipulation  |                                                 |
\*---------------------------------------------------------------------------*/
FoamFile
{
    version     2.0;
    format      ascii;
    arch        "LSB;label=32;scalar=64";
    class       volVectorField;
    location    "0.835/water";
    object      U.gas;
}
// * * * * * * * * * * * * * * * * * * * * * * * * * * * * * * * * * * * * * //

dimensions      [0 1 -1 0 0 0 0];

internalField   nonuniform List<vector> 
1503
(
(0.0646187424043 0.321992651779 0)
(0.109067209605 0.203048755898 0)
(0.103183863861 0.178117764705 0)
(0.113068257872 0.160553129612 0)
(0.111127511393 0.155195302795 0)
(0.111942447902 0.151417254683 0)
(0.101270961966 0.149341865274 0)
(0.0853744241716 0.155665161116 0)
(0.0803108573996 0.239575415171 0)
(0.0768392316837 0.280408571813 0)
(0.0682587375256 0.283419475693 0)
(0.0617300064463 0.284395896348 0)
(0.0555171467889 0.285361229133 0)
(0.0497314874695 0.286286097792 0)
(0.0442872398376 0.287172829204 0)
(0.0391293953336 0.288010979286 0)
(0.034197082067 0.288790834846 0)
(0.0294216468737 0.289505238616 0)
(0.0247356942868 0.290147238215 0)
(0.0200934248395 0.29070709214 0)
(0.0254803534573 0.663144247179 0)
(0.070753679923 0.457991901859 0)
(0.0899509762695 0.401020139984 0)
(0.0958938909547 0.367215405818 0)
(0.102734569877 0.353061708161 0)
(0.103842647016 0.345163648712 0)
(0.102185243219 0.341117652145 0)
(0.094006619313 0.348451793548 0)
(0.0677359780371 0.460090218839 0)
(0.0341796367045 0.520956264031 0)
(0.0195954276394 0.521825107843 0)
(0.0169050926252 0.521756287216 0)
(0.0148166029107 0.521811241992 0)
(0.0129336450818 0.521922209578 0)
(0.0111869390086 0.522086385304 0)
(0.00954489454973 0.52229688463 0)
(0.00799729487215 0.522544718185 0)
(0.00653870180943 0.522819094579 0)
(0.00516234879152 0.523106906413 0)
(0.003865811537 0.523393368443 0)
(0.0289649571907 0.756427273616 0)
(0.0669454484403 0.565954182023 0)
(0.0782689299589 0.48869850156 0)
(0.0840319752659 0.44985527386 0)
(0.0889733527034 0.428713982982 0)
(0.0910019603819 0.417145097139 0)
(0.0910099368869 0.410631806553 0)
(0.0875805824373 0.409903232818 0)
(0.0743020426938 0.449428872793 0)
(0.0426486647533 0.485390322518 0)
(0.0177634877808 0.485988962045 0)
(0.0135805460314 0.484340144777 0)
(0.0124444455332 0.482848908143 0)
(0.0113246714295 0.481505749331 0)
(0.0102180020372 0.480282770714 0)
(0.00908636004367 0.479186269726 0)
(0.00790899193464 0.478228602997 0)
(0.00668433503893 0.477418396213 0)
(0.00542348835804 0.476759097287 0)
(0.00415790859103 0.476252860542 0)
(0.0402345262011 0.865398257411 0)
(0.0839596382188 0.668984626226 0)
(0.0882421634614 0.564785332485 0)
(0.0897642936495 0.512885559934 0)
(0.0899548827482 0.484075977333 0)
(0.0883255820569 0.466450841164 0)
(0.0857251225597 0.455132449124 0)
(0.0817988622896 0.449255205389 0)
(0.0744234937696 0.464167264497 0)
(0.0518158461249 0.487771597099 0)
(0.0219504454779 0.494232495561 0)
(0.00931459330794 0.493091999572 0)
(0.00860312434809 0.492002793805 0)
(0.00799302300749 0.491019951154 0)
(0.00734922752558 0.490085882587 0)
(0.00667205730508 0.489195301923 0)
(0.0059367181488 0.488366874924 0)
(0.00512637024091 0.487626576236 0)
(0.00424085672227 0.486999022819 0)
(0.00331081850639 0.486505505215 0)
(0.0477243794025 0.91928373234 0)
(0.0985756509771 0.750513788841 0)
(0.100788981131 0.628154680302 0)
(0.0993130783042 0.561486911356 0)
(0.0969608767996 0.524284506427 0)
(0.0926647613536 0.501063468783 0)
(0.0871599222173 0.485396660373 0)
(0.0809064583781 0.475149194348 0)
(0.0734446713296 0.476789319927 0)
(0.0599475760941 0.487148780558 0)
(0.0310510134149 0.493517678164 0)
(0.00891967937327 0.492795538379 0)
(0.0062236468689 0.491867683792 0)
(0.00583781110039 0.491038750542 0)
(0.00539728268171 0.490257956393 0)
(0.00493322131548 0.489499622442 0)
(0.00443287119122 0.48876978815 0)
(0.00387480735147 0.4880912095 0)
(0.00324858157318 0.487492457735 0)
(0.00257680846638 0.487002246833 0)
(0.052713231233 0.94467826063 0)
(0.10815742613 0.806809425529 0)
(0.10901512241 0.685080406012 0)
(0.105949983888 0.603664292987 0)
(0.103002088354 0.55720839685 0)
(0.0985620998593 0.52814195163 0)
(0.092176121874 0.508281758844 0)
(0.0841763963628 0.494300805285 0)
(0.0752447145567 0.488468030543 0)
(0.0644982928484 0.490330444405 0)
(0.0403487252468 0.493709767784 0)
(0.0135618237002 0.493584699762 0)
(0.0046930798092 0.492775251288 0)
(0.00443714877612 0.492068650514 0)
(0.00413879543707 0.491434510095 0)
(0.00380261714754 0.490828778542 0)
(0.00343483518242 0.490242010847 0)
(0.00302138567898 0.48968652893 0)
(0.00255098713282 0.489185725793 0)
(0.0020430869121 0.488766816131 0)
(0.0537281305498 0.953122480718 0)
(0.109916041499 0.840431041018 0)
(0.110761660549 0.730931205787 0)
(0.107428237768 0.64303768136 0)
(0.104400855005 0.585990757221 0)
(0.101270626916 0.550825005158 0)
(0.096304214809 0.526772593044 0)
(0.0887148873561 0.509326291403 0)
(0.0792095764904 0.498508445882 0)
(0.0684540195536 0.494425236934 0)
(0.0517208149361 0.494136702412 0)
(0.0231095114326 0.493999739014 0)
(0.00460464735063 0.493155071337 0)
(0.00362485295652 0.492555296858 0)
(0.00347729712429 0.492057373207 0)
(0.00325003065873 0.49159874382 0)
(0.00296955665766 0.491156711649 0)
(0.00263530960164 0.49073318948 0)
(0.00224249986548 0.490344345331 0)
(0.00181271470072 0.490014050949 0)
(0.0520420687245 0.958079456435 0)
(0.106366928114 0.859843339651 0)
(0.107700305049 0.763375326876 0)
(0.105121614315 0.678738525538 0)
(0.102564681698 0.613465225871 0)
(0.100801166982 0.571379147171 0)
(0.0980380769501 0.54311126214 0)
(0.0924164853418 0.522206714349 0)
(0.0837133501109 0.507424140897 0)
(0.073158324831 0.498967160256 0)
(0.0603688731494 0.495385686228 0)
(0.0343590980431 0.494216317856 0)
(0.00957921526249 0.493103217798 0)
(0.00358180082039 0.492789632066 0)
(0.0035363002173 0.492494287091 0)
(0.00336160394301 0.492226675106 0)
(0.0030980429417 0.491959515356 0)
(0.0027620615144 0.491688863187 0)
(0.00236120792054 0.491427380053 0)
(0.00191862835412 0.491195515962 0)
(0.0521703812555 0.961573153074 0)
(0.107421985874 0.871119314702 0)
(0.10856589082 0.786175837255 0)
(0.105057976977 0.70856933314 0)
(0.102341502547 0.641887982808 0)
(0.100812620905 0.592559221098 0)
(0.0995081367345 0.559574026761 0)
(0.0958892638985 0.534932617149 0)
(0.0886517278006 0.516380000039 0)
(0.0787259849621 0.504142979567 0)
(0.0672047260863 0.497609230988 0)
(0.0492357658956 0.494846962574 0)
(0.0216007724692 0.493361067973 0)
(0.00530856472306 0.492986502201 0)
(0.00468767000147 0.492932677367 0)
(0.004367853131 0.49288478948 0)
(0.00395093964882 0.492805714163 0)
(0.00346573178208 0.492690114458 0)
(0.00292461356771 0.492548792667 0)
(0.00234850702024 0.492400650406 0)
(0.0516351551958 0.961636315546 0)
(0.107249474403 0.875962482847 0)
(0.109097578102 0.80154976455 0)
(0.105820167059 0.732572771174 0)
(0.103768388504 0.670162052996 0)
(0.102497245514 0.616971933854 0)
(0.101605699101 0.578187292081 0)
(0.0992190073084 0.549387243035 0)
(0.0935039297241 0.526883422455 0)
(0.0845047525822 0.51087041802 0)
(0.0738923966372 0.501440194576 0)
(0.0607684067982 0.496841857557 0)
(0.0350063301147 0.494685796053 0)
(0.0121477472939 0.493494533924 0)
(0.00703434786876 0.493847240541 0)
(0.00627904409759 0.49396726828 0)
(0.00547427783338 0.49402003423 0)
(0.00464578712256 0.493999022021 0)
(0.00380248468615 0.493915912834 0)
(0.00296664909055 0.493793538513 0)
(0.0500125521174 0.96158910649 0)
(0.105336309806 0.877385889 0)
(0.109067668955 0.811593233748 0)
(0.107013027177 0.752123857437 0)
(0.105964050262 0.696945545239 0)
(0.104779727618 0.645032428174 0)
(0.103524734348 0.600612263733 0)
(0.10156183931 0.566940915815 0)
(0.0971581006608 0.540207935214 0)
(0.0893918377512 0.520194682503 0)
(0.0795562326497 0.507528579425 0)
(0.0682814817125 0.500738697142 0)
(0.0490492606349 0.497563280733 0)
(0.0235358216992 0.495618202222 0)
(0.0102455359841 0.495782203338 0)
(0.00862467293817 0.495908719886 0)
(0.00720217328552 0.495929953 0)
(0.00586138782972 0.49585406958 0)
(0.00460269077728 0.495697341415 0)
(0.00343542179429 0.495487035331 0)
(0.0474294917811 0.966020966897 0)
(0.10147412237 0.879544377267 0)
(0.107397520507 0.820156193668 0)
(0.106902548477 0.770270939567 0)
(0.106760552641 0.723638658169 0)
(0.105680094362 0.675702366741 0)
(0.103985297311 0.627745006486 0)
(0.101877848443 0.588145853884 0)
(0.0983865326911 0.557058022981 0)
(0.0919533824474 0.53284703319 0)
(0.0828341459827 0.516323804444 0)
(0.0723906675876 0.506781056199 0)
(0.0582620877398 0.501986479861 0)
(0.0333173842749 0.500473619144 0)
(0.0141797780827 0.499191035716 0)
(0.0101743932883 0.499007846197 0)
(0.00809658237994 0.49871245531 0)
(0.0062611962197 0.498342773619 0)
(0.00463593109985 0.497916247624 0)
(0.00320369250829 0.497459624314 0)
(0.0443541837353 0.980682558827 0)
(0.0960323677923 0.888063919478 0)
(0.103045565664 0.831955487129 0)
(0.103121949719 0.789999512106 0)
(0.103243173766 0.751318290778 0)
(0.102292172068 0.707562314281 0)
(0.100611316085 0.658013166644 0)
(0.0986445479501 0.612117402062 0)
(0.0958963695967 0.576682683002 0)
(0.0905385522612 0.548229521556 0)
(0.0820825721653 0.527319342964 0)
(0.0720244993864 0.514214851227 0)
(0.0599726664134 0.506893858055 0)
(0.0377109438876 0.504812606311 0)
(0.0163246655873 0.503758977489 0)
(0.00904876279259 0.50307044812 0)
(0.0066992920895 0.502110881845 0)
(0.00473043515999 0.501184052045 0)
(0.00306582275855 0.50029042883 0)
(0.00165953414838 0.499445839318 0)
(0.0456442970261 1.00524356175 0)
(0.0984023851283 0.907418389653 0)
(0.102858871369 0.852038897318 0)
(0.0991856832115 0.814457675903 0)
(0.0971971171935 0.780744184074 0)
(0.0955319965089 0.739118556673 0)
(0.0941246897544 0.688193295071 0)
(0.0925601125575 0.636926959934 0)
(0.0900874269564 0.596540372106 0)
(0.0851503848457 0.563901600167 0)
(0.0770275703219 0.538446718321 0)
(0.0667968434611 0.521218087612 0)
(0.0551535400154 0.510813589574 0)
(0.0384671937225 0.506074267425 0)
(0.0162875499704 0.509878599058 0)
(0.00355588250249 0.506993694193 0)
(0.00178529826034 0.505182053842 0)
(0.000430240322385 0.503571569019 0)
(-0.000654748514973 0.502148069345 0)
(-0.00152898235559 0.50089927658 0)
(0.0489992021104 1.03710075596 0)
(0.102051825479 0.937327474462 0)
(0.10082130428 0.880700551258 0)
(0.0922175333632 0.843612571701 0)
(0.087111409718 0.809997754626 0)
(0.0850355843293 0.766868515961 0)
(0.0847172654316 0.713907876911 0)
(0.0839834913121 0.659158405161 0)
(0.0816862225069 0.613009891282 0)
(0.0770838551909 0.576005545152 0)
(0.0693753243482 0.546329613005 0)
(0.0589941951263 0.525098804606 0)
(0.0474910079544 0.511526487908 0)
(0.0342067891655 0.50411626638 0)
(0.0111847648502 0.507899420134 0)
(-0.00559394270224 0.50881051983 0)
(-0.00671282982456 0.5063340642 0)
(-0.00648776621759 0.504277455018 0)
(-0.00624440947047 0.502558282005 0)
(-0.00601777116262 0.501128685245 0)
(0.0504195116331 1.07207718167 0)
(0.0990375071271 0.969487190937 0)
(0.0904940288193 0.909505616299 0)
(0.0794988340918 0.869808186786 0)
(0.0738960807434 0.832000550906 0)
(0.0733018037916 0.784740885432 0)
(0.0749772949053 0.729834469676 0)
(0.0758221013882 0.673851139545 0)
(0.0745427736144 0.623421646494 0)
(0.070861224114 0.581892148256 0)
(0.0641834617655 0.548670430548 0)
(0.0541364840895 0.524143154287 0)
(0.0420771097463 0.507962986371 0)
(0.0296804638947 0.498602648854 0)
(0.0131313296542 0.496973694613 0)
(-0.00770929666594 0.506148515446 0)
(-0.0167747437042 0.503977173777 0)
(-0.0142326187817 0.502205470866 0)
(-0.0121882130874 0.500788425087 0)
(-0.0105482607877 0.499660734877 0)
(0.0480639782875 1.09889429474 0)
(0.0916074923984 0.995054256923 0)
(0.081302063003 0.931369672814 0)
(0.0720621770993 0.887625865918 0)
(0.0680517274077 0.844167100783 0)
(0.0688932847339 0.792518949446 0)
(0.0718677673009 0.736318593848 0)
(0.0741990985571 0.680615155306 0)
(0.0745773041811 0.629144597968 0)
(0.0723800850521 0.584562174942 0)
(0.0668765419394 0.548295811874 0)
(0.0575042399118 0.520885472088 0)
(0.0449649376387 0.502282089943 0)
(0.0321436403347 0.491422084345 0)
(0.0194215906288 0.487346601232 0)
(-0.00458054788221 0.494260740341 0)
(-0.0216169527346 0.497995389481 0)
(-0.0194477101971 0.497412478524 0)
(-0.0159524414488 0.497002006254 0)
(-0.0132073028214 0.4967075991 0)
(0.0462897490832 1.11811393532 0)
(0.0889487299513 1.0155165154 0)
(0.080651320576 0.949103785002 0)
(0.0733922693195 0.9011858175 0)
(0.0707057299352 0.852673637339 0)
(0.0723183616965 0.797486349675 0)
(0.0761462991063 0.74034161839 0)
(0.0798208523661 0.685188953936 0)
(0.0817738258584 0.634263425079 0)
(0.0808933398411 0.589223738614 0)
(0.076079559802 0.551102402756 0)
(0.0670950919169 0.520550169351 0)
(0.0548896235906 0.498825736289 0)
(0.0415749968626 0.485834416408 0)
(0.0293913519001 0.480410692949 0)
(0.0139135255799 0.481245125856 0)
(-0.00864026526524 0.490653745075 0)
(-0.0191584181265 0.491557381098 0)
(-0.0153233588273 0.492476697201 0)
(-0.0123939244216 0.493268914459 0)
(0.0475486759619 1.13237962124 0)
(0.0926929421845 1.03122380653 0)
(0.0852513432436 0.965452661886 0)
(0.077797283939 0.914393568181 0)
(0.0755301097113 0.861687914565 0)
(0.0777408518268 0.803826747594 0)
(0.0823474326276 0.74601023519 0)
(0.0870400619279 0.691290774883 0)
(0.0904430352916 0.641174620044 0)
(0.09100169505 0.597366961095 0)
(0.0866462432409 0.559458524435 0)
(0.077531284142 0.526377729613 0)
(0.0660304525158 0.500840175173 0)
(0.0537579213752 0.484678042945 0)
(0.0428287066083 0.477493367123 0)
(0.0320279482065 0.476283185714 0)
(0.00801719401847 0.482106083808 0)
(-0.0103478876787 0.486820491387 0)
(-0.00968039316807 0.488912904318 0)
(-0.00770349389816 0.49064209787 0)
(0.047235555833 1.13846525588 0)
(0.0928670642185 1.03901203456 0)
(0.0864691591143 0.977193482057 0)
(0.0796510417774 0.925301878562 0)
(0.0781023598295 0.869749019028 0)
(0.0809653561888 0.810248819669 0)
(0.0864157030247 0.752408223047 0)
(0.0925628374198 0.698630217179 0)
(0.0978796401649 0.650511246127 0)
(0.0998162869179 0.609146708347 0)
(0.0959010306449 0.572353532444 0)
(0.0865571709842 0.538429188615 0)
(0.0751602342017 0.509221809091 0)
(0.0643144812667 0.489372757049 0)
(0.0548669057921 0.479431889529 0)
(0.0461598541444 0.476665416196 0)
(0.0289209955714 0.477570032463 0)
(0.00787265515044 0.484573290376 0)
(-0.0002514212281 0.487597809842 0)
(-9.14366958893e-05 0.489826344094 0)
(0.0460856987464 1.14192384613 0)
(0.09139472645 1.04205652498 0)
(0.0859651092632 0.983992585102 0)
(0.0797663021611 0.93265681772 0)
(0.0790654371576 0.875746359815 0)
(0.0828277999733 0.81578307453 0)
(0.0897759295704 0.758902018028 0)
(0.0981051056692 0.707413689584 0)
(0.104963209577 0.663216631222 0)
(0.107000812 0.62489348471 0)
(0.102946481085 0.589027727346 0)
(0.0934581072716 0.555181436964 0)
(0.0818037622664 0.523345812699 0)
(0.0717245816491 0.499812151628 0)
(0.0636601497001 0.486323573522 0)
(0.0565230853543 0.481485555415 0)
(0.0451380319643 0.480676096665 0)
(0.024252267641 0.486046846295 0)
(0.010352138509 0.489029425042 0)
(0.00849028838504 0.49122526493 0)
(0.043652872099 1.15004554613 0)
(0.0869933602563 1.04574094718 0)
(0.0827437241621 0.988795120838 0)
(0.0782709802133 0.937542360523 0)
(0.0795668780161 0.880352163236 0)
(0.0854046740637 0.821198097339 0)
(0.0946491758608 0.766417980331 0)
(0.104268195434 0.71904978176 0)
(0.110510952981 0.679779196326 0)
(0.111943930331 0.64423973026 0)
(0.108115547468 0.609323486646 0)
(0.0985873488649 0.575699029487 0)
(0.0865128861468 0.54245502277 0)
(0.0764366542188 0.515158238687 0)
(0.0690564366844 0.497489995441 0)
(0.0628844715151 0.489650622582 0)
(0.0541247847292 0.487223930862 0)
(0.0349472344342 0.49106051404 0)
(0.0195884059503 0.49298243246 0)
(0.0158350110853 0.494659898304 0)
(0.0401861164611 1.17211292405 0)
(0.0804281655789 1.05553276124 0)
(0.07759458243 0.993760525628 0)
(0.0756884396753 0.940492648513 0)
(0.0799961228122 0.883962242763 0)
(0.0886344440343 0.827179933165 0)
(0.0995636239226 0.775927607141 0)
(0.108654986584 0.734208119355 0)
(0.113517534121 0.699359893683 0)
(0.11472330995 0.666384762962 0)
(0.1115631215 0.632842334594 0)
(0.102502638418 0.600200225698 0)
(0.089684533766 0.566298880232 0)
(0.0786118982311 0.534431112807 0)
(0.0711960083074 0.511845516261 0)
(0.0650388301708 0.500003151787 0)
(0.0567123940898 0.495247498105 0)
(0.0394916371505 0.496795446209 0)
(0.0249446974621 0.498763079319 0)
(0.0201741094983 0.499532002671 0)
(0.0396967910805 1.20526240064 0)
(0.0805546836967 1.07157220982 0)
(0.0784667692108 1.00082589565 0)
(0.0768338836039 0.943269585517 0)
(0.0826304255318 0.887768631214 0)
(0.0927410627854 0.834524301435 0)
(0.103342609081 0.788046576498 0)
(0.110614049167 0.751908221725 0)
(0.1149473252 0.720582693164 0)
(0.116851942655 0.689867970597 0)
(0.114749709792 0.658313459445 0)
(0.105846371818 0.628298233986 0)
(0.0909567886591 0.594047059788 0)
(0.0779191080207 0.555657517304 0)
(0.0700072827772 0.527721995628 0)
(0.0631960126458 0.510811077603 0)
(0.0540496190093 0.502815553609 0)
(0.0378543555103 0.501012288078 0)
(0.0249394995226 0.505276270059 0)
(0.0205725527389 0.504919374919 0)
(0.0403176334894 1.23748477592 0)
(0.083494787468 1.08851331282 0)
(0.083040041892 1.00978376384 0)
(0.0813564080335 0.948339017795 0)
(0.0871481253632 0.894060226803 0)
(0.0965967367862 0.844444314042 0)
(0.105472711094 0.802816949088 0)
(0.111697979006 0.77067477411 0)
(0.116406347296 0.741856828278 0)
(0.119294912464 0.712944190616 0)
(0.117942445271 0.683955551992 0)
(0.106729074737 0.656395518656 0)
(0.0888347818309 0.62198835994 0)
(0.0751833872385 0.577947411396 0)
(0.0667381358195 0.54311493647 0)
(0.0585846889799 0.520197457663 0)
(0.0480277998189 0.508227661873 0)
(0.0323016138321 0.503510356684 0)
(0.0208124027737 0.51070260686 0)
(0.0172735962211 0.509693401679 0)
(0.041048857927 1.26467685994 0)
(0.0869629575094 1.10304573174 0)
(0.088948133774 1.02003006875 0)
(0.0874736079672 0.958011828509 0)
(0.0923344276068 0.905761134857 0)
(0.0998911056389 0.858910697793 0)
(0.107063433606 0.82049684421 0)
(0.112848444904 0.790421711277 0)
(0.117823096765 0.762825902914 0)
(0.12119725492 0.735319607541 0)
(0.116390084666 0.708005058012 0)
(0.100952744545 0.679708415239 0)
(0.0850539950362 0.645537941677 0)
(0.0730820066252 0.601339277074 0)
(0.0628492904788 0.556957781113 0)
(0.0529005471505 0.527545796359 0)
(0.0410906531456 0.511081899093 0)
(0.0260352802932 0.504268615076 0)
(0.0150798726519 0.514777783193 0)
(0.0116760637877 0.513216080056 0)
(0.04111937619 1.28467356563 0)
(0.0892226913054 1.11558882813 0)
(0.0938603686141 1.03400757992 0)
(0.0924948385239 0.97584692258 0)
(0.0961058898463 0.926598961931 0)
(0.102072976933 0.880999687683 0)
(0.108128227902 0.842947251684 0)
(0.113253352136 0.812869471302 0)
(0.117361506392 0.785077818548 0)
(0.115774206821 0.757200489634 0)
(0.104856386223 0.728619004111 0)
(0.0915462886276 0.69722252878 0)
(0.0801917020753 0.66302634405 0)
(0.0688679972736 0.622500257952 0)
(0.0581291064828 0.571340975854 0)
(0.0472066267652 0.533674391431 0)
(0.0348245299005 0.512393603048 0)
(0.020281077228 0.503288503068 0)
(0.00766065596032 0.513865337946 0)
(0.00385523566318 0.515792505472 0)
(0.0414925937385 1.30275098521 0)
(0.0908458969097 1.13409778649 0)
(0.0960695514368 1.05833329753 0)
(0.0936260482706 1.00711722814 0)
(0.0958227960455 0.960257804263 0)
(0.100613687207 0.912803743178 0)
(0.105233716474 0.871580822038 0)
(0.10766937317 0.838654793885 0)
(0.10557127254 0.807617649318 0)
(0.0971426885733 0.775846651893 0)
(0.0871211940567 0.742769452634 0)
(0.0791296124332 0.70861210946 0)
(0.0710423493453 0.674383199223 0)
(0.0622121669496 0.637220934232 0)
(0.05237519396 0.586782809426 0)
(0.0413294641189 0.538880414916 0)
(0.0290805466588 0.513047367051 0)
(0.0149289796174 0.501221175395 0)
(-0.000667611107172 0.504995442176 0)
(-0.0057534547156 0.517499783392 0)
(0.0465948558396 1.32154653345 0)
(0.100363381483 1.16569187119 0)
(0.101026173227 1.10161040089 0)
(0.0914349729123 1.05883043768 0)
(0.088003453806 1.00855694145 0)
(0.0884234257514 0.952109142594 0)
(0.0883565702216 0.903448392632 0)
(0.0844639764203 0.864193611944 0)
(0.0773435178071 0.826054132723 0)
(0.0705912335185 0.786707678617 0)
(0.0665590724813 0.747656720079 0)
(0.0635523709152 0.711846136998 0)
(0.0591488562835 0.678821517933 0)
(0.0526645997726 0.644297560051 0)
(0.0447383631118 0.598431457367 0)
(0.0359875304529 0.54315458812 0)
(0.0248950766479 0.513177046553 0)
(0.0113430465381 0.498396187688 0)
(-0.00338721641654 0.495386574897 0)
(-0.0117595232722 0.518267201254 0)
(0.0525294951045 1.33149249455 0)
(0.106699476175 1.20487595256 0)
(0.0957748521462 1.16636379415 0)
(0.073686495151 1.13411352003 0)
(0.0600419549909 1.067736906 0)
(0.0542935376298 0.991849618723 0)
(0.0504378859469 0.931413221531 0)
(0.046021050765 0.883039591666 0)
(0.0431206979298 0.835352977438 0)
(0.0431655474706 0.787232613792 0)
(0.0450828256937 0.743600107315 0)
(0.0464863312102 0.706828499126 0)
(0.0456898848655 0.675339462573 0)
(0.0425231815836 0.643717486304 0)
(0.0380413494571 0.602566388957 0)
(0.0322929540634 0.546725274 0)
(0.0227537674921 0.512518462931 0)
(0.00983857375923 0.49459817028 0)
(-0.00369315928167 0.488238346173 0)
(-0.0189762246384 0.508385321257 0)
(0.0552401738211 1.32067628599 0)
(0.101991367077 1.24102873306 0)
(0.0759072911072 1.24539473041 0)
(0.0441815117204 1.2252417726 0)
(0.0232878203045 1.12892580601 0)
(0.0142468347105 1.02512784797 0)
(0.0117503574059 0.948147492 0)
(0.0127727440697 0.88874655079 0)
(0.0164275951891 0.831872440932 0)
(0.0220080873665 0.777510870797 0)
(0.0279911960564 0.732886985884 0)
(0.0323636114124 0.695889883296 0)
(0.0345092220646 0.664483613066 0)
(0.0349533056878 0.635295461585 0)
(0.0342034486226 0.599095607791 0)
(0.0311947343398 0.549008728918 0)
(0.0233226028332 0.510889025678 0)
(0.0107309943488 0.489694976067 0)
(-0.00273809724563 0.48084932079 0)
(-0.0205959487141 0.488584355429 0)
(0.0503967683117 1.30149356319 0)
(0.0852690211713 1.27781234948 0)
(0.057079033126 1.32112977209 0)
(0.0338266873843 1.31257029465 0)
(0.0143739048075 1.18974054605 0)
(0.00184477938334 1.05498662627 0)
(-0.00122063809553 0.955853205031 0)
(0.00205967028481 0.883309625819 0)
(0.00832293327662 0.819097158025 0)
(0.0156217486738 0.761818191931 0)
(0.0225995794588 0.718923008472 0)
(0.0280716408243 0.682702603271 0)
(0.0317180356645 0.650197602478 0)
(0.0342852450374 0.621640396234 0)
(0.0358303618687 0.590299657819 0)
(0.0341624135574 0.549521640301 0)
(0.0271434733234 0.509020883606 0)
(0.0148693286133 0.484170440161 0)
(0.0013134201507 0.472962871018 0)
(-0.0126897533125 0.472819349779 0)
(0.0422621191444 1.31083135885 0)
(0.0720909169589 1.32495930677 0)
(0.0564706153001 1.36828100213 0)
(0.049319820824 1.36938925807 0)
(0.035263969212 1.25747877119 0)
(0.0194474543607 1.09237025482 0)
(0.0129443424573 0.966732047769 0)
(0.014084636425 0.878437370857 0)
(0.0190063634805 0.807054962461 0)
(0.025101943575 0.748149645439 0)
(0.0312604466862 0.70681251874 0)
(0.0366164800529 0.671636505807 0)
(0.040332809398 0.638104254405 0)
(0.0428857626585 0.608492499792 0)
(0.044304606467 0.580313769519 0)
(0.0419788809465 0.549123218555 0)
(0.0343607137734 0.509227029403 0)
(0.0221631451074 0.479147109664 0)
(0.00865762775413 0.465002894349 0)
(-0.00369298133673 0.461927934198 0)
(0.0416634019939 1.34920961638 0)
(0.0774105710053 1.36348402495 0)
(0.0686180623969 1.3880542706 0)
(0.063218123481 1.39395900334 0)
(0.0544725768639 1.31907738729 0)
(0.0425549731811 1.13734432379 0)
(0.0353489814569 0.986173868304 0)
(0.0350080988471 0.881450137352 0)
(0.0385090785899 0.802594360484 0)
(0.0433685334175 0.741854303078 0)
(0.0485711656494 0.700787548956 0)
(0.0533298872046 0.666036536044 0)
(0.0565176975633 0.631723339148 0)
(0.0581111532193 0.600426859541 0)
(0.0580512419023 0.573114680741 0)
(0.0539629684515 0.549358543105 0)
(0.0444162087856 0.513377559591 0)
(0.0316909617919 0.475856462136 0)
(0.0183457602985 0.458095464292 0)
(0.00609847535717 0.453443834844 0)
(0.045015453561 1.38335086725 0)
(0.0843867071621 1.38243132224 0)
(0.075802861226 1.39747178125 0)
(0.0704010077731 1.40380629494 0)
(0.0646815608979 1.35536054821 0)
(0.0576812816536 1.17697129554 0)
(0.053278123269 1.00803488858 0)
(0.0541030237866 0.890272557659 0)
(0.0579773458025 0.805305318437 0)
(0.0627541668484 0.743033619778 0)
(0.0674820339334 0.701652586803 0)
(0.0716696162674 0.666730602409 0)
(0.074364585175 0.631883010844 0)
(0.0751333482005 0.59906525562 0)
(0.0735093842065 0.571190394461 0)
(0.0666724676174 0.551883461163 0)
(0.0549149347575 0.520797613615 0)
(0.0424811088393 0.476665105755 0)
(0.0300601321231 0.454216279977 0)
(0.018027564741 0.447804103484 0)
(0.0459053322865 1.40008813152 0)
(0.086823477798 1.39165458915 0)
(0.0787531693205 1.40026670385 0)
(0.0732899024394 1.40557177566 0)
(0.0686463360086 1.37038495314 0)
(0.0650778008468 1.20051086902 0)
(0.0648254146596 1.0240944396 0)
(0.068312400372 0.89956114172 0)
(0.0737214560518 0.811507665374 0)
(0.0793284350459 0.749200214244 0)
(0.0841271239857 0.707912124832 0)
(0.0879712722897 0.672780841289 0)
(0.0902950930134 0.637754766435 0)
(0.0904812760828 0.604077178261 0)
(0.0873923765041 0.575377371235 0)
(0.0786292389444 0.558526360104 0)
(0.0659496180981 0.530674341749 0)
(0.0534701384179 0.483423180649 0)
(0.0417180980099 0.454972431751 0)
(0.0309640426525 0.445738574518 0)
(0.0456389665199 1.40581326219 0)
(0.0861194852505 1.39457831374 0)
(0.0777777048648 1.39956891715 0)
(0.0723094928156 1.40247285356 0)
(0.0686085913009 1.37148580294 0)
(0.0682935493816 1.20470934974 0)
(0.0722141833536 1.02989465541 0)
(0.0786631334344 0.905536625805 0)
(0.086195503715 0.818279299826 0)
(0.0930840912032 0.758237814198 0)
(0.0980781500268 0.717824397342 0)
(0.10158465236 0.682796780301 0)
(0.103530181867 0.647921200733 0)
(0.103307706613 0.614210596179 0)
(0.0995053984525 0.585047729388 0)
(0.0899098830713 0.56937279261 0)
(0.076112509624 0.543061604205 0)
(0.0627904196244 0.495171135149 0)
(0.0517656599695 0.460413052688 0)
(0.0420803114869 0.447455241866 0)
(0.0428444426006 1.41550206071 0)
(0.080151721712 1.39952379641 0)
(0.0714439286758 1.39785150902 0)
(0.0662514832224 1.39608118845 0)
(0.0644963925293 1.35888889485 0)
(0.0685278975642 1.19034535485 0)
(0.0770969550648 1.02541908957 0)
(0.0870371198724 0.907454617603 0)
(0.0970133501216 0.824802693467 0)
(0.104942809486 0.769188247962 0)
(0.109821215461 0.730208995665 0)
(0.112907081295 0.695620334635 0)
(0.114377350794 0.661108738621 0)
(0.113770050884 0.627908718037 0)
(0.109601344249 0.598871393417 0)
(0.099343732588 0.58339943009 0)
(0.0846538118355 0.557959524746 0)
(0.0707350200005 0.510292610814 0)
(0.0601101851193 0.469918839749 0)
(0.0510719190158 0.452580698553 0)
(0.0154350830628 0.291180596176 0)
(0.0106876562716 0.291559518855 0)
(0.00581398050868 0.291825716288 0)
(0.000801255777849 0.291960959593 0)
(-0.00433965603376 0.291949053583 0)
(-0.00956337075385 0.291781576129 0)
(-0.0148072191326 0.291463666341 0)
(-0.0200174994863 0.291014065078 0)
(-0.0251712648503 0.290458553562 0)
(-0.0302816264477 0.28982159022 0)
(-0.0353956879469 0.289119717632 0)
(-0.0405997075919 0.288355932427 0)
(-0.0460315870344 0.287515230882 0)
(-0.0518550047709 0.286575679081 0)
(-0.0580806065071 0.285574169373 0)
(-0.0637209321208 0.284839212299 0)
(-0.0712707812387 0.283774131049 0)
(-0.0659922776644 0.285905256538 0)
(-0.223457883842 0.245413007099 0)
(-0.195653810894 0.267784799552 0)
(0.00264732179883 0.523676709386 0)
(0.00149877418128 0.523945264214 0)
(0.000406616723551 0.524169652014 0)
(-0.000648830124664 0.524326869527 0)
(-0.00168735600545 0.524401399368 0)
(-0.00272362170098 0.524386879097 0)
(-0.00376785563693 0.524288964183 0)
(-0.00482631938106 0.524124028998 0)
(-0.00590402443295 0.523912907703 0)
(-0.00700940615576 0.52367393248 0)
(-0.0081611000115 0.52341852829 0)
(-0.00939254330656 0.523149508738 0)
(-0.0107373689274 0.522863611712 0)
(-0.0121583607222 0.522570326438 0)
(-0.0134481177897 0.5223489028 0)
(-0.0143844555833 0.522497780688 0)
(-0.0151341919566 0.522291787332 0)
(-0.0167095080884 0.523497560607 0)
(-0.0115630780845 0.484144650349 0)
(-0.00261376887334 0.484008568453 0)
(0.00291653230164 0.47591356887 0)
(0.00170836900658 0.475739110736 0)
(0.000546171940184 0.475702623322 0)
(-0.000559960882078 0.475784856943 0)
(-0.00161065634784 0.475976539159 0)
(-0.00260739334713 0.476271445046 0)
(-0.00355113824827 0.476662443783 0)
(-0.00444363256203 0.477139749001 0)
(-0.00529135742251 0.47769114628 0)
(-0.00610883254726 0.478304259892 0)
(-0.00691691385159 0.478970558656 0)
(-0.00772562415265 0.479692120843 0)
(-0.00848669349446 0.480491065275 0)
(-0.00903264909614 0.481415388677 0)
(-0.00913469193204 0.48251162728 0)
(-0.00876437588185 0.483657116594 0)
(-0.00825055502292 0.484100466211 0)
(-0.0078220113257 0.480076799809 0)
(-0.000656434651784 0.469817841884 0)
(0.00315555672277 0.427419300522 0)
(0.00236744766314 0.486174893102 0)
(0.00141855500966 0.48601519328 0)
(0.000486698635082 0.485998218284 0)
(-0.000398990046863 0.486094916868 0)
(-0.00122830439103 0.486283588915 0)
(-0.00200032199659 0.486545241103 0)
(-0.0027180292722 0.486862165385 0)
(-0.00338891519725 0.487217633683 0)
(-0.00402607308177 0.487596503027 0)
(-0.00464590482246 0.487987515957 0)
(-0.00525844115954 0.488386676996 0)
(-0.00584533899605 0.488801469135 0)
(-0.00633101660509 0.489252817892 0)
(-0.0065919927551 0.489766991848 0)