/*--------------------------------*- C++ -*----------------------------------*\
| =========                 |                                                 |
| \\      /  F ield         | OpenFOAM: The Open Source CFD Toolbox           |
|  \\    /   O peration     | Version:  2312                                  |
|   \\  /    A nd           | Website:  www.openfoam.com                      |
|    \\/     M anipulation  |                                                 |
\*---------------------------------------------------------------------------*/
FoamFile
{
    version     2.0;
    format      ascii;
    arch        "LSB;label=32;scalar=64";
    class       volScalarField;
    location    "0.045/water";
    object      alpha.gas_0;
}
// * * * * * * * * * * * * * * * * * * * * * * * * * * * * * * * * * * * * * //

dimensions      [0 0 0 0 0 0 0];

internalField   nonuniform List<scalar> 
1496
(
0.546009581835
0.545030739043
0.620734921394
0.720190688765
0.726529014093
0.722653091089
0.639951941001
0.470204181171
0.341476805445
0.252112601904
0.188000836077
0.129554062135
0.0726646163775
0.0388579825574
0.0295286182436
0.026709175449
0.0243612415233
0.0213907076197
0.017968252811
0.0146926712365
0.543297153919
0.546009581835
0.593341944718
0.715930716279
0.727742824378
0.723267385267
0.623486052245
0.445488304773
0.32328408818
0.241650028652
0.182519023432
0.125460484897
0.0690963975892
0.0373012429327
0.0289468541634
0.0262740169167
0.0239556336433
0.0210148762547
0.0176596976646
0.0144588680793
0.546009581835
0.539933237777
0.560532850871
0.70614486951
0.729171763736
0.724076633719
0.602676797498
0.416653150587
0.303939586701
0.231784671557
0.177111134301
0.120438947812
0.0647034928062
0.0356174579048
0.0283396208556
0.0258285988031
0.0235442068517
0.0206574970492
0.0173888332188
0.0142630210389
0.539226928349
0.546009581835
0.542217168367
0.696347907428
0.730351839613
0.725647606727
0.586110039111
0.394983485786
0.290025927276
0.22521335298
0.172899767316
0.115448635635
0.0606157587733
0.034240876951
0.0277840395763
0.0254242878229
0.0232049908581
0.020404465847
0.017221407441
0.0141476209116
0.546009581835
0.535330972266
0.546009581835
0.69514704545
0.731174433509
0.727926915379
0.57820726626
0.390677800825
0.286871744488
0.223883538827
0.17178317286
0.113557032381
0.0591052645111
0.0337389963139
0.0274300166441
0.0251464572816
0.023035590376
0.0203161379705
0.0171789098769
0.0141220420175
0.537407097691
0.546009581835
0.538998250777
0.729486247916
0.732002123297
0.729305197747
0.579711215738
0.39660089463
0.290408601405
0.226198908624
0.173306498988
0.114469696823
0.0596058437827
0.0338165854044
0.0273517504759
0.0250600047323
0.023013119276
0.0203213507002
0.0171979517827
0.0141434419924
0.546009581835
0.534995356818
0.590807785568
0.73855209245
0.733758708408
0.727755001057
0.590995117046
0.419853281587
0.305904970738
0.235542169882
0.179991040424
0.11997636622
0.0629518752829
0.0345704485927
0.027390857712
0.025064259163
0.0230468126588
0.0204117745836
0.0173165787172
0.0142547162182
0.538239824359
0.554381018037
0.729490262625
0.746069758967
0.737224775217
0.722046868672
0.609542495103
0.454771656314
0.331759604398
0.250913556131
0.191154377444
0.130433985875
0.0699855022779
0.0364426826568
0.0275895383413
0.025124070211
0.0231767233757
0.0206403045436
0.01756860122
0.0144769805003
0.593787524701
0.698920452658
0.74486209316
0.73855209245
0.737030667227
0.714686714588
0.625272263411
0.485835392549
0.358283465719
0.267351897295
0.202584290978
0.141561702781
0.0786750373381
0.0392018655421
0.027968954361
0.0252546083027
0.0233853664044
0.0209555826792
0.0178992278466
0.0147650464516
0.73689823201
0.741984540567
0.73855209245
0.745999773172
0.730072639977
0.710378985876
0.635967030567
0.507759929511
0.37979909933
0.281445577397
0.211499693527
0.149775176564
0.0864468384786
0.0422747079751
0.0284192399008
0.0253954570564
0.02359970991
0.0212766789186
0.0182439850998
0.0150692779235
0.742370089683
0.73855209245
0.745523967735
0.73855209245
0.725585644023
0.708464444798
0.643035629865
0.522406152793
0.395585312006
0.291892747476
0.217093606829
0.154043946224
0.0914561834476
0.044929349199
0.028813822445
0.0254753579645
0.0237622326364
0.0215547700659
0.0185663221145
0.0153592199916
0.73855209245
0.742256511069
0.73855209245
0.745560544246
0.736749384601
0.708363267811
0.647174243509
0.53250933525
0.407115371596
0.2993272128
0.219948782369
0.155206237174
0.0934917226002
0.0466279172898
0.029086115301
0.0254868364671
0.0238403211278
0.0217665960656
0.0188452845349
0.0156179861484
0.741402613124
0.738544742621
0.74584346762
0.73855209245
0.742949685383
0.709468778036
0.649781565263
0.540677498498
0.416696286991
0.305533539277
0.222025562404
0.155752059907
0.0945403468973
0.047701036972
0.0292001484366
0.0254529504528
0.0238512285607
0.0219089640632
0.0190673633302
0.0158372128245
0.73855209245
0.741576824981
0.73855209245
0.746054572727
0.73855209245
0.711610292879
0.652537572259
0.548688727609
0.42651696465
0.312343519528
0.224665762009
0.156614739226
0.095682309002
0.0487104548148
0.0293171917178
0.0253530765089
0.0238341314692
0.0219878583641
0.0192324793254
0.0160162672339
0.739256755886
0.73855209245
0.745622798236
0.73855209245
0.743506496945
0.715586515501
0.656534363283
0.557557806371
0.438098280036
0.321253271325
0.228995256836
0.158608411672
0.0975704984131
0.0501012697494
0.0295437476607
0.0252337327247
0.023772560791
0.0220169092467
0.0193536236461
0.0161606014203
0.738108912778
0.740375595028
0.73855209245
0.745986538429
0.73855209245
0.730820112047
0.664124831421
0.567821618879
0.45204661559
0.333192603399
0.23588150896
0.162432840733
0.100730476941
0.0522599880222
0.0300016373746
0.0251451897254
0.0236827649093
0.0220206704518
0.0194456615423
0.0162781354459
0.713417293575
0.73855209245
0.744712140838
0.73855209245
0.74441553676
0.73855209245
0.678878386026
0.581348208781
0.468372305978
0.348151343625
0.245464282704
0.168200853053
0.1053056351
0.0553984882219
0.030814883128
0.0251451224511
0.0235989384715
0.0220134203921
0.0195162809835
0.0163744500958
0.649804280316
0.739569234568
0.73855209245
0.745902393394
0.73855209245
0.741696606609
0.696679744843
0.600192548121
0.486620261264
0.364969748595
0.257045136759
0.175482296609
0.11101622917
0.0594582890141
0.0320621273993
0.0252035554222
0.0235300703057
0.0219894560206
0.019563124759
0.0164471636365
0.589968824689
0.735428558373
0.744023666023
0.73855209245
0.744954253764
0.73855209245
0.713489792971
0.621161652773
0.504542139537
0.381098076068
0.268952115652
0.18335164566
0.117257169365
0.0641208224699
0.0337189333644
0.0253437314407
0.023469153114
0.0219473812164
0.0195768310184
0.0164829084126
0.571907736835
0.728360505847
0.73855209245
0.744980883618
0.73855209245
0.742321783222
0.722058868355
0.635786038543
0.516631860566
0.391723908438
0.277299853814
0.189352899795
0.122551001128
0.0684987833855
0.0354903450928
0.0255242027826
0.023403025999
0.02187976771
0.0195594223755
0.016479920225
0.571571224552
0.715055376993
0.741720528503
0.73855209245
0.744035668911
0.73855209245
0.723930707117
0.638779422449
0.51888047592
0.393549741473
0.27877426585
0.190714322935
0.124492304725
0.0707228154999
0.0365341466799
0.0256066865826
0.0233130185256
0.0217715958224
0.0194751926025
0.0164177486585
0.570173649591
0.693195246706
0.73855209245
0.743052763628
0.73855209245
0.742305219067
0.72304714111
0.63634419927
0.515627183475
0.390109478951
0.276061925596
0.189323768469
0.124095594712
0.0707681536792
0.0365949560809
0.0255635878108
0.0231756566
0.0216039106628
0.019296866196
0.0162547372587
0.571174958335
0.656212096571
0.739310770715
0.73855209245
0.742700357658
0.73855209245
0.719485736619
0.62556876581
0.501214895604
0.375068392577
0.264430938903
0.182751992048
0.12096451909
0.0692965801101
0.0359899626699
0.0253112994294
0.0229654856
0.0213611908878
0.0190139738453
0.0159852826056
0.566467798513
0.615176195076
0.727002880589
0.741012679241
0.73855209245
0.7410678479
0.710635208093
0.60375630037
0.472818337218
0.346373958673
0.243101621473
0.170178398058
0.113571692389
0.0647083522128
0.0340180419267
0.0247876423718
0.0226757139094
0.0210356295142
0.0186250721607
0.0156214279966
0.571050723165
0.578650513963
0.702497521447
0.73855209245
0.741456928197
0.73855209245
0.696177378585
0.573495928015
0.435889322571
0.31124492374
0.218510774371
0.155093277169
0.103042203529
0.0572947948764
0.0310303861541
0.0241255815556
0.0223236361779
0.0206319062219
0.0181512667777
0.0151959143493
0.564712929784
0.571050723165
0.668781996621
0.739223779224
0.73855209245
0.739626168545
0.675666533493
0.537951915972
0.396279434017
0.277179251528
0.196233546631
0.140420978004
0.091114699482
0.0487538602314
0.0281142772799
0.0234992751655
0.0219375189037
0.0201719059418
0.0176365850047
0.01475331711
0.570828880016
0.56569874095
0.629558384309
0.73455559519
0.740423764307
0.73855209245
0.646185257605
0.495697989481
0.35444870011
0.245973977313
0.176772438038
0.126077740471
0.0782371994594
0.0404872937557
0.0259157783289
0.0229707906781
0.0215378230097
0.0196872358077
0.0171243226535
0.0143262617751
0.562147047379
0.570828880016
0.584611900445
0.72663663712
0.73855209245
0.736528308921
0.603619459218
0.443312526181
0.308921408934
0.216656010324
0.158093281894
0.110396510507
0.0641917444871
0.0333931286463
0.0244542142878
0.022512394161
0.021130289309
0.019205984981
0.0166440402778
0.0139353054442
0.570367725901
0.559669277086
0.570828880016
0.720168226421
0.738943585183
0.7278654272
0.554952760372
0.388751501252
0.266841789978
0.191169189149
0.139488830167
0.0930231512446
0.0505471284166
0.0284879670471
0.023509979687
0.0220882688984
0.0207306839147
0.0187739532407
0.0162474216551
0.0136236811293
0.560107227268
0.570367725901
0.564910965847
0.727394083155
0.733724532377
0.715651497896
0.530994787568
0.365282079031
0.248981146957
0.178542800056
0.12704015022
0.0801992825721
0.0426581862944
0.0264760597351
0.0229274943938
0.0217236806522
0.0204212254992
0.0185052345357
0.016040918972
0.01347035967
0.570367725901
0.559588675263
0.600164268258
0.740329787773
0.723941387199
0.702509002596
0.536353874003
0.372266370149
0.251863884019
0.178829573323
0.125706221337
0.0780073890304
0.0416536750214
0.0262844985836
0.0227137243102
0.0215220377757
0.0203086729132
0.0184536397933
0.0160207701587
0.0134592052388
0.563023959327
0.610680489205
0.713914182355
0.744794082396
0.718415657836
0.695957947105
0.567901132959
0.417605800124
0.280609895242
0.19201805527
0.13186740065
0.0816497862912
0.0436287892394
0.0267943181627
0.0227253478442
0.0214901196223
0.0203163557222
0.0185086816605
0.0161078242347
0.0135420731695
0.666583019586
0.749262274428
0.772551003463
0.750325666052
0.718923456033
0.695901164855
0.611977835583
0.491409632839
0.343603617455
0.228486816542
0.153579885752
0.0968498481301
0.0523553278392
0.0292813582331
0.022982385143
0.0215242549892
0.0204207919524
0.0187537376324
0.0164179571603
0.0138212190902
0.802687225379
0.803544649745
0.788877038765
0.755123338016
0.724023282521
0.700168472975
0.638407312774
0.541797069154
0.40511515388
0.273911039945
0.184062833191
0.120749871506
0.0685061068715
0.0349800465631
0.023836545775
0.0216693877303
0.020635985656
0.0191576500243
0.0169064862834
0.0142603900706
0.819239264622
0.807030970626
0.792265965071
0.760609689559
0.733036421997
0.70730426436
0.651601523366
0.565359207991
0.443418933733
0.309631944617
0.209609601623
0.14183046342
0.0863128127815
0.0436027896138
0.0255536785761
0.0219313212604
0.0208407284735
0.0195270986953
0.0174025044767
0.0147360214634
0.819239264622
0.807444269838
0.793012582185
0.766691534495
0.741497291816
0.713750231068
0.662897074461
0.582511805791
0.470641122617
0.337442060714
0.229049265921
0.156334792595
0.100017121159
0.0526252041355
0.0279232261017
0.0222410140343
0.0210009711236
0.0198357365398
0.0178240924454
0.0151631853446
0.819239264622
0.807604698241
0.793176964066
0.769971115502
0.745483673998
0.717061230918
0.672149710732
0.600494486991
0.502046836306
0.3755072906
0.258190131283
0.175815410323
0.116786497963
0.0665479611515
0.0334630400864
0.0230096473438
0.0210483577888
0.0199285355178
0.0182044757233
0.0156672101728
0.00437771387126
0.00419345614698
0.00372161832352
0.00254804185487
0.000942114814936
0.000113576285214
1.18365842201e-06
3.85466249448e-15
9.46563664582e-15
1.06926327357e-14
1.04944276047e-14
9.92534329597e-15
9.42433201081e-15
9.68992405058e-15
1.17914949807e-14
1.07340348638e-14
0.0113837016014
0.00803713520016
0.0055048782767
0.00455506807828
0.00434704862698
0.00416423725608
0.00369182869748
0.00252146316715
0.000930445282661
0.000113461915399
1.18629194452e-06
3.85466250041e-15
9.37280613456e-15
1.05521066409e-14
1.03519138591e-14
9.78557263208e-15
9.32013726843e-15
9.61746667576e-15
1.16903871968e-14
1.05525168284e-14
0.0112017641757
0.00790280858868
0.00543505949313
0.00451867692785
0.00431711353447
0.0041361994575
0.00366531324878
0.00250318575255
0.000926723183181
0.000114496403225
1.21913131176e-06
3.85466249434e-15
9.29869391519e-15
1.04233200577e-14
1.02231827293e-14
9.66296228381e-15
9.22978848717e-15
9.53446027054e-15
1.15613811821e-14
1.03577730788e-14
0.0110526200136
0.00780036284877
0.00538655576337
0.00448787257002
0.00428924830876
0.00411064033307
0.00364433344897
0.00249699995487
0.000928901700881
0.000117933765395
1.31207025646e-06
3.85466250035e-15
9.23130532149e-15
1.02975689193e-14
1.00973563037e-14
9.54326745699e-15
9.1338671751e-15
9.42820951311e-15
1.14192419872e-14
1.01719378742e-14
0.0109689233741
0.00775229946955
0.00536618780073
0.00446201160263
0.00426423167461
0.0040882458298
0.00363192185664
0.00249957650014
0.000942771708793
0.000124370053408
1.4926616239e-06
3.85466249448e-15
9.14786507707e-15
1.01619243021e-14
9.95764635396e-15
9.40697681659e-15
9.01413671466e-15
9.29706198576e-15
1.14135683565e-14
9.99876467973e-15
0.010954956273
0.00775037577894
0.00536644791562
0.00444245517571
0.0042422436075
0.00406903725255
0.00362897907346
0.00251753009325
0.000974032381614
0.000134478477408
1.81148114446e-06
3.85466250019e-15
9.01089101677e-15
1.00001050559e-14
9.79070094568e-15
9.24024132899e-15
8.86202623504e-15
9.1580891056e-15
1.14113357708e-14
9.82308054313e-15
0.010982368016
0.00778826949871
0.0053885347743
0.00443853047162
0.00422321611166
0.00405282173981
0.00363045657335
0.00255737929116
0.00102306893766
0.000149317425914
2.35177335329e-06
3.85466249444e-15
8.87951986858e-15
9.82852882596e-15
9.59707796489e-15
9.04367565304e-15
8.68598859788e-15
9.02944481064e-15
1.14101754987e-14
9.62786336968e-15
0.0110975226517
0.00790767682174
0.00545441898
0.00444103252752
0.00420708585605
0.00403953149004
0.0036385406981
0.00261574625565
0.00108964351081
0.000169936869728
3.22540943978e-06
3.85466250061e-15
8.2641263127e-15
9.64721429258e-15
9.39971105294e-15
8.83966537353e-15
8.51005315836e-15
8.91358547004e-15
1.14082898874e-14
9.41097524805e-15
0.0113086628352
0.00810491396255
0.00556553386911
0.00445183676624
0.0041939684737
0.00402880863599
0.00365450168347
0.00268701344452
0.00117239617425
0.000196992893194
4.5701512611e-06
1.52041586761e-10
4.39040009474e-15
9.39409227054e-15
9.23609862029e-15
8.66679316963e-15
8.35955881794e-15
8.79938664696e-15
1.14097550506e-14
9.18347134183e-15
0.0115765705355
0.00835199053918
0.00571193407137
0.00447454612339
0.00418370208508
0.00401971944191
0.00367370462946
0.00276469822162
0.00126756879845
0.000230642349692
6.55177602988e-06
1.33742706168e-09
4.39040009621e-15
9.16373531147e-15
9.12483608168e-15
8.54867881967e-15
8.2427907017e-15
8.67495835842e-15
1.14052024235e-14
8.96464863202e-15
0.0118604586827
0.00862045223678
0.00588214434581
0.00450883507094
0.00417545572721
0.00401092657188
0.00369112690421
0.00284185682286
0.0013698907238
0.000270579986637
9.35229712603e-06
5.14252972905e-09
4.39040009474e-15
8.98471759404e-15
9.05055710198e-15
8.47034115195e-15
8.14764502148e-15
8.53872691118e-15
1.14040748517e-14
8.76981348343e-15
0.0121301409749
0.00888239507914
0.0060619687218
0.00455192157181
0.00416794156109
0.00400106034577
0.00370397315256
0.00291306850359
0.00147410270642
0.000316015002239
1.31268463951e-05
1.37305591391e-08
4.3904000962e-15
8.83755835233e-15
8.98592866596e-15
8.40385195893e-15
8.05526078416e-15
8.40546631646e-15
1.14020442854e-14
8.60140146977e-15
0.0123684461972
0.00911692397671
0.00623662354692
0.00459997361467
0.00415993031787
0.00398909114399
0.00371114211772
0.00297544370231
0.00157567311272
0.000365625631231
1.79660595429e-05
2.93791967211e-08
4.39040009441e-15
8.69675145335e-15
8.90884717605e-15
8.32760453913e-15
7.95284056086e-15
8.29439274405e-15
1.13993905269e-14
8.4557419187e-15
0.012571734765
0.00931774080221
0.00639623571763
0.00464936753399
0.00415068547424
0.00397462910374
0.00371312149376
0.00302792975548
0.00167092880825
0.000417665066472
2.38504718438e-05
5.39841926338e-08
4.39040009616e-15
8.54641115015e-15
8.80478546484e-15
8.22907611168e-15
7.84201294343e-15
8.21000997557e-15
1.12764525022e-14
8.33269815533e-15
0.0127431866563
0.00948946317271
0.00653789409594
0.00469663071229
0.00414015956516
0.00395794344696
0.00371212453016
0.00307026301846
0.00175747068577
0.000469844134679
3.05361189095e-05
8.91585169194e-08
4.39040009391e-15
8.38232077393e-15
8.6738201027e-15
8.11147372421e-15
7.73784100399e-15
8.13939312151e-15
1.10652686471e-14
8.22727625538e-15
0.0128869858312
0.0096373684336
0.00666311825729
0.00474010776936
0.00412850940246
0.00393953735459
0.00370653783257
0.0031027102808
0.00183376279616
0.000520481721889
3.78475001567e-05
1.37403772219e-07
4.39040009597e-15
8.20798216172e-15
8.53310483272e-15
7.99319492991e-15
7.65121820198e-15
8.06842792818e-15
1.08814808668e-14
8.13084432354e-15
0.0130069645713
0.00976409271082
0.00677323124633
0.00477949136871
0.00411571151443
0.00391939814594
0.00369559186908
0.00312581241092
0.0018997422415
0.000569048487358
4.56949815122e-05
2.1045842761e-07
4.39040009391e-15
8.02653558777e-15
8.40066568234e-15
7.88859824244e-15
7.5773142229e-15
7.98817352289e-15
1.07385265928e-14
8.03021507351e-15
0.0131051074952
0.00986944718648
0.00686756955846
0.00481371298716
0.00410118489592
0.00389697087664
0.00368029029971
0.00313938163204
0.00195631297558
0.000615431567844
5.39852598076e-05
3.24664323711e-07
4.3904000959e-15
7.83700180962e-15
8.27951693708e-15
7.79545332483e-15
7.50391527091e-15
7.89603596006e-15
1.06032131714e-14
7.91012233353e-15
0.0131778880012
0.00994882658274
0.00694167022854
0.00483929390851
0.00408372842138
0.00387151266767
0.00366071321116
0.00314342817504
0.00200373604274
0.000659016947674
6.25452732592e-05
4.8143081665e-07
4.39040009382e-15
7.63785818896e-15
8.16170226766e-15
7.70339463368e-15
7.42124838756e-15
7.79402248685e-15
1.04464277991e-14
7.7607284968e-15
0.0132138546298
0.00999139669553
0.00698509491887
0.00485031978766
0.00406185290682
0.0038424438059
0.00363649592109
0.00314268044639
0.002043241097
0.00069864405384
7.10164367933e-05
6.72329817906e-07
4.39040009591e-15
7.43301705096e-15
8.03983560469e-15
7.60419591792e-15
7.32567070968e-15
7.68383867037e-15
1.02477459858e-14
7.59105958152e-15
0.0132135209106
0.00999568665193
0.00699305245003
0.00484776509476
0.00403401406248
0.00380950256441
0.00360753790673
0.00313593199218
0.00207372989921
0.000732062873911
7.88587246162e-05
8.8215567118e-07
4.39040009377e-15
7.23424525407e-15
7.91229531488e-15
7.49593149609e-15
7.21861527112e-15
7.56324114256e-15
1.00002288981e-14
7.43260270701e-15
0.0131648673909
0.00996325974031
0.00697340409707
0.00482349911546
0.00399861015043
0.00377267614238
0.00357389203709
0.00311861795679
0.00208099072563
0.000755860497793
8.54747712228e-05
1.08891304152e-06
4.39040009571e-15
7.05525473917e-15
7.78172008398e-15
7.38095813266e-15
7.10200124192e-15
7.42724326119e-15
9.72016613428e-15
7.31328008983e-15
0.013029784802
0.00985633062449
0.00689515542706
0.0047667065258
0.00395481909527
0.00373201087231
0.0035355714285
0.0030903732315
0.00207797059664
0.000771935590137
9.03524284339e-05
1.26456634881e-06
4.39040009376e-15
6.89829945585e-15
7.65029160329e-15
7.26095876987e-15
6.97533756875e-15
7.27359754354e-15
9.44306707248e-15
7.22972611514e-15
0.0128072749454
0.00967288453796
0.0067522393871
0.00467972344162
0.00390295497393
0.00368767109403
0.00349275633876
0.0030530324154
0.00206511579459
0.000772408489366
9.30372582927e-05
1.38908957483e-06
4.39040009528e-15
6.76727163087e-15
7.51801033317e-15
7.13491074936e-15
6.8379224921e-15
7.10914759098e-15
9.19575552055e-15
7.15691898605e-15
0.0125129791335
0.00942950292426
0.00656114577691
0.00456960447736
0.00384460148346
0.0036402851376
0.0034462060309
0.00300874943226
0.00203964028166
0.000768085586661
9.39378134533e-05
1.45301006776e-06
4.39040009386e-15
6.67021625937e-15
7.38423069914e-15
7.00170346747e-15
6.69381398664e-15
6.95028960257e-15
8.97678941881e-15
7.06790983306e-15
0.0121734083928
0.00914589819867
0.00634042115344
0.00444565699224
0.0037826428351
0.00359122707953
0.00339742125688
0.00295995402234
0.0020044641626
0.000756784817231
9.36102466835e-05
1.44104114484e-06
4.3904000956e-15
6.60873480045e-15
7.24987256715e-15
6.86373189515e-15
6.5537447244e-15
6.81280475874e-15
8.76620072058e-15
6.94179726556e-15
0.0118182741906
0.0088422712092
0.00610766540515
0.00431876693192
0.00372096128086
0.00354244589842
0.00334831171586
0.00290935162302
0.00196458893925
0.00074025168359
9.30685491059e-05
1.40293148071e-06
4.39040009391e-15
6.57082629549e-15
7.1170748144e-15
6.72681896297e-15
6.42904890112e-15
6.69966680164e-15
8.54253907758e-15
6.77373856411e-15
0.0114689232613
0.00853771319341
0.00587982171128
0.00420034007549
0.00366346630742
0.00349581906292
0.00330070268553
0.00285978601938
0.00192522379414
0.000723358225258
9.31416773086e-05
1.34952539317e-06
4.39040009553e-15
6.5398639198e-15
6.98650401724e-15
6.59530718912e-15
6.32199709261e-15
6.60038722669e-15
8.29500915609e-15
6.58077707375e-15
0.0111441632495
0.00825618083955
0.00567805997379
0.00410135994869
0.00361265783277
0.00345254979576
0.00325617270275
0.00281450626535
0.00189311522309
0.000712890335798
9.48864069835e-05
1.33056167033e-06
4.39040009384e-15
6.49494382182e-15
6.85402282871e-15
6.46707687201e-15
6.2237941952e-15
6.4992758718e-15
8.03655128809e-15
6.38622598034e-15
0.0108853835045
0.00804160729427
0.00553714951822
0.00403436289442
0.00357070254596
0.00341322916556
0.00321616746896
0.00277728684173
0.00187644285498
0.000712222250911
9.94341167576e-05
1.39120604977e-06
4.39040009578e-15
6.42692796413e-15
6.71189647447e-15
6.33386930174e-15
6.12057122831e-15
6.38334958767e-15
7.80618381706e-15
6.19833253073e-15
0.0107594252673
0.00794858215813
0.00548736933956
0.00400941420856
0.00353555785033
0.00337837476204
0.00318245718212
0.00275350892681
0.00187505311107
0.000723648526099
0.000108032684492
1.6737889615e-06
4.39040009427e-15
6.32855966101e-15
6.55412795548e-15
6.18601730007e-15
6.00024009751e-15
6.25042869749e-15
7.64087638754e-15
6.01175548358e-15
0.010751526867
0.00794843112437
0.00549414751927
0.00401001286184
0.00350920409454
0.00334947305657
0.00315698835409
0.00274669539836
0.00188766333055
0.000755869342258
0.000121465326298
2.27055650741e-06
4.3904000957e-15
5.80907684552e-15
6.36583606838e-15
6.01824211568e-15
5.85955536509e-15
6.1140523661e-15
7.54518231433e-15
5.81986981749e-15
0.0108283418133
0.00803252237445
0.00557117229813
0.00403492028987
0.00350363606372
0.00332784543184
0.00314034990218
0.00274823455465
0.00192528754602
0.00080808610755
0.00014041878698
3.29573143837e-06
2.04000677043e-10
5.17177271564e-15
6.14873820256e-15
5.837562113e-15
5.71195031022e-15
5.99521552961e-15
7.50405789569e-15
5.61811743307e-15
0.0110758896991
0.00826912193381
0.00576102679501
0.00410866214291
0.00350633217585
0.00331302584974
0.00313115874247
0.00275916147747
0.00198335893236
0.000877752735232
0.000165965533795
4.98335625326e-06
1.7131721026e-09
5.17177271564e-15
5.93702247785e-15
5.66064000332e-15
5.57125059058e-15
5.89840059217e-15
7.48764211855e-15
5.41246227698e-15
0.0114582802981
0.00861750128316
0.00603482549878
0.00423116956491
0.00351817071831
0.00330377922717
0.00312696621168
0.00278171738642
0.00205314542478
0.000961754071037
0.000198954407176
7.66382932271e-06
6.98111829829e-09
5.17177271564e-15
5.7632577425e-15
5.51290059311e-15
5.47146773198e-15
5.82093399103e-15
7.48585934721e-15
5.23361503336e-15
0.0118782746232
0.00900055565556
0.00634749765965
0.00438873714479
0.0035422538513
0.00329725460624
0.00312459011176
0.00280811600833
0.00212874440992
0.0010576927806
0.000240475801546
1.17610885743e-05
2.04133583415e-08
5.17177271563e-15
5.59299982855e-15
5.37062412047e-15
5.33834219544e-15
5.72643698717e-15
7.48379549361e-15
4.93167729349e-15
0.0122607807935
0.00935078074265
0.0066438908126
0.00455318879797
0.00357637310016
0.0032944254062
0.00312383298569
0.00283564205074
0.00219954703872
0.00115061363353
0.000284657857328
1.69733633005e-05
4.47099285658e-08
5.17177271562e-15
5.5434609581e-15
5.32169559313e-15
5.29683321317e-15
5.6822825834e-15
7.48214216357e-15
4.92483699455e-15
0.0127485465015
0.00981148612803
0.00705574467222
0.00480795676079
0.00363109658269
0.00328129886467
0.00311380164931
0.00286069139403
0.00229292729386
0.00128888988899
0.00036020980915
2.72310611012e-05
1.15367142384e-07
5.17177271562e-15
5.20074010676e-15
4.99348827909e-15
4.99348827909e-15
5.21305161755e-15
7.17451764111e-15
4.90976204255e-15
)
;

boundaryField
{
    emptyPatch
    {
        type            empty;
    }
    minY
    {
        type            fixedValue;
        value           nonuniform List<scalar> 0();
    }
    maxY
    {
        type            inletOutlet;
        phi             phi.gas;
        inletValue      uniform 1;
        value           nonuniform List<scalar> 
40
(
0.819239264622
0.807604698241
0.793176964066
0.769971115502
0.745483673998
0.717061230918
0.672149710732
0.600494486991
0.502046836306
0.3755072906
0.258190131283
0.175815410323
0.116786497963
0.0665479611515
0.0334630400864
0.0230096473438
0.0210483577888
0.0199285355178
0.0182044757233
0.0156672101728
0.0127485465015
0.00981148612803
0.00705574467222
0.00480795676079
0.00363109658269
0.00328129886467
0.00311380164931
0.00286069139403
0.00229292729386
0.00128888988899
0.00036020980915
2.72310611012e-05
1.15367142384e-07
5.17177271562e-15
5.20074010676e-15
4.99348827909e-15
4.99348827909e-15
5.21305161755e-15
7.17451764111e-15
4.90976204255e-15
)
;
    }
    water_to_cooler
    {
        type            zeroGradient;
    }
    water_to_heater
    {
        type            zeroGradient;
    }
    procBoundary0to1
    {
        type            processor;
        value           nonuniform List<scalar> 
41
(
0.545756051702
0.546051427252
0.63856015746
0.721688625521
0.725795943947
0.721838286217
0.648166171254
0.487345499576
0.35613313234
0.261875900568
0.193447880504
0.133105044987
0.0754967348608
0.0401827033222
0.030046772453
0.027097446425
0.0247292861226
0.021741232832
0.0182689230092
0.0149290220753
0.00440795803874
0.0042224481006
0.00375222604754
0.0025781413802
0.000959226466359
0.000114791771419
1.19755892451e-06
3.85466250028e-15
9.56847326841e-15
1.08400781641e-14
1.0645812517e-14
1.00780983623e-14
9.55185873798e-15
9.77037912406e-15
1.18988166193e-14
1.08579828079e-14
0.0115724664464
0.00818133254467
0.00558760038855
0.00459420210294
0.00459420210294
)
;
    }
}


// ************************************************************************* //
