/*--------------------------------*- C++ -*----------------------------------*\
| =========                 |                                                 |
| \\      /  F ield         | OpenFOAM: The Open Source CFD Toolbox           |
|  \\    /   O peration     | Version:  2312                                  |
|   \\  /    A nd           | Website:  www.openfoam.com                      |
|    \\/     M anipulation  |                                                 |
\*---------------------------------------------------------------------------*/
FoamFile
{
    version     2.0;
    format      ascii;
    arch        "LSB;label=32;scalar=64";
    class       volScalarField;
    location    "0.665/water";
    object      alpha.gas_0;
}
// * * * * * * * * * * * * * * * * * * * * * * * * * * * * * * * * * * * * * //

dimensions      [0 0 0 0 0 0 0];

internalField   nonuniform List<scalar> 
1504
(
0.6782852371
0.406477815718
0.356398744627
0.327191661213
0.312369268981
0.296472790326
0.29386833843
0.294074375892
0.293487097236
0.293775652659
0.293474236519
0.305137598242
0.329465193644
0.341456153408
0.350241433825
0.361612757439
0.372140157741
0.304208192819
0.152373000863
0.0262106134849
0.627925643327
0.348536796685
0.338905509737
0.326688670893
0.314634609386
0.300348032685
0.296849880459
0.301522967962
0.302691205448
0.298852406094
0.29333452212
0.295813344623
0.300567670746
0.312107249771
0.334149604369
0.365082398839
0.383876948657
0.355884232937
0.20788097833
0.045893928013
0.506063923941
0.347927908691
0.346193543825
0.345146950537
0.327426110608
0.310551929059
0.309684295806
0.310111658129
0.304161908555
0.29173216131
0.279117605113
0.272647405831
0.273663410576
0.285709659624
0.317505441103
0.364597749204
0.38451908085
0.382020547302
0.262925535577
0.0809044050586
0.448640325118
0.393079612204
0.420579420022
0.405873807529
0.35886842131
0.328167087778
0.317347658886
0.307963031337
0.292041366415
0.273433929755
0.261327393851
0.257140332299
0.258958724466
0.266831613026
0.297330479613
0.355948460381
0.384577530916
0.385268626203
0.306110217651
0.131981670863
0.507245370907
0.565287051336
0.561007142472
0.523153739836
0.448399225341
0.384033101114
0.338330793647
0.309302673323
0.286504029629
0.266479287204
0.253888610802
0.25028942207
0.25111996895
0.254113682285
0.271487840142
0.330947060866
0.380909866239
0.385914604868
0.338357268609
0.190704030612
0.674718904168
0.721421492042
0.688137601931
0.659971280548
0.612547094822
0.541511854854
0.442370800212
0.35647792458
0.304426281854
0.271836395866
0.253182165832
0.246547364035
0.246696162863
0.247763511786
0.251261596829
0.290449152708
0.362076419383
0.38609235129
0.365893778796
0.246948062449
0.798244997729
0.77436158741
0.748710013257
0.739089891038
0.727593888173
0.697833431687
0.615622110949
0.485441145892
0.375407463235
0.301914064657
0.258243046239
0.24460014395
0.244633473321
0.245216588909
0.24499345257
0.255486571446
0.32580431961
0.386441932833
0.390161747347
0.296622308531
0.830380574254
0.783583078533
0.768094637857
0.765284264318
0.763038177286
0.74916487522
0.700099332073
0.587639921157
0.456568310856
0.34936050617
0.271894966201
0.244364601421
0.244450553279
0.244595298662
0.244639141939
0.244708586518
0.291356943623
0.383446485269
0.389910178085
0.334720404499
0.829713416275
0.786054719511
0.776450202004
0.774485575657
0.772591541107
0.75834884755
0.713963864354
0.617330048411
0.491555189432
0.375205369623
0.281144040891
0.244206390497
0.244328480575
0.244445730103
0.244524521238
0.244451405429
0.268234311188
0.372580981794
0.39020647667
0.360572836607
0.83253546233
0.787257265095
0.781548247078
0.779135680536
0.775835794238
0.759178204795
0.713036371802
0.618015742599
0.494881610277
0.376656699505
0.279565709067
0.244102505816
0.24414471174
0.244284315199
0.244304941488
0.244524521238
0.255537262481
0.357507841526
0.389910178085
0.375296742222
0.830565027903
0.787882948549
0.784612211783
0.781298090722
0.776203734292
0.756035278395
0.702497566306
0.604015902331
0.481791016001
0.361465806254
0.265819141259
0.24394427795
0.244102505816
0.244012219706
0.244284315199
0.243975734958
0.249678237215
0.343449128655
0.390056551506
0.382694142109
0.833853215866
0.787960318274
0.785849515328
0.781472678519
0.77376632836
0.744827113922
0.678528581909
0.571320371482
0.446581690843
0.325402747265
0.248424045305
0.243909469289
0.243737383975
0.244102505816
0.24389091834
0.244284315199
0.247257768745
0.333070276089
0.389910178085
0.386753283239
0.831001357343
0.787492095081
0.785301582509
0.779041484707
0.764756350849
0.724897472026
0.645942809178
0.530202060084
0.401239002213
0.284738682832
0.243909469289
0.243627092923
0.243909469289
0.243640265875
0.244102505816
0.24379082695
0.247352982093
0.32630962567
0.389119295085
0.389535748866
0.833181744232
0.785602272393
0.781078306936
0.769979593827
0.747188818601
0.697505734174
0.608039823623
0.485680722136
0.354147101407
0.255771010455
0.243694251156
0.243788421901
0.243295945254
0.243909469289
0.243672116517
0.244102505816
0.24881501483
0.322924989465
0.385887223001
0.391547285868
0.830881770168
0.780712373526
0.769308445612
0.751456175612
0.720663472742
0.661489873047
0.56301182377
0.435678612128
0.307181328141
0.244778303685
0.243788421901
0.243159130887
0.243788421901
0.243205525851
0.243909469289
0.243685338087
0.25206902426
0.319973861904
0.379329244961
0.394377875134
0.833494213826
0.770807444098
0.747046528572
0.721951564077
0.683174677071
0.613314426432
0.506742975355
0.377593364387
0.266419702151
0.243788421901
0.243224959143
0.243712594584
0.242833240313
0.243788421901
0.243282416141
0.243909469289
0.255643509756
0.316056047378
0.370910113734
0.398558316754
0.830522867951
0.747726691365
0.71197414158
0.679110131538
0.62972294376
0.548307572341
0.435582616032
0.312634729306
0.245596517442
0.243430745354
0.243712594584
0.242674278664
0.243712594584
0.242761813927
0.243788421901
0.243473377303
0.259189330972
0.310965683424
0.363268296915
0.402740673473
0.832464674137
0.702459503081
0.661218759288
0.616543464098
0.553294361909
0.461528270245
0.34969235817
0.257701192202
0.243535526347
0.243712594584
0.242650894599
0.243571354832
0.242456277358
0.243712594584
0.242952516804
0.243788421901
0.261519639507
0.305289123703
0.356930103505
0.404590837616
0.82940309922
0.639979670679
0.587590166927
0.524614695419
0.448317054199
0.354513740942
0.267771370444
0.243594714707
0.243712594584
0.242615020081
0.243571354832
0.242125480978
0.243571354832
0.242573466482
0.243712594584
0.243318045091
0.263071701339
0.29910178231
0.352457213319
0.404896249223
0.831542774524
0.568543342351
0.486786169115
0.402299344211
0.324631240496
0.261039150699
0.243592881789
0.243712594584
0.242492935944
0.243571354832
0.241860261406
0.243447097817
0.242159140835
0.243571354832
0.242951072504
0.244263778617
0.263166621309
0.290949011952
0.348257991549
0.404224664542
0.82855446917
0.483576674893
0.372241015811
0.281379063511
0.24797283278
0.243452075513
0.243712594584
0.242157442182
0.243571354832
0.241424186592
0.243447097817
0.241685082567
0.243447097817
0.242552940713
0.243571354832
0.249632103068
0.258401218821
0.278975312562
0.340244996318
0.40070615447
0.80999003316
0.370851501741
0.27186326069
0.243788421901
0.243085143716
0.243712594584
0.241597090556
0.243571354832
0.240744115379
0.243447097817
0.241161893844
0.243348066958
0.242095954317
0.243447097817
0.246167184144
0.249934999847
0.249238280774
0.263275897086
0.3227684621
0.391352153173
0.71066974867
0.272136056442
0.243788421901
0.242598381171
0.243712594584
0.240894296744
0.243571354832
0.239974954993
0.243447097817
0.24050225885
0.243348066958
0.241606370685
0.243348066958
0.244649895404
0.250922056189
0.248694568842
0.240448057271
0.24510753195
0.294559677994
0.374437692803
0.559295183232
0.273700520384
0.246655003344
0.243712594584
0.240734469885
0.243571354832
0.239974954993
0.243447097817
0.239980730395
0.243348066958
0.24131504959
0.243222173105
0.242625765996
0.250922056189
0.250855899865
0.245076945026
0.234555788959
0.231347646097
0.263151060414
0.348799969146
0.509206765396
0.366889633843
0.332316503468
0.29516219673
0.267201894306
0.250362232744
0.245048699265
0.241357950738
0.243348066958
0.241760184542
0.243222173105
0.242654666832
0.24751146524
0.24962679912
0.249302224816
0.242937706954
0.232874523206
0.226560833042
0.237073336732
0.31269133333
0.572461286552
0.591779670718
0.563362803124
0.514410632112
0.456657924455
0.416791683346
0.387117637822
0.347417719547
0.295267965706
0.2598727165
0.246073796599
0.243127717449
0.241888076725
0.241303152875
0.242939708133
0.241345948143
0.233501002842
0.22514696546
0.223667507087
0.270149648068
0.725710896669
0.763502251996
0.750386871456
0.733497889206
0.707914905053
0.682794291026
0.656609285263
0.606132177436
0.504443275566
0.368644960462
0.280736422465
0.246862282847
0.233835438088
0.230617211059
0.234958121725
0.237911093338
0.234707649087
0.225814898882
0.220930285551
0.235052929996
0.819778129066
0.808880631993
0.806198265381
0.80700690561
0.805338223201
0.800932478087
0.792894829676
0.770844142233
0.713342424679
0.567717123731
0.386316251302
0.27799496186
0.235500208507
0.224701790053
0.227154584554
0.232839757241
0.23472340687
0.228232558501
0.220922173389
0.220913704153
0.830806797148
0.816119043829
0.818025749648
0.819451038637
0.819469645016
0.819401019177
0.818116239057
0.809042070834
0.780190413781
0.689075140426
0.51179634709
0.348213592715
0.25095283393
0.222954055926
0.222943907036
0.227128762932
0.232555670565
0.229706188006
0.221318457798
0.220087603319
0.832680618732
0.819204192147
0.820038425684
0.819794388075
0.820154927269
0.819521867641
0.819656390905
0.817204252375
0.794146625459
0.72097133166
0.577517762423
0.412362113122
0.279867894751
0.223001151272
0.222330186292
0.22307683536
0.228002824578
0.229519753128
0.223746499183
0.220119793787
0.831054008782
0.820208308166
0.820070280228
0.820068526975
0.819794388075
0.819864335881
0.819521867641
0.819549098544
0.797960942869
0.727869993421
0.599470207665
0.443441842124
0.302544115597
0.226100359162
0.222241807453
0.222210754273
0.223689009169
0.227713047512
0.224527072331
0.219996207644
0.832648655837
0.819176503845
0.819972396493
0.819794388075
0.819864335881
0.819521867641
0.819731021073
0.819242673665
0.798089801519
0.727903759761
0.603928623437
0.453245748417
0.311113642736
0.228506118374
0.222210754273
0.222063882918
0.222114075286
0.22448114444
0.224217493575
0.220052264506
0.831375048801
0.814426862888
0.819086352331
0.819802759919
0.819521867641
0.81973393261
0.819242673665
0.819166631041
0.794592275755
0.721499840436
0.600271978209
0.45268941156
0.31102321688
0.228433641754
0.222040144592
0.222087774225
0.22192677754
0.222156420608
0.223423722951
0.219921481591
0.83261409159
0.803843882361
0.811210584089
0.817831921143
0.819517240233
0.819242673665
0.819228194913
0.816216632259
0.782758446384
0.703842350563
0.58481985123
0.442102425319
0.303209165603
0.226378563783
0.222087774225
0.221796881397
0.221986616432
0.221834321596
0.222196857863
0.220257077977
0.83137332724
0.784539269117
0.792321929309
0.806127814954
0.815685539373
0.817608410199
0.816692528811
0.804634504367
0.759869207382
0.675843240271
0.558380521986
0.420053165623
0.286993496259
0.223607501079
0.221871492063
0.221986616432
0.221695486305
0.221873534582
0.221770881193
0.221694953341
0.831922535964
0.752729900762
0.76258058193
0.780215792858
0.797882768589
0.803170273529
0.800068020143
0.777605273519
0.723764324312
0.637536460656
0.522634152779
0.38873128916
0.265280143128
0.222160538327
0.222087774225
0.221699944944
0.221986616432
0.221684552865
0.222906026903
0.224274054675
0.831211522376
0.701042672854
0.723180452985
0.740523670438
0.760092729769
0.76570042661
0.758637090208
0.728725421507
0.670707870834
0.585454621144
0.473970070568
0.345462872107
0.24050553387
0.222210754273
0.221803952031
0.222087774225
0.221587630535
0.221986616432
0.229670061282
0.23014294964
0.831233143479
0.634044820741
0.674963056775
0.689178558042
0.703720001168
0.703420730144
0.6892112098
1e-15
1.0042538855e-15
1.0264893017e-15
1.02666259244e-15
1.02642429109e-15
1.01561156171e-15
1.00535194248e-15
1.00294203158e-15
1.00234142845e-15
1.00217586303e-15
1.00229239631e-15
1.00269132155e-15
1.00359885717e-15
1.0061053969e-15
1.02148044104e-15
1.00962124118e-15
1.72943864277e-15
0.000654056873777
6.93481053136e-07
1e-15
1e-15
1e-15
1.01867681158e-15
1.0225670671e-15
1.0163464226e-15
1.00586700589e-15
1.00211700284e-15
1.00109383361e-15
1.00069938595e-15
1.00061024064e-15
1.00069503949e-15
1.00096819469e-15
1.00163886347e-15
1.00365050463e-15
1.021538919e-15
1.01108919587e-15
1.72746514227e-15
0.00177258960003
7.98968840721e-06
1e-15
1e-15
1e-15
1.00753447574e-15
1.0104574553e-15
1.00541995007e-15
1.00154111529e-15
1.00031811015e-15
1.00005166286e-15
1.00000255198e-15
1e-15
1.0000061434e-15
1.00004858569e-15
1.00023370476e-15
1.00139413963e-15
1.02159739696e-15
1.02031834241e-15
1.7294366105e-15
0.00541299794679
6.33023381699e-05
6.91626420488e-08
1e-15
1e-15
1.0033810561e-15
1.00285528665e-15
1.00084774418e-15
1.0000422514e-15
1e-15
1e-15
1e-15
1e-15
1e-15
1e-15
1e-15
1.00008578835e-15
1.02229453879e-15
1.03183641166e-15
1.72746514227e-15
0.0159827874413
0.00039495290467
1.43721017518e-06
1e-15
1e-15
1.00065670302e-15
1.00018615132e-15
1e-15
1e-15
1e-15
1e-15
1e-15
1e-15
1e-15
1e-15
1e-15
1e-15
1.02446139016e-15
1.04131528394e-15
1.72831157027e-15
0.0403401284385
0.00193289908311
1.72174414768e-05
1e-15
1e-15
1e-15
1e-15
1e-15
1e-15
1e-15
1e-15
1e-15
1e-15
1e-15
1e-15
1e-15
1e-15
1.0281642688e-15
1.052049678e-15
1.72746514227e-15
0.0818898791726
0.00747102197231
0.000136760926209
5.83484498377e-08
1e-15
1e-15
1e-15
1e-15
1e-15
1e-15
1e-15
1e-15
1e-15
1e-15
1e-15
1e-15
1e-15
1.03354983324e-15
1.06586764966e-15
1.72726243436e-15
0.13486324902
0.0218581823377
0.000776690202185
1.97903382017e-06
1e-15
1e-15
1e-15
1e-15
1e-15
1e-15
1e-15
1e-15
1e-15
1e-15
1e-15
1e-15
1.0059396304e-15
1.04041964859e-15
1.08162932596e-15
1.72227759317e-15
0.189134113037
0.0474612883529
0.00314744444968
2.52842890644e-05
1.08792006665e-15
1e-15
1e-15
1e-15
1e-15
1e-15
1e-15
1e-15
1e-15
1e-15
1e-15
1e-15
1.0161851198e-15
1.04846122928e-15
1.09793175017e-15
1.72318743191e-15
0.235506998579
0.0805206594876
0.00889461200568
0.000164302531546
1.15346584744e-15
1e-15
1e-15
1e-15
1e-15
1e-15
1e-15
1e-15
1e-15
1e-15
1e-15
1.00288666975e-15
1.0229750148e-15
1.05732024415e-15
1.11404907664e-15
1.73070268861e-15
0.269648472941
0.114010924348
0.0186271498053
0.000636578702397
5.90602265111e-07
1e-15
1e-15
1e-15
1e-15
1e-15
1e-15
1e-15
1e-15
1e-15
1.00801194863e-15
1.02023258904e-15
1.03067966135e-15
1.06688211439e-15
1.12894912595e-15
1.74376494964e-15
0.293554591732
0.143760390537
0.0314379162186
0.00171273396613
6.75313127477e-06
1e-15
1e-15
1e-15
1.00223761001e-15
1.00475632677e-15
1.00644027632e-15
1.00900841316e-15
1.01319576808e-15
1.01929287593e-15
1.02427255787e-15
1.02921797122e-15
1.0394712849e-15
1.07698470516e-15
1.14167915943e-15
1.76111917161e-15
0.31198934649
0.170282924889
0.0463601467549
0.00361833884376
3.13712167256e-05
1.08165269716e-15
1e-15
1e-15
1.01835137589e-15
1.02351246484e-15
1.02413056939e-15
1.02520217242e-15
1.02654538994e-15
1.02864075864e-15
1.03173561311e-15
1.03629376877e-15
1.04805627852e-15
1.08702443627e-15
1.15228591218e-15
1.78163497735e-15
0.328485368154
0.196107220436
0.0634947905761
0.00663444510519
9.77543542003e-05
1e-15
1e-15
1e-15
1.01650638621e-15
1.02868662963e-15
1.03075557688e-15
1.0313232077e-15
1.03220054224e-15
1.0339954112e-15
1.03703687689e-15
1.0417474834e-15
1.05526259138e-15
1.09625272865e-15
1.1612892892e-15
1.80379183166e-15
0.344334968992
0.222807064444
0.08333646272
0.011194077348
0.000251667348125
1e-15
1e-15
1e-15
1.00610286567e-15
1.02886803232e-15
1.03440367585e-15
1.03488449174e-15
1.03566092787e-15
1.03731429647e-15
1.04025039552e-15
1.04500475451e-15
1.06052887117e-15
1.10426423354e-15
1.16931615242e-15
1.82633893006e-15
0.360159669227
0.250901822719
0.106305576133
0.0178202855033
0.000573875889619
3.03163391909e-07
1e-15
1.00022128295e-15
1.00346310842e-15
1.02676319977e-15
1.03524552319e-15
1.03606844421e-15
1.03679941741e-15
1.03829511137e-15
1.04110608393e-15
1.04593165361e-15
1.06387206481e-15
1.11099808172e-15
1.17798132856e-15
1.84592870874e-15
0.377776964482
0.281644919602
0.132847702502
0.0269930037745
0.00120321587165
2.40813772032e-06
1e-15
1e-15
1.00022160287e-15
1.01507763519e-15
1.03121428858e-15
1.03474426838e-15
1.03560044322e-15
1.03696308084e-15
1.03964835651e-15
1.04462318213e-15
1.06538698496e-15
1.11660735477e-15
1.18813592398e-15
1.90256567008e-15
0.396064428943
0.313676695314
0.162697276351
0.0394280711192
0.00245654600611
1.28264131031e-05
1e-15
1e-15
1e-15
1.00109730033e-15
1.02375853717e-15
1.03052641642e-15
1.03156494699e-15
1.03287345954e-15
1.03549375584e-15
1.04075503691e-15
1.0653529454e-15
1.12144814772e-15
1.20094310064e-15
1.93042202859e-15
0.4122142551
0.341201834658
0.19463095688
0.0566301559085
0.00500842854145
5.77057081312e-05
1e-15
1e-15
1e-15
1.00035141642e-15
1.01682152192e-15
1.02403237193e-15
1.02563940958e-15
1.02701001429e-15
1.02956595111e-15
1.03503955253e-15
1.06417280795e-15
1.12586075325e-15
1.21617381562e-15
1.93449665787e-15
0.419397419789
0.363796769468
0.231182639727
0.0810165137771
0.0100487974794
0.000238323526606
2.63990327172e-07
1e-15
1e-15
1e-15
1.00030909275e-15
1.01574873902e-15
1.01913618867e-15
1.02049657002e-15
1.02288218455e-15
1.02836123716e-15
1.06263271547e-15
1.13046186156e-15
1.23221790594e-15
1.93557104195e-15
0.419399836275
0.387866857617
0.274402315919
0.115102220268
0.0197180128026
0.000930974815694
7.81364841565e-06
1e-15
1e-15
1e-15
1e-15
1.01011382454e-15
1.01278567511e-15
1.01399507044e-15
1.01610927935e-15
1.02136302369e-15
1.06161286665e-15
1.13602471369e-15
1.24700414045e-15
1.93601204796e-15
0.419396562026
0.409744738016
0.318679435152
0.160994229649
0.0382252876212
0.00323764768859
8.29094409609e-05
2.68131745999e-07
1e-15
1e-15
1e-15
1.00134828274e-15
1.0069704934e-15
1.00818526405e-15
1.00994368223e-15
1.0147199896e-15
1.06163020104e-15
1.14341510184e-15
1.25830198637e-15
1.93649150469e-15
0.418801210334
0.420713163053
0.356484348624
0.216424491061
0.070517409718
0.00976991167344
0.000579280399736
9.46220650615e-06
1e-15
1e-15
1e-15
1.00035903476e-15
1.00262890944e-15
1.00331640605e-15
1.0046460613e-15
1.00887473633e-15
1.06272966722e-15
1.15492946967e-15
1.26757557808e-15
1.93705613951e-15
0.417113556167
0.424388793905
0.386415574477
0.27194605668
0.117655924583
0.0251948744002
0.00274128012698
0.000128149434426
5.83694237128e-07
1e-15
1e-15
1.00011878118e-15
1.00001835292e-15
1.00029204487e-15
1.00084860006e-15
1.00392553272e-15
1.06501322446e-15
1.17752406589e-15
1.28884520208e-15
1.93762077433e-15
0.411822078255
0.425096055886
0.410504518999
0.319833897801
0.173761734424
0.0545375403106
0.00957586958289
0.000964824090627
2.78405689775e-05
1.51864691987e-10
1e-15
1e-15
1e-15
1e-15
1e-15
1.00027187816e-15
1.06347665476e-15
1.19566662489e-15
1.33149536479e-15
1.93818540915e-15
0.397288405022
0.425145037895
0.426778969238
0.356260355455
0.22930065574
0.0987108637507
0.0261208719086
0.00438773738128
0.000361595280355
4.04960655544e-06
1e-15
1e-15
1e-15
1e-15
1e-15
1e-15
1.05701549204e-15
1.18373310282e-15
1.36639344985e-15
1.95236371065e-15
0.368065005415
0.422356011658
0.429958261127
0.381536115581
0.278805815211
0.153266435431
0.0569197024843
0.0139941133633
0.00217322876266
0.000118901343766
9.63822163698e-08
1e-15
1e-15
1e-15
1e-15
1e-15
1.04069261125e-15
1.16265533833e-15
1.37184050156e-15
2.01975243217e-15
0.325050714268
0.409201737512
0.430016250974
0.405169240845
0.326353453605
0.213393232093
0.101767838119
0.0335968911267
0.00764144324957
0.000998514575547
3.31128150772e-05
9.66579676175e-14
1e-15
1e-15
1e-15
1e-15
1.00220196481e-15
1.13562598631e-15
1.37052077016e-15
2.13816966102e-15
0.279775853945
0.378446785125
0.430294584675
0.442114232121
0.377918014483
0.272514032399
0.152829527268
0.0628106013108
0.0187455143006
0.00388006817093
0.00037045777114
4.73745716693e-06
1e-15
1e-15
1e-15
1e-15
1e-15
1.08015876488e-15
1.33992552834e-15
2.34316496186e-15
0.245149032814
0.339154404967
0.433067925748
0.446771261568
0.417108765875
0.3229811327
0.198991959875
0.0944996025738
0.0343406326236
0.00938819383785
0.00162908896983
9.98727985918e-05
2.36471449222e-08
2.57661328395e-15
4.14579590347e-15
4.66348253104e-15
4.0999617999e-15
1.13127181752e-15
1.19797248999e-15
2.60937270285e-15
0.225295618731
0.305412072539
0.431102205664
0.446133115302
0.443358620447
0.356539384714
0.229450874796
0.118303985926
0.049024359689
0.0161079020547
0.00384552173796
0.000461053667872
9.9616916821e-06
1.82394673995e-10
2.07353082606e-10
1.90920557623e-10
1.4883649999e-10
3.55437774717e-12
3.30477065377e-14
4.22664999304e-15
0.220052264506
0.280235470471
0.424946239503
0.447021413033
0.446168844967
0.370643312731
0.242228719916
0.129522261577
0.0577259477578
0.0211424539219
0.00597943791635
0.00102164446599
5.49393053432e-05
5.14708855925e-07
1.16223233177e-06
1.42791617963e-06
1.25468770883e-06
7.41235333692e-08
9.14948816036e-10
4.27769117893e-11
0.219877170423
0.263324906371
0.41403099056
0.446168844967
0.446610533138
0.376221365901
0.249957378477
0.137581448265
0.0644544280129
0.0253824861487
0.00799408642402
0.00169491361925
0.000163901948664
5.3691163947e-05
0.000353595523313
0.000695741716847
0.000697515682835
0.000103248350567
3.59393683378e-06
1.88136463318e-07
0.219983555863
0.253048241909
0.397997590062
0.446858428131
0.44633799537
0.383527323128
0.263112075943
0.15180487088
0.0761452888211
0.0329256436817
0.0118734964558
0.00320597724497
0.000543368404392
0.000687538171247
0.0112308349436
0.03812410501
0.0407766716007
0.0133422241684
0.0013518135035
7.05064228083e-05
0.219899964627
0.247068954541
0.379194042252
0.446340588624
0.44661050491
0.396792555045
0.28742181989
0.178669036746
0.099340743414
0.0495097996662
0.0220313624162
0.00848440624169
0.0025204158667
0.00355312638973
0.0819532681519
0.354544596925
0.384764536629
0.229488786475
0.0622094671768
0.00352674652208
0.219980072446
0.242896281149
0.356803309909
0.446476237806
0.446491989718
0.416391450637
0.329245692231
0.227668398549
0.144540006
0.086407227314
0.0495961723472
0.0252698725274
0.0181559234342
0.0746059078779
0.445615611399
0.606379477672
0.604752368271
0.605792916323
0.398467039432
0.0266905016439
0.219918841068
0.239015515516
0.332093446138
0.436770842815
0.446594291815
0.439223648504
0.389151243981
0.3106048793
0.232418990353
0.16855370585
0.118421938915
0.0857302887407
0.148664169754
0.490017023223
0.606323043949
0.604551548116
0.606535747384
0.605054298279
0.591570576499
0.0641398652768
0.2201484719
0.232731307185
0.30226147283
0.404802656683
0.446651679935
0.450814304985
0.441445813949
0.40493899554
0.350639293972
0.291314315086
0.248414925831
0.285596655014
0.482453233265
0.60542505682
0.604033982097
0.606351004387
0.604816030813
0.605875245122
0.604816030813
0.0920942029774
)
;

boundaryField
{
    emptyPatch
    {
        type            empty;
    }
    minY
    {
        type            fixedValue;
        value           nonuniform List<scalar> 0();
    }
    maxY
    {
        type            inletOutlet;
        phi             phi.gas;
        inletValue      nonuniform List<scalar> 0();
        value           nonuniform List<scalar> 0();
    }
    maxX
    {
        type            zeroGradient;
    }
    water_to_heater
    {
        type            zeroGradient;
    }
    procBoundary3to1
    {
        type            processor;
        value           nonuniform List<scalar> 
41
(
0.654524770256
0.59716544135
0.514923652008
0.407058672616
0.288363558235
0.223868100013
0.222042638257
0.222210754273
0.221577101719
0.222087774225
0.225318897567
0.2470669105
0.238757098278
0.811340423047
0.572319431029
0.62067500028
0.631074246625
0.635045327234
0.621111479444
0.654524770256
0.594478518877
0.21931755725
0.225278833399
0.26849131673
0.350917482735
0.421378751059
0.450770233029
0.450814304985
0.449047415229
0.42837442929
0.401934901338
0.414721194591
0.481926035539
0.54493165541
0.557864008734
0.580777409456
0.604033982097
0.605875245122
0.604816030813
0.60516047453
0.0988680222871
)
;
    }
    procBoundary3to2
    {
        type            processor;
        value           nonuniform List<scalar> 
41
(
0.682428453957
0.472101638058
0.410685698657
0.360427055139
0.324665756616
0.297263268251
0.294392839385
0.293616788677
0.294074375892
0.293484234807
0.293775652659
0.295716701408
0.338771942494
0.357841642653
0.359413286473
0.360404735
0.342812314389
0.259232692243
0.112578665793
0.0158104923849
1e-15
1.02253797507e-15
1.02709218267e-15
1.0264893017e-15
1.0266400929e-15
1.02550728325e-15
1.01229478813e-15
1.00502285843e-15
1.00395694636e-15
1.00375316707e-15
1.00388906726e-15
1.00435183029e-15
1.00537435038e-15
1.0087164846e-15
1.02142196308e-15
1.009520441e-15
1.69335746729e-15
0.000290752001913
1e-15
1e-15
1e-15
)
;
    }
}


// ************************************************************************* //
