/*--------------------------------*- C++ -*----------------------------------*\
| =========                 |                                                 |
| \\      /  F ield         | OpenFOAM: The Open Source CFD Toolbox           |
|  \\    /   O peration     | Version:  2312                                  |
|   \\  /    A nd           | Website:  www.openfoam.com                      |
|    \\/     M anipulation  |                                                 |
\*---------------------------------------------------------------------------*/
FoamFile
{
    version     2.0;
    format      ascii;
    arch        "LSB;label=32;scalar=64";
    class       volScalarField;
    location    "0.26/water";
    object      epsilonm;
}
// * * * * * * * * * * * * * * * * * * * * * * * * * * * * * * * * * * * * * //

dimensions      [0 2 -3 0 0 0 0];

internalField   nonuniform List<scalar> 
1503
(
17.3488491647
2.80404413586
0.370037276103
0.0442968019596
0.00590880961767
0.00088512133337
0.000222848914745
0.000101177812889
6.76048732333e-05
5.56489553266e-05
5.06495672165e-05
4.83317912836e-05
4.7165147945e-05
4.6528109914e-05
4.61514655736e-05
4.59137829899e-05
4.57575030242e-05
4.56531527552e-05
4.55842260879e-05
4.55408203465e-05
545.1990492
106.007363008
18.2336112419
2.74411545087
0.345154962834
0.0408195254998
0.00566758220678
0.00090815772795
0.0002222200389
9.92346863769e-05
6.67756832367e-05
5.52941519275e-05
5.04910595161e-05
4.82646517268e-05
4.71386074559e-05
4.651420454e-05
4.61358817856e-05
4.58913371719e-05
4.57290008621e-05
4.56233310148e-05
778.260136586
182.876006173
41.2361857563
8.50053842399
1.45640996509
0.198293663438
0.0250090358478
0.0037693143314
0.000697515335955
0.000203090308374
9.9254716459e-05
6.83053246747e-05
5.6490828793e-05
5.13007612191e-05
4.88158830169e-05
4.75322779844e-05
4.68096614578e-05
4.63659340195e-05
4.60761719535e-05
4.5884226103e-05
997.525889227
248.860798731
62.2943840477
15.2601737751
3.36246035985
0.596327275293
0.0827124050817
0.0112153187272
0.00184078394085
0.000411254276643
0.000153556711274
8.79863722097e-05
6.52212155291e-05
5.56429467809e-05
5.1160661309e-05
4.89125524812e-05
4.77050067374e-05
4.7001498108e-05
4.65581320403e-05
4.62658191941e-05
1081.56003642
286.572923921
77.1103579744
20.8733265868
5.37444308026
1.20387915021
0.208954711763
0.0292316601881
0.00436012768649
0.000807406121319
0.000238988463984
0.000115260905971
7.66456322738e-05
6.12168074188e-05
5.41337806551e-05
5.06197136758e-05
4.87720356456e-05
4.77343102164e-05
4.71048922626e-05
4.66981870717e-05
1055.12708375
297.997393074
86.0087652451
25.1657118448
7.20781901142
1.90042154939
0.417921071488
0.0698457042005
0.0102019996973
0.00161580422405
0.00037804822659
0.000152613417111
9.09737962292e-05
6.79767530106e-05
5.76972391624e-05
5.26344660941e-05
4.99905053558e-05
4.85330090863e-05
4.76746466733e-05
4.71340799225e-05
1009.08755801
295.682589522
89.6392936488
27.8444040412
8.63946244857
2.57234585198
0.680345092051
0.143575727899
0.0236103074552
0.00344763986695
0.00062552287608
0.000205323095728
0.000108770431024
7.59328417329e-05
6.18129376755e-05
5.49345317205e-05
5.1348456076e-05
4.93844157994e-05
4.8248211416e-05
4.75494087736e-05
1019.05471653
296.707461479
91.3637086512
29.4256918691
9.68383910141
3.1540173954
0.96062210125
0.248848901964
0.0506632367128
0.00788115380994
0.00112425852827
0.000284098067823
0.000131008272373
8.51253308645e-05
6.64273602872e-05
5.74776649578e-05
5.28219846018e-05
5.02742361465e-05
4.88135316675e-05
4.79326735305e-05
1022.00828749
297.21198222
92.0178283881
30.3683458643
10.4577212492
3.65076548524
1.22887498139
0.374018596763
0.0968386236276
0.0187687217108
0.00232522683946
0.00041671667598
0.000159891089077
9.57570276899e-05
7.15126889542e-05
6.02168316019e-05
5.43773402169e-05
5.11827215268e-05
4.93616160475e-05
4.82816040578e-05
1017.89764548
294.788014044
91.5414800692
30.8342315828
11.0144372778
4.03317374235
1.45293296261
0.497368800781
0.158176972483
0.0421829255182
0.00558482540994
0.000678518386277
0.000201014363966
0.000108656084282
7.72224503696e-05
6.31679126306e-05
5.60087088975e-05
5.21103116957e-05
4.98982215319e-05
4.86023158701e-05
1006.57273015
289.429039847
90.5323190858
31.1022466073
11.4063016296
4.28904812147
1.61070894305
0.599885878918
0.226523619142
0.0815137178726
0.015233718528
0.00133020372169
0.000276598198929
0.000127718064964
8.44945077759e-05
6.65937963164e-05
5.78004969844e-05
5.30893485083e-05
5.04415106759e-05
4.89122030225e-05
985.174055984
284.226846601
90.2426466159
31.4682340214
11.659939723
4.41481697642
1.69360290152
0.679611613122
0.294980873089
0.134459742898
0.0398946496294
0.00375512735024
0.000477947995755
0.000164105946746
9.54246871822e-05
7.10075226299e-05
5.99073622386e-05
5.41842274328e-05
5.10328739987e-05
4.92439413031e-05
986.082992182
288.815570596
92.7651685759
32.3157253534
11.8331583842
4.44546035888
1.74297471821
0.752835841853
0.364466836421
0.196400245397
0.0839007123775
0.0139686843731
0.00114490275875
0.000246422176301
0.000114212797099
7.7350578719e-05
6.26240105936e-05
5.5520419399e-05
5.17419709381e-05
4.96436731506e-05
1027.01054476
308.608584559
99.104377392
33.6779963931
11.9546845097
4.46926921518
1.81572407987
0.835009779244
0.441230147927
0.264029849992
0.145573929565
0.0422070704051
0.00401086863971
0.000469882921063
0.000150597356792
8.73381214116e-05
6.64200685278e-05
5.72789174473e-05
5.2657785433e-05
5.01622967761e-05
1170.22001562
350.348432651
108.591545152
35.2077929694
12.1927306212
4.62085811095
1.95483460474
0.940999637944
0.525228466336
0.332661734919
0.217532258046
0.0964127373728
0.0164793250518
0.00120138161008
0.000229825804523
0.000104094721289
7.19570473386e-05
5.96760906369e-05
5.38727906228e-05
5.08447901256e-05
1478.03299101
408.758290556
119.783455298
37.7894498949
13.0506261075
5.01797628026
2.1712015803
1.06884280796
0.607455891335
0.400866076344
0.288903769608
0.173177329534
0.0520941945862
0.00416168638547
0.00042418360059
0.000133349119969
8.00975534017e-05
6.29435769833e-05
5.54727950127e-05
5.17262132582e-05
1596.39046506
441.212443542
129.758334617
41.1582178381
14.3130722135
5.54502732708
2.41832771235
1.20023704669
0.687348484648
0.459337501889
0.352127674589
0.253832237696
0.115780228849
0.0156290629877
0.000955079063826
0.000186916500834
9.21052128751e-05
6.73552402592e-05
5.7545980087e-05
5.2838665997e-05
1634.51525242
454.427992899
135.255334155
43.4846760612
15.3096709749
5.98223363138
2.62294234628
1.3087596636
0.756941334159
0.511672994173
0.40151149509
0.32162219405
0.191383535966
0.0452459802896
0.0024723426201
0.000285899267007
0.000109627160559
7.32555487712e-05
6.02017712994e-05
5.42234847448e-05
1651.13220482
461.063981544
137.896603849
44.7147055204
15.8817567611
6.24705472946
2.75176857073
1.38414166842
0.815035282392
0.56097772845
0.443318178907
0.374572409148
0.258052943046
0.0920507762207
0.00659099893219
0.000475893038573
0.000135682466561
8.12318403949e-05
6.36062001691e-05
5.59419197588e-05
1671.66233154
465.66842353
139.26804709
45.2051137519
16.1036800482
6.36322048476
2.82152367002
1.44183986768
0.869677386862
0.608420763981
0.485448725854
0.416383361086
0.313785019179
0.143597693227
0.016015180166
0.000871156604749
0.000177605838711
9.24135844625e-05
6.80129554193e-05
5.80762870119e-05
1695.95559267
472.691333358
140.990982133
45.6402134633
16.2604473635
6.44655209897
2.88610302109
1.50718293054
0.922885448306
0.654083373662
0.533043574521
0.463987868825
0.366763402183
0.194162865592
0.034692847885
0.00165969008719
0.000250439190335
0.000108727546341
7.37840872337e-05
6.07244476703e-05
1745.14386185
484.196399323
143.971110164
46.5337637375
16.5932465961
6.60072101775
2.98937288742
1.57844506184
0.969811106573
0.703146272313
0.592298430173
0.526568047587
0.427518833724
0.247532225619
0.0651676607766
0.00379812082193
0.000396560359343
0.000134189834453
8.15125356056e-05
6.40050759694e-05
1807.92028007
499.661750624
148.198687094
47.9483622711
17.1358055054
6.83884772369
3.11265744343
1.63839154005
1.0142568946
0.758670997806
0.664573792575
0.606686552591
0.500822907817
0.312977645132
0.109968757297
0.0103558788623
0.000730309130266
0.0001771435758
9.22022735447e-05
6.80771540534e-05
1886.27724958
517.598844356
152.956638488
49.6096649166
17.7888975534
7.10977230339
3.21898793134
1.68310442967
1.05670816217
0.816154265726
0.73594034886
0.680274867414
0.576929388368
0.404631969948
0.177659774928
0.0284177408648
0.00157902216506
0.000255873023848
0.000107652886408
7.31891689053e-05
1942.23700691
530.440712821
156.548203034
51.0172154642
18.3850055541
7.33735599564
3.28432474107
1.70773071599
1.08768443513
0.856785301471
0.767773596819
0.720212784769
0.640804797745
0.510227875601
0.274303401012
0.0680685754471
0.00414899531117
0.000417044172419
0.000131357480629
7.97679587343e-05
1955.16332196
530.574203977
157.772234514
52.0891814515
18.9326497835
7.51051382485
3.29544278341
1.69616824606
1.08798199833
0.847101240465
0.748363139639
0.721178646773
0.674086152242
0.56801184284
0.384172905796
0.13460794458
0.0124430748382
0.000773617824611
0.000169686044763
8.85106577586e-05
1868.83361309
515.670513132
157.285911133
53.0923339263
19.418413691
7.53465966922
3.19933898664
1.62566849564
1.03652590611
0.791549740044
0.694708905969
0.680974739532
0.664911678535
0.589510259599
0.442736788759
0.215075506691
0.0341658038162
0.00160813126805
0.000234894702532
0.000100554228197
1767.33211956
504.243122605
158.711553989
54.4458309845
19.5398296218
7.2244034465
3.01262930855
1.53463074199
0.964351008585
0.719144440148
0.621386718065
0.609588487283
0.619262083145
0.575554051617
0.456825466859
0.280545749467
0.0737531619005
0.00380293769379
0.000354970775352
0.000117928870434
1720.57625386
510.229605027
164.509665311
56.0768600413
19.0593132224
6.9994145824
2.92787924728
1.47562937049
0.902618340673
0.651664689829
0.549501899456
0.528973458932
0.547946720607
0.531768840803
0.448750798252
0.321409298276
0.125091949771
0.00999559452199
0.000596270819109
0.000144508292229
1745.59194879
532.62828891
173.215698193
57.4367747116
19.3507039309
7.15948471621
2.98925181648
1.47581583378
0.870063847708
0.60640807101
0.496617306261
0.459396414906
0.470204255064
0.472734572721
0.428177326916
0.337640734514
0.178004095357
0.0256207952816
0.00111881510508
0.000187733794391
1832.37903119
563.29908573
180.341573389
60.0614024238
20.8158948565
7.81292529357
3.2314669702
1.54879933372
0.877556173493
0.591991922401
0.46977764206
0.414013424602
0.407121351574
0.41706267195
0.405608609982
0.350822930129
0.228340988024
0.0557915801377
0.00237874694427
0.000263414899576
2027.43751361
602.94221782
187.699959064
64.9970259115
24.0739714585
8.98542560365
3.63795571751
1.69153432283
0.926429922855
0.607912427472
0.4675447562
0.394831242066
0.369684770646
0.378113509668
0.390595764918
0.370860020527
0.279374288892
0.0998834231606
0.00578928719448
0.000408764561566
2289.26219963
654.584315504
201.355459962
71.0556378286
27.3031367805
10.3676946556
4.15036097472
1.887322543
1.00933511871
0.648087931314
0.484560407209
0.396233228506
0.35587965596
0.359330796508
0.387131339196
0.394676502844
0.318102935411
0.152286614697
0.0149872962499
0.000708799808782
2502.08019424
710.440727922
219.298755237
77.4535687609
29.9084144812
11.3996719548
4.58577298463
2.08228928769
1.10540678186
0.700752808395
0.512522457547
0.410488594797
0.358633211404
0.356962448105
0.393084976843
0.417038747814
0.349405862286
0.206180033875
0.0352196533495
0.00135284805454
2641.51487278
759.751496042
236.132850129
82.9216870178
31.5508980218
11.9340931109
4.83476076058
2.21882779516
1.18831393447
0.752812626729
0.543169142411
0.430015067563
0.371170455777
0.3652072147
0.405444737626
0.438510801833
0.379292353383
0.255929192664
0.0678560915316
0.00278388024267
2774.62927806
806.007027125
252.031454638
87.553359233
32.2594930291
12.0243553564
4.91443099434
2.29763791115
1.25428725539
0.798827178885
0.572269505382
0.451217092253
0.388509871497
0.380255828215
0.422463012253
0.459572330449
0.409047574637
0.295044630478
0.108363477754
0.00607614369461
2919.32831292
854.573749865
268.244709524
91.8543248399
32.4438869907
11.9229071214
4.92096554483
2.34709657782
1.30805734703
0.836952257409
0.597755122262
0.472398597665
0.408124490913
0.398825520086
0.442044145868
0.480251211856
0.439609715297
0.329018116689
0.152524328156
0.0136899146544
3101.26016832
907.221610258
284.324372515
95.6074011521
32.5594231699
11.8641910263
4.9279619839
2.38800946164
1.35214072378
0.865784770576
0.618628246236
0.492493476115
0.428357225503
0.41842105191
0.461070772144
0.499064781316
0.471929128866
0.367312450381
0.200386234504
0.0297382838397
4.55172497326e-05
4.55089645032e-05
4.55122208578e-05
4.5525320464e-05
4.55484382571e-05
4.55836572238e-05
4.56361075478e-05
4.5717163562e-05
4.58522921133e-05
4.60992056e-05
4.65893728724e-05
4.76240443236e-05
4.99112215018e-05
5.52393915296e-05
6.89017421672e-05
0.000111785542183
0.00031158188054
0.00202786973445
0.0267070911456
0.462860146573
4.55617013203e-05
4.55347425659e-05
4.55343262401e-05
4.55564350845e-05
4.56019148075e-05
4.56780261408e-05
4.58038117068e-05
4.60227578768e-05
4.64298293699e-05
4.72269023511e-05
4.88386406771e-05
5.21768148358e-05
5.93511840651e-05
7.60521975134e-05
0.000121933212082
0.00029227559548
0.00125949006757
0.0089333390741
0.0840799555015
0.807260862098
4.57661910167e-05
4.5707242623e-05
4.56946177909e-05
4.57221199986e-05
4.57933791885e-05
4.59269280933e-05
4.61689172873e-05
4.66191355731e-05
4.7480711505e-05
4.91554012025e-05
5.24431869794e-05
5.90315584149e-05
7.29459833942e-05
0.000105839810698
0.000201558008743
0.000584800296848
0.00273769543801
0.0176573613803
0.138191840259
0.914102707466
4.60807620343e-05
4.59807930401e-05
4.59491418755e-05
4.59794399487e-05
4.60825784287e-05
4.62967897732e-05
4.67090069926e-05
4.74940367691e-05
4.89848745428e-05
5.1808220524e-05
5.71871878834e-05
6.77428613154e-05
9.00140692827e-05
0.00014407157771
0.000309652097427
0.00100100576016
0.00475716671751
0.0293108141162
0.187817306884
0.913875875716
4.64385416913e-05
4.62923396351e-05
4.62389640005e-05
4.62748704797e-05
4.64238099097e-05
4.67519542989e-05
4.73970926889e-05
4.86187676386e-05
5.08880415766e-05
5.50705741119e-05
6.28651894057e-05
7.80244779852e-05
0.000110332175591
0.000191302835363
0.000451180893352
0.00156525576549
0.00750140980384
0.043903449107
0.226273905646
0.880207716653
4.67915907086e-05
4.65967283505e-05
4.6523676656e-05
4.65746630541e-05
4.67913497183e-05
4.72738802333e-05
4.82161082887e-05
4.9965324347e-05
5.31341567373e-05
5.88447837983e-05
6.93431828668e-05
8.97625100912e-05
0.000134042574971
0.000249050841019
0.000634904953283
0.00232495464422
0.0112746164668
0.0601386018829
0.251425584588
0.841017565882
4.71151217006e-05
4.68713388571e-05
4.67849909525e-05
4.6866157193e-05
4.717792747e-05
4.78576678741e-05
4.91568010175e-05
5.15107788785e-05
5.56790965467e-05
6.30675225496e-05
7.65635325561e-05
0.000102995092298
0.000161638961557
0.000320017460444
0.000874895390638
0.00335399637974
0.0162410927991
0.0758047656684
0.264748955829
0.803247931325
4.73994755024e-05
4.71089559606e-05
4.7019598911e-05
4.71501253434e-05
4.75868645402e-05
4.85054274958e-05
5.02145881092e-05
5.32390216962e-05
5.84952929355e-05
6.77111979402e-05
8.45369904677e-05
0.00011789980147
0.00019399659557
0.000408377462484
0.00119156447453
0.00474418540812
0.022234559786
0.088991463461
0.269605876709
0.767954455653
4.7644270932e-05
4.73121293913e-05
4.72331861183e-05
4.74346371055e-05
4.80264750036e-05
4.9222340386e-05
5.13881447195e-05
5.51413084905e-05
6.15716764647e-05
7.27800855909e-05
9.33348801889e-05
0.000134793479436
0.000232437428729
0.000520121289596
0.00161203478868
0.00657912251328
0.0287685918767
0.098805988637
0.26910135169
0.734927833123
4.7857632366e-05
4.74911094627e-05
4.74375954393e-05
4.77319542418e-05
4.85074150127e-05
5.00151270763e-05
5.26790291568e-05
5.72160386268e-05
6.49119583587e-05
7.83062863704e-05
0.000103085624496
0.000154145246423
0.000278827801695
0.000663393768015
0.00216900246732
0.00889205892313
0.0352138115971
0.105326081534
0.265398483717
0.703863241971
4.8057241793e-05
4.76632395927e-05
4.76493217947e-05
4.80567855206e-05
4.90412806392e-05
5.08912665881e-05
5.40912309236e-05
5.94678275735e-05
6.85325269666e-05
8.43470461539e-05
0.000113976248059
0.000176602850939
0.000335708693974
0.000848769813651
0.00289760144364
0.0116329340358
0.0410183297377
0.109144474783
0.259835421362
0.674517864696
4.82703644945e-05
4.78514751427e-05
4.78874594602e-05
4.84243030956e-05
4.96390736693e-05
5.18579398063e-05
5.56302526101e-05
6.19062872018e-05
7.24609674067e-05
9.09846514399e-05
0.000126260531049
0.000203036525202
0.000406461078418
0.00108934780768
0.0038294076967
0.0146669619241
0.0458490839448
0.110955950931
0.253218585596
0.646717942931
4.85302379483e-05
4.80804629179e-05
4.81702067239e-05
4.88474191497e-05
5.03093279344e-05
5.29208437937e-05
5.7302336623e-05
6.45455806531e-05
7.67366089189e-05
9.83307692446e-05
0.000140277296257
0.000234608703537
0.000495510907283
0.00140051897672
0.00498370530225
0.0178064307942
0.0496103653248
0.111351200221
0.24604033569
0.620347338284
4.88686627511e-05
4.83708803597e-05
4.85109595587e-05
4.93344468713e-05
5.10570582832e-05
5.40841270791e-05
5.91152083236e-05
6.74062171146e-05
8.14146776463e-05
0.000106537338746
0.000156483304466
0.000272880991314
0.000608581245889
0.00179934022768
0.0063588640143
0.0208592420765
0.0523771264349
0.110770604993
0.238606298063
0.595330496372
4.93092061449e-05
4.87356301481e-05
4.89167971872e-05
4.98892759408e-05
5.1885149115e-05
5.53526773594e-05
6.1081235525e-05
7.05196383556e-05
8.65742887982e-05
0.000115814359681
0.000175502879862
0.000319964048798
0.000752965952746
0.00230336484552
0.00792781963728
0.0236717422207
0.0543068471261
0.109526255677
0.231105751532
0.571607322924
4.98667829689e-05
4.91815780859e-05
4.93915143193e-05
5.05151412905e-05
5.27985159808e-05
5.67365408395e-05
6.32222810913e-05
7.39343341363e-05
9.23284314859e-05
0.000126452251594
0.000198191777937
0.000378699323624
0.000937716260195
0.00292855296975
0.00963982881035
0.0261503785816
0.0555723490789
0.107836047836
0.223651550869
0.549104130142
5.0554720635e-05
4.97164180987e-05
4.99419263031e-05
5.12202473592e-05
5.38090533912e-05
5.82552997741e-05
6.55738417945e-05
7.77207008146e-05
9.88325276724e-05
0.000138844278713
0.000225707097712
0.000452834192494
0.00117353193413
0.00368592907843
0.0114278872531
0.028260045895
0.0563260545134
0.105850514599
0.216303684853
0.527708890612
5.1394029105e-05
5.03558404977e-05
5.05832644904e-05
5.2021709806e-05
5.4938372598e-05
5.99398071603e-05
6.81860806479e-05
8.19722159234e-05
0.000106288702525
0.00015350457649
0.000259570302091
0.000547120887028
0.00147210219173
0.00457736577763
0.0132193519076
0.0300076585628
0.0566880749076
0.10367133934
0.209085261642
0.50725974036
5.24181991044e-05
5.11257570161e-05
5.13398305105e-05
5.29450833171e-05
5.621637949e-05
6.18298542611e-05
7.11206447708e-05
8.68018928557e-05
0.000114944296628
0.000171077929447
0.000301704679638
0.000667243461623
0.00184469466882
0.00559189135062
0.0149466022481
0.0314222958651
0.0567469222531
0.101364496269
0.201995297658
0.487552236011
5.3669573342e-05
5.20575009597e-05
5.22398990292e-05
5.40190769602e-05
5.76756519735e-05
6.39679734063e-05
7.44436588096e-05
9.23345250023e-05
0.000125084885567
0.00019233877519
0.000354425918882
0.000819489013575
0.00230002383813
0.00670443243822
0.016555064148
0.032539931035
0.056565295034
0.0989707619757
0.195020761681
0.468364949193
5.51898494973e-05
5.31783638482e-05
5.33068909616e-05
5.5267142389e-05
5.93430978839e-05
6.63908275906e-05
7.82165244672e-05
9.86967470618e-05
0.000137024222561
0.000218180143124
0.00042037282751
0.00101016059289
0.00284186452691
0.00787827106416
0.0180072544977
0.0333953362508
0.0561871459167
0.0965146230735
0.188147478827
0.449496567694
5.70117478266e-05
5.45024477423e-05
5.45507243544e-05
5.6699240656e-05
6.12319966451e-05
6.91214400171e-05
8.24883124733e-05
0.000106009790677
0.000151097914504
0.000249601749286
0.000502394964673
0.00124486917519
0.00346730894716
0.00907090777315
0.0192831091418
0.0340198904391
0.0556445302936
0.0940119577004
0.181369035573
0.430803040932
5.91595125718e-05
5.60280264241e-05
5.5964466013e-05
5.8308529598e-05
6.33391934307e-05
7.21673307948e-05
8.72954717877e-05
0.000114392040882
0.000167670975052
0.000287714853644
0.000603448507145
0.00152793382071
0.00416651673896
0.0102413409573
0.0203776996377
0.0344423563336
0.0549631780191
0.0914758275527
0.174691726038
0.41222236858
6.16640081133e-05
5.77458943906e-05
5.75305874348e-05
6.00773015286e-05
6.56517543561e-05
7.55288006147e-05
9.26731118188e-05
0.000123976165309
0.000187166210968
0.000333778635857
0.000726552173152
0.00186205045781
0.00492410883362
0.011356129481
0.0212975413456
0.0346900658945
0.054166121516
0.088919906112
0.168134965296
0.393778965049
6.45914739199e-05
5.96581520606e-05
5.92366980506e-05
6.19918806367e-05
6.81621654036e-05
7.92154789753e-05
9.86747081038e-05
0.000134936065446
0.000210106574524
0.000389258242877
0.000874788761918
0.00224816151085
0.00572146910695
0.0123923520831
0.0220563448969
0.0347890831587
0.0532750167873
0.0863591402584
0.161727272262
0.375567929253
6.80749812876e-05
6.17995076061e-05
6.10931919703e-05
6.40585339739e-05
7.08833739302e-05
8.32613231227e-05
0.000105388660554
0.000147508865457
0.000237149436766
0.000455862490036
0.00105125030202
0.00268528151551
0.00653893874847
0.0133372517712
0.0226709875676
0.0347633639979
0.0523097728829
0.0838084845324
0.155500172975
0.35772796379
7.23370236047e-05
6.4246210061e-05
6.31393988347e-05
6.63080866895e-05
7.38520079838e-05
8.77265488032e-05
0.000112939455401
0.000161996792018
0.000269088272478
0.00053550923814
0.00125880741274
0.00317012085515
0.00735736670559
0.0141857962583
0.0231583978257
0.034633677529
0.0512875134945
0.0812808652216
0.14948226811
0.340414951381
7.77178511832e-05
6.71099143274e-05
6.54337603771e-05
6.87854278107e-05
7.71170560985e-05
9.26848551847e-05
0.000121472575035
0.000178747820997
0.000306817017809
0.000630204620096
0.00149969692183
0.00369669629145
0.00815919357813
0.0149379047468
0.0235338971299
0.0344171985663
0.0502220434168
0.0787858489011
0.143695645977
0.323784556558
8.47503871403e-05
7.05363375378e-05
6.80418443498e-05
7.15355425915e-05
8.07250892831e-05
9.82075105288e-05
0.000131136345673
0.000198131784738
0.000351281894146
0.00074188819779
0.00177508659757
0.00425637609821
0.00892946052649
0.0155965121323
0.0238109426318
0.0341279976508
0.0491241732291
0.0763294078488
0.138154496511
0.30798440585
9.42639490927e-05
7.47137693754e-05
7.10342151792e-05
7.4599189209e-05
8.47153672468e-05
0.000104358517509
0.000142077678051
0.000220536104359
0.000403463975891
0.000872339159015
0.00208484944883
0.00483867909925
0.00965682299964
0.016166676804
0.0240017154753
0.0337780703572
0.0480026691826
0.0739146143554
0.132865031064
0.293150088735
0.000107615980441
7.99011847155e-05
7.44981707237e-05
7.80224961228e-05
8.91298845076e-05
0.000111207184898
0.000154460965517
0.000246397769277
0.000464426255409
0.00102320990597
0.00242766252661
0.00543265740591
0.0103341980595
0.0166551685615
0.0241176985801
0.0333781529038
0.0468650626747
0.0715423745857
0.127824973897
0.279397684041
0.000127253854176
8.64888522817e-05
7.85587863246e-05
8.18742027365e-05
9.40324265369e-05
0.000118852661368
0.000168505360898
0.000276267531807
0.000535417157256
0.00119614696214
0.00280129555337
0.00602823992766
0.0109585757562
0.01706984847
0.0241696385045
0.0329378108615
0.0457177937868
0.0692116698734
0.123022169494
0.266809176022
0.000157423952199
9.50374066015e-05
8.33887141353e-05
8.62558602791e-05
9.95222370798e-05
0.000127444200161
0.000184519358205
0.000310871554806
0.000617953842322
0.00139281539542
0.00320273365856
0.00661683287782
0.0115297882296
0.0174184714994
0.0241667182446
0.032464687998
0.0445654982823
0.0669190471548
0.118432686922
0.255413087239
0.000204970941503
0.000106254822863
8.91906232451e-05
9.12914677969e-05
0.000105726885557
0.000137177185159
0.000202901931196
0.000351111270204
0.000713756609186
0.00161458193579
0.00362782513386
0.00719090343725
0.0120485679824
0.0177071449641
0.0241153642101
0.0319633943771
0.0434098916329
0.064657819014
0.114020052539
0.245168256812
0.000282087896851
0.000121075468431
9.6166045634e-05
9.70889748959e-05
0.000112762483781
0.000148248395716
0.000224081202998
0.000397941164589
0.000824420568973
0.00186174294689
0.00407051886634
0.00774295240677
0.0125146978237
0.017939137836
0.024018454461
0.0314348275096
0.0422490499147
0.0624177367698
0.109737041546
0.235959945382
0.000414588393398
0.000141051573143
0.000104510764631
0.000103693460847
0.000120675595725
0.000160781320677
0.000248396277867
0.000452125855843
0.000950862786429
0.00213256031645
0.00452229795944
0.00826481261379
0.0129262049177
0.0181148131589
0.0238756511361
0.0308766413158
0.0410778540981
0.0601858131722
0.10553037107
0.227613061012
0.000657743619578
0.000168801599113
0.000114424189625
0.000111066003645
0.000129408307453
0.000174768511981
0.000275985513663
0.000513992311392
0.00109282135894
0.0024227479024
0.00497259939704
0.00874806163496
0.0132800327474
0.0182328693884
0.0236849140581
0.0302848909361
0.0398897134698
0.0579483972442
0.101347066828
0.219926496383
0.00111876343697
0.000208048054113
0.00012609871816
)
;

boundaryField
{
    emptyPatch
    {
        type            empty;
    }
    minY
    {
        type            fixedValue;
        value           uniform 4.5592e-05;
    }
    maxY
    {
        type            inletOutlet;
        inletValue      nonuniform List<scalar> 0();
        value           nonuniform List<scalar> 0();
    }
    maxX
    {
        type            fixedValue;
        value           nonuniform List<scalar> 
37
(
0.43551964007
1.106286464
1.61364070291
1.91639483748
2.06744007173
2.12834512476
2.13790151408
2.11727685467
2.07838431589
2.02850205628
1.9722639312
1.91267999735
1.85172830734
1.79070511067
1.73042803012
1.67135718087
1.61367778084
1.55737288326
1.50230001169
1.4482725208
1.39513560121
1.34282244507
1.29137790382
1.24094687413
1.19173671975
1.14397216971
1.09785980285
1.05356996426
1.01123158791
0.970929351938
0.932693890793
0.896483714061
0.86216590065
0.82950831584
0.798193758427
0.767856087106
0.738115094932
)
;
    }
    water_to_heater
    {
        type            fixedValue;
        value           nonuniform List<scalar> 
61
(
22.2736159098
1089.52900429
1089.52900429
1841.41162668
1841.41162668
2513.31039452
2513.31039452
2865.61752002
2899.69806846
2823.45381104
2823.45381104
2832.62563877
2832.62563877
2826.72153057
2826.72153057
2791.62248006
2714.37573948
2620.943691
2620.943691
2640.34722928
2640.34722928
2849.1105502
2849.1105502
3387.51981882
4222.00395724
4551.99403977
4551.99403977
4647.06704818
4647.06704818
4694.81185206
4694.81185206
4725.72644062
4795.0675933
4899.75615676
4899.75615676
5059.0081374
5059.0081374
5237.9232043
5237.9232043
5362.54918965
5303.97612641
5006.18141798
5006.18141798
4779.94008401
4779.94008401
4802.89368835
4802.89368835
5064.3926313
5521.79950101
6212.24122008
6212.24122008
7004.98192418
7004.98192418
7685.68432582
7685.68432582
8216.94575065
8732.84579733
9273.0187709
9273.0187709
9897.50529441
9897.50529441
)
;
    }
    procBoundary2to3
    {
        type            processor;
        value           nonuniform List<scalar> 
41
(
3330.2848036
970.958341652
303.570825462
99.7327942325
33.228465653
12.0319338824
4.98955314109
2.43929306045
1.38853244106
0.885967492916
0.635184684766
0.510811882707
0.44767050027
0.436225713432
0.474889849201
0.514026661025
0.508206156702
0.415633964282
0.255141226413
0.0576231233545
0.000119101787142
0.000138814016626
0.000190074128862
0.00030675829527
0.000583336604022
0.0012487427626
0.0027259101555
0.00541036643702
0.00918537591656
0.01357358749
0.0182921332761
0.0234444624511
0.0296563786423
0.0386800927426
0.0556978740084
0.0971456980898
0.212612851514
0.00201569007917
0.000264775886058
0.000119101787142
0.000139831885708
)
;
    }
}


// ************************************************************************* //
