/*--------------------------------*- C++ -*----------------------------------*\
| =========                 |                                                 |
| \\      /  F ield         | OpenFOAM: The Open Source CFD Toolbox           |
|  \\    /   O peration     | Version:  2312                                  |
|   \\  /    A nd           | Website:  www.openfoam.com                      |
|    \\/     M anipulation  |                                                 |
\*---------------------------------------------------------------------------*/
FoamFile
{
    version     2.0;
    format      ascii;
    arch        "LSB;label=32;scalar=64";
    class       volScalarField;
    location    "0.34/water";
    object      d.gas;
}
// * * * * * * * * * * * * * * * * * * * * * * * * * * * * * * * * * * * * * //

dimensions      [0 1 0 0 0 0 0];

internalField   nonuniform List<scalar> 
1496
(
0.00499601335005
0.00499601336025
0.00499601337802
0.00499601343059
0.00499601352721
0.00499601366427
0.00499601385537
0.00499601408791
0.00499601433992
0.00499601624443
0.00499601247239
0.00499600085037
0.00499598830523
0.00499597646134
0.00499596250393
0.00499595161732
0.00499594364463
0.00499593480425
0.00499592408179
0.00499591185415
0.00499602639186
0.0049960264109
0.00499602642876
0.00499602648087
0.00499602658208
0.0049960267349
0.00499602694481
0.00499602720575
0.00499602752375
0.00499602914752
0.00499602794631
0.00499602203477
0.00499601394538
0.00499600512343
0.00499599127265
0.00499597755937
0.0049959673728
0.0049959585381
0.00499594949686
0.00499594112963
0.0049960388971
0.00499603890321
0.00499603890359
0.00499603893819
0.00499603902642
0.00499603917498
0.00499603938771
0.00499603967002
0.00499604003357
0.00499604113057
0.00499604174435
0.00499603936836
0.00499603573354
0.00499603036425
0.00499601952569
0.00499600572916
0.00499599477025
0.0049959862445
0.00499597896503
0.0049959741603
0.00499605074311
0.00499605075684
0.00499605076064
0.00499605078624
0.00499605085944
0.004996050988
0.00499605117983
0.00499605144911
0.00499605180877
0.00499605215137
0.00499605319568
0.00499605293347
0.00499605241519
0.0049960515702
0.00499604591144
0.00499603549184
0.00499602554847
0.00499601748913
0.00499601216522
0.00499601007006
0.00499606215019
0.00499606215228
0.00499606213691
0.00499606213055
0.00499606216306
0.00499606224277
0.00499606238343
0.00499606260597
0.00499606293412
0.00499606228408
0.00499606263854
0.00499606352672
0.00499606535956
0.00499606733194
0.00499606693749
0.004996063197
0.00499605714871
0.00499605133041
0.00499604812907
0.00499604751852
0.0049960731164
0.00499607311784
0.00499607309253
0.0049960730561
0.00499607303594
0.00499607304537
0.00499607310726
0.00499607325394
0.00499607352157
0.00499607185658
0.00499607088976
0.00499607105165
0.00499607301139
0.00499607825105
0.00499608421893
0.0049960862443
0.00499608564538
0.00499608412624
0.00499608314513
0.00499608361219
0.00499608405052
0.00499608403299
0.00499608397927
0.00499608388748
0.00499608377161
0.00499608364513
0.00499608352428
0.00499608343711
0.00499608351977
0.00499608093779
0.00499607893173
0.00499607831706
0.00499608074421
0.00499608858152
0.00499609870427
0.00499610539382
0.00499610945794
0.00499611241545
0.00499611470101
0.00499611716126
0.00499609545239
0.00499609542617
0.00499609536729
0.00499609525679
0.00499609509092
0.00499609487273
0.00499609462386
0.00499609453411
0.00499609363123
0.0049960912991
0.00499608867758
0.00499608734172
0.0049960900563
0.00499610065569
0.00499611506011
0.0049961249624
0.00499613220078
0.00499613920116
0.00499614483686
0.00499615033863
0.00499610780673
0.004996107788
0.0049961077561
0.00499610768602
0.00499610757251
0.00499610741512
0.00499610776645
0.00499610897855
0.0049961070106
0.00499610364769
0.00499610061205
0.00499609933953
0.00499610302504
0.00499611647744
0.00499613465074
0.00499614823999
0.00499615943324
0.00499616947329
0.00499617849941
0.00499618830014
0.00499612090735
0.00499612091242
0.00499612089874
0.00499612084151
0.00499612072823
0.00499612109993
0.00499612207608
0.00499612161335
0.00499611901387
0.00499611503562
0.00499611233046
0.00499611343294
0.00499612252506
0.00499614305109
0.0049961655272
0.00499618248289
0.00499619681644
0.00499620929001
0.00499622199629
0.00499623715641
0.00499613460008
0.00499613466579
0.00499613464296
0.00499613463385
0.00499613463424
0.0049961365576
0.0049961390794
0.00499613839648
0.00499613410939
0.00499613112985
0.00499613526844
0.00499614887056
0.00499617161468
0.00499619693155
0.00499621765683
0.00499623463942
0.00499624975568
0.00499626364263
0.00499628081115
0.00499630122369
0.00499615031709
0.00499615043855
0.00499615009535
0.0049961493748
0.00499615119653
0.00499615692399
0.00499616233213
0.00499616367887
0.00499616589252
0.00499618125499
0.00499620638093
0.00499623024024
0.00499625251399
0.00499626943997
0.00499628673526
0.00499630344138
0.00499631855158
0.00499633442965
0.00499635645795
0.00499638045722
0.00499617060534
0.00499620086584
0.00499618370037
0.00499617956121
0.00499618387867
0.00499619270978
0.00499620148281
0.00499621211681
0.00499623945801
0.00499627315122
0.00499629095528
0.00499630945745
0.00499632319753
0.00499634062551
0.00499636240622
0.00499638185093
0.00499639956532
0.00499642059486
0.00499644768407
0.00499647389404
0.00499619338883
0.00499627388716
0.00499624048225
0.0049962313724
0.00499623727146
0.00499624734609
0.0049962604908
0.00499628919465
0.00499632736651
0.00499634453006
0.00499636447299
0.00499638027572
0.00499640138024
0.00499642454652
0.00499644661146
0.00499647594846
0.00499649876828
0.00499652572867
0.00499655644627
0.00499658446081
0.0049962218441
0.00499634784761
0.00499631601169
0.004996304171
0.0049963133527
0.00499632824824
0.00499635570849
0.00499639784461
0.00499642153607
0.00499644487997
0.00499646267193
0.00499648606246
0.00499651047219
0.00499653363131
0.0049965746073
0.00499660128827
0.0049966263185
0.00499665733002
0.0049966890554
0.00499671737824
0.00499625765088
0.00499640777573
0.00499639991116
0.00499640717636
0.00499643217089
0.00499646344476
0.00499650896692
0.00499654471491
0.00499657510124
0.00499659617523
0.00499662044414
0.00499664489279
0.0049966724176
0.00499672063935
0.00499674822838
0.00499676951709
0.00499679555711
0.00499682612586
0.00499685424806
0.00499687907294
0.00499647551001
0.00499664876633
0.00499665594574
0.0049966699486
0.00499669569857
0.00499672617372
0.00499676429682
0.0049968011581
0.00499682866461
0.00499685360561
0.00499688564972
0.00499691986212
0.00499696701405
0.00499698132109
0.00499698843661
0.00499700104038
0.00499702056405
0.00499704053785
0.00499705795623
0.00499707297033
0.00499723392442
0.00499740688281
0.00499738862087
0.00499737450928
0.00499736694174
0.00499735829451
0.00499735432468
0.00499735540972
0.0049973561043
0.00499736804856
0.00499737335702
0.00499737478526
0.0049973498578
0.00499732282884
0.00499730463552
0.00499729748509
0.00499729543635
0.00499729457685
0.00499729346075
0.00499729192962
0.00499807443581
0.00499817822876
0.0049981543173
0.00499814150395
0.00499813645487
0.0049981280666
0.00499810766444
0.00499807240147
0.00499802421284
0.00499795998971
0.00499788671862
0.00499781176482
0.00499774585493
0.00499769142007
0.00499764752806
0.00499761176163
0.00499758185653
0.00499755680139
0.0049975346313
0.00499751503588
0.00499820113107
0.00499820240708
0.00499820320384
0.00499820389645
0.00499820459854
0.00499820577654
0.00499821024464
0.00499821201241
0.00499820468812
0.00499818286779
0.00499813895626
0.00499807970324
0.00499802010351
0.00499796454601
0.00499791170766
0.00499786226255
0.00499781825327
0.00499777971543
0.00499774527932
0.00499771473196
0.00499821373122
0.00499821393316
0.00499821402256
0.00499821417791
0.00499821439055
0.00499821464532
0.00499821492344
0.00499821518743
0.00499821541342
0.00499821552969
0.00499820989858
0.00499818802573
0.00499815338947
0.00499811252992
0.0049980680993
0.00499802233628
0.00499798011011
0.00499794064587
0.0049979045326
0.00499787172299
0.00499822219407
0.00499822230069
0.00499822234719
0.00499822239216
0.00499822245326
0.00499822254821
0.00499822267927
0.00499822285255
0.00499822305919
0.00499822327516
0.00499822332737
0.00499821861488
0.0049982036253
0.004998178734
0.00499814640712
0.00499811104958
0.00499807676902
0.00499804276948
0.00499800991987
0.00499798070737
0.00499823010261
0.00499823018745
0.00499823023716
0.00499823029367
0.00499823037472
0.00499823047209
0.00499823059025
0.00499823073134
0.0049982309012
0.00499823111661
0.00499823139044
0.00499822881327
0.00499821956335
0.00499820271051
0.00499817998141
0.00499815562492
0.00499813003801
0.00499810142151
0.00499807427148
0.00499804864877
0.00499823761584
0.00499823768731
0.00499823772819
0.00499823778369
0.00499823787375
0.00499823797497
0.00499823808526
0.00499823820036
0.00499823832544
0.0049982384606
0.00499823865755
0.00499823528879
0.00499822661349
0.00499821253063
0.00499819532578
0.00499817819362
0.00499815833443
0.0049981354558
0.00499811139206
0.00499808971076
0.00499824464385
0.00499824470444
0.00499824473205
0.0049982447639
0.00499824483
0.00499824492041
0.00499824501071
0.00499824510309
0.00499824519159
0.00499824530522
0.0049982455086
0.00499824092461
0.00499823145394
0.00499821788274
0.00499820303795
0.00499819038547
0.00499817638107
0.00499815578563
0.004998135769
0.00499811633843
0.00499825133641
0.00499825138715
0.00499825138812
0.00499825136207
0.00499825135172
0.00499825137503
0.00499825141579
0.00499825146236
0.0049982515257
0.00499825165411
0.00499825133159
0.00499824527097
0.00499823474842
0.00499822102482
0.00499820791578
0.00499819961857
0.00499818936323
0.00499817395965
0.0049981564744
0.00499814039887
0.00499825807515
0.00499825809379
0.00499825802686
0.00499825785712
0.00499825769789
0.00499825759626
0.00499825755315
0.00499825753425
0.00499825754606
0.00499825768841
0.00499825469351
0.0049982465368
0.0049982348203
0.00499822081649
0.0049982103784
0.00499820862023
0.00499820617538
0.00499819411445
0.00499818354387
0.00499817967408
0.00499826601317
0.00499826606655
0.00499826601938
0.0049982652716
0.00499826455948
0.00499826437582
0.00499826426872
0.00499826426977
0.0049982641466
0.00499826221639
0.00499825622718
0.00499824626489
0.00499823354039
0.00499822052414
0.00499821758757
0.00499822753319
0.00499823053156
0.00499822916922
0.00499823350164
0.00499822505772
0.00499827466038
0.00499827514563
0.00499827471527
0.00499827470941
0.00499827721677
0.0049982811736
0.00499828439273
0.0049982846596
0.00499828160666
0.00499827517643
0.00499826574071
0.00499825353321
0.00499823994885
0.00499823213439
0.00499824547333
0.00499826751948
0.0049982796052
0.00499829511587
0.00499829760922
0.00499828386875
0.00499828378054
0.00499830641354
0.00499829840036
0.00499829824956
0.0049983020389
0.00499830497075
0.0049983060982
0.00499830482488
0.00499830079519
0.0049982938696
0.00499828370698
0.00499827176151
0.0049982634291
0.00499827664039
0.00499831171094
0.00499834149956
0.00499836981486
0.00499838562093
0.00499837738537
0.0049983643953
0.00499829934303
0.00499836245472
0.00499834091017
0.00499833902519
0.00499834459533
0.00499834696746
0.00499834494712
0.00499834063543
0.00499833496562
0.0049983293
0.00499832439125
0.00499832613184
0.00499834654547
0.00499838830701
0.00499843009063
0.00499847160787
0.00499850537842
0.00499850370993
0.00499849133452
0.00499848173182
0.00499832290366
0.00499842102885
0.00499839086168
0.00499838882591
0.00499839936721
0.00499840590043
0.00499840718421
0.0049984091391
0.00499841750936
0.00499843341569
0.00499845511348
0.00499849062501
0.00499852958717
0.00499856697813
0.00499862139906
0.00499867812978
0.00499868440433
0.00499866876949
0.00499865921002
0.00499865273523
0.00499835473756
0.00499847863275
0.00499846248595
0.00499846995099
0.00499849346225
0.00499851313991
0.00499853491727
0.00499856873957
0.00499861395702
0.00499865017958
0.00499868604303
0.00499871651056
0.00499875690534
0.00499883889943
0.00499892264514
0.00499893225694
0.00499890863709
0.00499889365106
0.0049988864104
0.00499887961184
0.00499850610524
0.00499867472219
0.00499867528568
0.0049986942206
0.00499872264796
0.00499874703056
0.00499878086696
0.00499882825046
0.00499887265401
0.00499891125697
0.00499895600078
0.00499902983344
0.00499915894199
0.004999247428
0.0049992412427
0.0049992027463
0.00499917629369
0.00499916161373
0.00499915203836
0.0049991419328
0.00499905086745
0.00499923410965
0.0049992425041
0.00499924023421
0.00499924177852
0.00499924072684
0.00499925003211
0.00499927703304
0.0049993208684
0.00499938766491
0.00499948344662
0.00499958820192
0.00499961217675
0.00499956567964
0.00499951056567
0.00499947145221
0.00499944760196
0.00499943253705
0.00499942132835
0.00499941082774
0.00499984310818
0.00499998049219
0.00499995111931
0.00499993471145
0.00499993239988
0.00499993813288
0.00499995008181
0.00499996584033
0.00499998244392
0.00499999172844
0.00499997308354
0.00499991752883
0.00499985021883
0.00499979268001
0.00499975038946
0.00499972144541
0.0049997011702
0.00499968584413
0.00499967412557
0.00499966270599
0.0050000173608
0.00500005938211
0.00500003911272
0.00500003024698
0.00500002802649
0.00500003130327
0.00500003715643
0.00500004205081
0.0050000423987
0.00500003549641
0.00500002009975
0.00500000053875
0.00499998261395
0.00499996977373
0.00499996055258
0.00499995170197
0.00499994204434
0.00499993113965
0.00499991997943
0.00499990802039
0.00499577595404
0.00499575449483
0.00499573609349
0.00499570938125
0.0049956793311
0.00499565127344
0.00499562451459
0.00499559707655
0.0049955725448
0.00499555690253
0.00499555024803
0.00499554858658
0.00499554858846
0.0049955486549
0.0049955487053
0.00499556531825
0.00499589853847
0.00499588185461
0.00499586235993
0.00499584235161
0.00499582241304
0.00499580362263
0.00499578784397
0.00499576735235
0.00499573630067
0.00499570735393
0.00499567885524
0.00499564882105
0.00499561885124
0.00499559481023
0.00499557838329
0.00499556648096
0.00499555683738
0.00499555305921
0.00499555309664
0.00499556486277
0.00499593301838
0.00499592079124
0.00499590570233
0.00499589019038
0.00499587473495
0.00499585966925
0.00499584608588
0.0049958361421
0.00499581424715
0.00499578685683
0.00499576166441
0.00499573646771
0.00499570979372
0.00499568408183
0.00499566288556
0.00499564470296
0.00499562807977
0.00499561463008
0.00499561009486
0.00499561974459
0.00499596991878
0.00499596136953
0.004995950559
0.00499593923311
0.00499592802549
0.00499591721827
0.00499590741347
0.00499590039672
0.004995893423
0.0049958771893
0.0049958575596
0.00499583987473
0.0049958224611
0.00499580328074
0.00499578493833
0.00499576876727
0.00499575236223
0.0049957335735
0.00499572298719
0.00499573067973
0.00499600823136
0.00499600301637
0.00499599563596
0.00499598740565
0.00499597926914
0.00499597162673
0.00499596483557
0.0049959594361
0.00499595732437
0.00499595402257
0.00499594578312
0.00499593626651
0.00499592765158
0.00499591651272
0.00499590470257
0.00499589581974
0.00499588650044
0.00499587453254
0.00499586373741
0.00499586642681
0.00499604671429
0.00499604357625
0.00499603815692
0.00499603179965
0.00499602568335
0.00499602038902
0.00499601620308
0.00499601343984
0.00499601211765
0.00499601271352
0.00499601253913
0.00499601108024
0.00499601179073
0.00499600767802
0.004995996906
0.00499599330969
0.00499599116505
0.00499598759707
0.0049959835207
0.00499598325458
0.00499608353753
0.00499608157165
0.00499607728917
0.00499607247991
0.00499606836019
0.00499606549682
0.00499606402476
0.00499606337528
0.00499606320025
0.00499606414296
0.00499606608069
0.00499606785045
0.00499606928678
0.00499606950269
0.00499606139276
0.0049960581602
0.00499605789559
0.00499605769871
0.00499605759041
0.00499605730072
0.00499611884785
0.00499611843279
0.00499611621499
0.00499611408917
0.00499611337085
0.00499611404994
0.00499611509557
0.00499611522419
0.00499611577762
0.00499611741905
0.00499611971904
0.00499612056397
0.00499611882527
0.00499611765086
0.00499611129492
0.0049961088016
0.0049961090859
0.00499610965737
0.00499611044575
0.00499611059538
0.00499615512428
0.00499615775863
0.0049961591465
0.00499616130688
0.00499616505782
0.00499616901221
0.00499617140563
0.00499617207905
0.00499617377125
0.00499617647248
0.00499617821283
0.00499617665132
0.00499617405872
0.00499616964115
0.0049961655098
0.00499616409688
0.00499616435499
0.00499616473639
0.00499616507486
0.00499616509915
0.00499619739691
0.00499620439162
0.00499621053101
0.00499621773346
0.00499622511698
0.00499623116363
0.00499623431721
0.00499623614369
0.00499623943686
0.00499624261399
0.004996243231
0.00499624033803
0.00499623617113
0.00499622872597
0.00499622711469
0.00499622722365
0.00499622807334
0.00499622845241
0.00499622821272
0.00499622790124
0.00499625122188
0.00499626303316
0.00499627401338
0.0049962847553
0.00499629433207
0.00499630167147
0.00499630578024
0.00499630934055
0.00499631409893
0.00499631725968
0.00499631694827
0.00499631726894
0.00499630998953
0.00499630232293
0.00499630178756
0.00499630296096
0.00499630429875
0.00499630475458
0.00499630430514
0.00499630385551
0.00499631940288
0.00499633482678
0.00499634890486
0.0049963618673
0.00499637343733
0.00499638203296
0.00499638797654
0.00499639428798
0.00499640142904
0.00499640602798
0.0049964060095
0.00499640704585
0.00499639709052
0.00499639026124
0.004996390515
0.00499639239177
0.00499639403061
0.00499639469378
0.00499639440032
0.00499639410622
0.00499640110907
0.00499641877782
0.00499643512717
0.0049964503962
0.00499646329735
0.00499647310967
0.00499648169613
0.00499649141017
0.00499650069774
0.00499650632702
0.00499651023368
0.00499651596157
0.00499649947781
0.00499648984684
0.00499649098905
0.00499649324546
0.00499649500888
0.00499649580114
0.00499649570083
0.00499649548522
0.00499649650794
0.00499651627571
0.00499653480023
0.00499655139625
0.00499656505254
0.00499657696881
0.00499658960724
0.00499660283269
0.00499661392982
0.00499662023703
0.00499662531829
0.00499663409002
0.00499661810225
0.00499660333039
0.00499660350558
0.00499660502159
0.00499660618181
0.00499660641297
0.00499660606184
0.00499660585509
0.00499660878188
0.0049966301767
0.00499664983374
0.00499666679311
0.0049966814838
0.00499669647602
0.00499671298851
0.00499672870356
0.00499674194381
0.0049967496728
0.0049967562711
0.00499676767238
0.00499675029178
0.00499672315328
0.00499672224694
0.00499672343087
0.0049967244166
0.00499672455964
0.00499672368182
0.00499672327783
0.0049967419931
0.00499676361186
0.00499678267274
0.00499679866645
0.00499681347068
0.00499682971167
0.00499684649322
0.00499686174047
0.00499687486197
0.00499688244642
0.00499688748297
0.00499689947396
0.00499690454576
0.00499684858325
0.00499684613077
0.00499684726846
0.00499684830917
0.00499684874305
0.00499684817067
0.00499684781896
0.00499690049714
0.00499691914548
0.00499693474099
0.00499694742893
0.00499696001904
0.00499697337607
0.00499698662304
0.00499699892877
0.00499701049024
0.00499701701067
0.00499702117174
0.00499702820881
0.00499705717423
0.00499699647964
0.0049969825062
0.00499698074029
0.00499698029463
0.0049969800718
0.00499697941706
0.00499697913033
0.00499708557742
0.00499709632718
0.00499710486531
0.00499711171083
0.00499711893359
0.00499712609993
0.0049971337895
0.00499714231571
0.00499715229822
0.00499715809918
0.00499716135524
0.004997165956
0.00499719313244
0.00499716304508
0.00499711554741
0.00499711029114
0.00499710840931
0.00499710774715
0.00499710658313
0.00499710594625
0.00499729028966
0.00499728916606
0.00499728779716
0.00499728679698
0.00499728652658
0.00499728639126
0.00499728781911
0.00499729222554
0.00499729881998
0.00499730215329
0.00499730256425
0.00499730343339
0.00499732374575
0.00499732976955
0.00499722975711
0.00499722498667
0.00499722314837
0.00499722294347
0.00499722418652
0.00499722509157
0.00499749849021
0.00499748512993
0.00499747406113
0.00499746559843
0.00499745870068
0.00499745292516
0.00499745002385
0.00499745325937
0.00499745627682
0.00499745593301
0.00499745325646
0.00499745039616
0.00499745936214
0.00499749827809
0.00499738378355
0.00499736496361
0.00499736360365
0.0049973645514
0.00499736794158
0.0049973700714
0.0049976889462
0.00499766814852
0.0049976518745
0.00499764017295
0.00499763197834
0.00499762713196
0.00499763022072
0.00499764127352
0.00499764098813
0.00499763953104
0.00499763837894
0.0049976391526
0.00499764336716
0.00499768494518
0.00499762905978
0.00499754017252
0.00499754833513
0.00499755494519
0.00499756066005
0.00499756407437
0.00499784421307
0.00499782274666
0.00499780757796
0.0049977989101
0.00499779683377
0.00499780380122
0.00499782560561
0.00499783981839
0.00499783973494
0.00499784863939
0.00499786905378
0.00499790085415
0.00499794068432
0.00499796525551
0.00499800400095
0.00499788536936
0.00499785706041
0.00499784216623
0.0049978336967
0.0049978303369
0.00499795572243
0.00499793746538
0.00499792586449
0.00499792223017
0.00499792731823
0.00499794286417
0.0049979579497
0.00499795748049
0.00499795577577
0.00499796149775
0.00499797389263
0.00499798805401
0.00499799519353
0.0049979945238
0.0049980417062
0.00499799898903
0.00499798075592
0.00499797509462
0.00499796954096
0.00499796620457
0.00499802766805
0.00499801180107
0.00499800342013
0.00499800384004
0.00499800964902
0.0049980159337
0.00499801445256
0.00499801077632
0.0049980098188
0.00499801120942
0.00499801327801
0.00499801341153
0.0049980124207
0.00499801136785
0.004998045405
0.00499802550443
0.00499801077374
0.00499800958866
0.00499800852732
0.00499800701459
0.00499807075399
0.00499805683381
0.00499805213603
0.00499805006204
0.00499804744573
0.00499804246543
0.00499803800353
0.00499803596072
0.00499803497362
0.00499803343755
0.00499803014801
0.00499802827228
0.00499802795684
0.00499803044274
0.00499804686653
0.00499802869213
0.00499802036279
0.00499802111215
0.00499802199542
0.00499802159123
0.00499809920327
0.00499809057881
0.00499808193527
0.00499807150217
0.00499806122468
0.00499805236718
0.00499804816384
0.00499804673264
0.00499804550181
0.00499804403069
0.00499804129193
0.00499804042344
0.00499803947305
0.00499805864303
0.00499806087619
0.00499804054596
0.00499803688875
0.00499803736597
0.00499803781345
0.00499803710994
0.00499813177464
0.0049981191695
0.00499810301555
0.00499808659828
0.00499807129724
0.00499805998557
0.00499805507214
0.00499805416205
0.00499805363867
0.00499805322714
0.00499805274076
0.00499805193282
0.00499806450057
0.00499807089589
0.00499805610922
0.00499804635371
0.00499804541986
0.00499804580665
0.00499804578951
0.00499804425705
0.00499816607988
0.00499814773748
0.00499812823029
0.00499810806782
0.00499808843595
0.00499807307275
0.0049980656264
0.00499806526467
0.00499806603251
0.0049980670574
0.00499806895458
0.00499807513039
0.0049980758894
0.00499806714969
0.00499805357581
0.00499805122178
0.004998050693
0.00499805066663
0.00499804952181
0.00499804686792
0.00499820796985
0.00499818995674
0.00499816824653
0.00499814498056
0.00499812151863
0.00499810042942
0.00499808698841
0.004998083585
0.00499808264713
0.00499808197204
0.00499808318846
0.0049981066221
0.00499808399727
0.00499806338586
0.00499805903195
0.00499805941356
0.00499805943788
0.00499805988019
0.0049980604176
0.00499806428741
0.00499826867484
0.00499824940992
0.00499822747619
0.00499820338439
0.00499817765839
0.00499815218349
0.00499813284967
0.00499812592927
0.00499812435792
0.00499812352299
0.00499812663296
0.00499816498429
0.00499811918884
0.00499808937775
0.00499808191126
0.00499807822106
0.00499807445274
0.0049980710279
0.00499807283057
0.00499807899908
0.00499835088538
0.00499833360047
0.00499831282446
0.0049982875085
0.00499825857101
0.00499822820528
0.0049982026548
0.00499819122042
0.00499818887743
0.0049981872419
0.00499819036656
0.00499823626725
0.00499818269181
0.00499812783741
0.00499811012523
0.00499810028645
0.00499809105248
0.00499808226034
0.00499808742533
0.00499808525748
0.0049984707129
0.00499845494877
0.00499843284327
0.00499840334644
0.00499836816544
0.00499832953321
0.0049982945393
0.00499827438003
0.00499826923426
0.00499826632815
0.00499826710237
0.0049983039129
0.00499828744006
0.00499817468208
0.00499813354773
0.00499811252057
0.00499809613935
0.00499808424109
0.00499808724282
0.00499807471705
0.00499864249749
0.00499862461426
0.00499859762442
0.00499856111058
0.00499851664177
0.00499846600002
0.00499841635253
0.0049983813798
0.00499836829723
0.00499836097563
0.00499835451819
0.00499836871297
0.00499840919598
0.00499826674215
0.00499814652202
0.00499809121921
0.00499805227879
0.0049980261583
0.00499802199067
0.00499799134141
0.00499886660878
0.00499884558298
0.0049988150087
0.00499877472675
0.00499872543991
0.00499866828308
0.00499860894202
0.00499855975607
0.00499853257355
0.00499851557395
0.00499849826654
0.00499849162518
0.00499850870935
0.00499844427741
0.00499820384233
0.00499805409199
0.00499796696065
0.00499793840045
0.00499792465368
0.00499789860982
0.00499912801084
0.00499910856465
0.00499908350528
0.0049990535179
0.00499901761394
0.00499897914579
0.00499894605488
0.00499891927352
0.00499889632348
0.00499888908749
0.00499888907694
0.00499889167923
0.00499890630003
0.00499893825574
0.0049988353309
0.00499859497132
0.00499844822054
0.00499838881041
0.00499831439147
0.0049983070932
0.00499939890152
0.00499938650271
0.00499937714996
0.00499936950697
0.00499936670816
0.00499938384712
0.00499942239906
0.00499945903938
0.00499950326329
0.00499957877982
0.00499965617255
0.00499970801147
0.00499974321001
0.00499977927056
0.0049998308964
0.00499985220935
0.00499975311133
0.00499962034272
0.00499951959553
0.00499949040281
0.00499965244192
0.0049996482336
0.00499964763035
0.00499965219007
0.00499968600381
0.00499974863331
0.0049998106268
0.00499988242337
0.00499995986408
0.00499998864468
0.00499998749973
0.00499998747219
0.00499998736937
0.00499998712477
0.00499998702739
0.00499998698089
0.0049999867178
0.00499997919786
0.0049999539338
0.00499993997214
0.00499989877031
0.00499989342098
0.00499988625866
0.0049998960024
0.00499993092192
0.00499995641315
0.00499998325333
0.00500000248604
0.0049999965938
0.00499999676999
0.00499999670525
0.00499999657401
0.00499999647534
0.00499999638632
0.00499999632177
0.00499999631307
0.00499999633817
0.00499999997151
0.00500000401215
0.00500000577967
)
;

boundaryField
{
    emptyPatch
    {
        type            empty;
    }
    minY
    {
        type            calculated;
        value           nonuniform List<scalar> 0();
    }
    maxY
    {
        type            calculated;
        value           nonuniform List<scalar> 
40
(
0.005
0.005
0.005
0.005
0.005
0.005
0.005
0.005
0.005
0.005
0.005
0.005
0.005
0.005
0.005
0.005
0.005
0.005
0.005
0.005
0.005
0.005
0.005
0.005
0.005
0.005
0.005
0.005
0.005
0.005
0.005
0.005
0.005
0.005
0.005
0.005
0.005
0.005
0.00500001680187
0.00500001285079
)
;
    }
    water_to_cooler
    {
        type            calculated;
        value           nonuniform List<scalar> 
38
(
0.00499556531825
0.00499556486277
0.00499561974459
0.00499573067973
0.00499586642681
0.00499598325458
0.00499605730072
0.00499611059538
0.00499616509915
0.00499622790124
0.00499630385551
0.00499639410622
0.00499649548522
0.00499660585509
0.00499672327783
0.00499684781896
0.00499697913033
0.00499710594625
0.00499722509157
0.0049973700714
0.00499756407437
0.0049978303369
0.00499796620457
0.00499800701459
0.00499802159124
0.00499803710997
0.00499804425714
0.00499804686835
0.00499806428999
0.00499807900577
0.00499808526629
0.00499807472677
0.00499799134982
0.00499789861466
0.00499830709584
0.00499949040407
0.00499993997475
0.00500000578818
)
;
    }
    water_to_heater
    {
        type            calculated;
        value           nonuniform List<scalar> 
59
(
0.00499600786365
0.00499602169772
0.0049960243589
0.00499603686563
0.00499603842942
0.00499605213003
0.00499605316322
0.00499606704449
0.00499606760302
0.00499608138014
0.0049960819494
0.00499609331422
0.00499609513815
0.00499610910325
0.00499611058249
0.0049961264248
0.0049961266395
0.00499614672427
0.00499614674907
0.00499616672598
0.00499617147101
0.00499619525967
0.004996205261
0.0049962296932
0.0049962456052
0.00499627487468
0.00499647078395
0.00499722930236
0.00499803827311
0.00499808010354
0.0049981812931
0.00499821174605
0.00499820511203
0.0049982258492
0.00499821927549
0.00499822730226
0.00499822073489
0.00499823954031
0.00499823249927
0.00499825120769
0.00499824380249
0.00499826261562
0.00499825516919
0.00499826280864
0.0049982538739
0.00499827644413
0.00499826778907
0.00499829110228
0.00499828869826
0.00499831250128
0.00499831781707
0.00499834931281
0.00499847007924
0.00499851099635
0.00499902136921
0.00499907020515
0.00499982596396
0.00499987348689
0.00500001177656
)
;
    }
    procBoundary0to1
    {
        type            processor;
        value           nonuniform List<scalar> 
41
(
0.00499599943202
0.00499599946315
0.00499599951455
0.00499599958898
0.00499599969358
0.00499599982481
0.00499599999868
0.00499600019447
0.00499600035104
0.00499600011082
0.00499599204871
0.00499597736529
0.00499596325795
0.00499595015867
0.00499593704144
0.00499592939051
0.00499592373009
0.00499591515856
0.00499590294484
0.00499588716157
0.00499573676664
0.00499571355729
0.00499569229584
0.00499566624344
0.00499563925076
0.00499561488323
0.00499559368307
0.00499557306861
0.00499555443278
0.00499554634555
0.00499554561648
0.00499554563467
0.00499554567864
0.00499554573631
0.00499554577469
0.00499556528274
0.00499586857714
0.0049958472554
0.004995823329
0.00499579936515
0.00499579936515
)
;
    }
}


// ************************************************************************* //
