/*--------------------------------*- C++ -*----------------------------------*\
| =========                 |                                                 |
| \\      /  F ield         | OpenFOAM: The Open Source CFD Toolbox           |
|  \\    /   O peration     | Version:  2312                                  |
|   \\  /    A nd           | Website:  www.openfoam.com                      |
|    \\/     M anipulation  |                                                 |
\*---------------------------------------------------------------------------*/
FoamFile
{
    version     2.0;
    format      ascii;
    arch        "LSB;label=32;scalar=64";
    class       volScalarField;
    location    "0.87/water";
    object      d.gas;
}
// * * * * * * * * * * * * * * * * * * * * * * * * * * * * * * * * * * * * * //

dimensions      [0 1 0 0 0 0 0];

internalField   nonuniform List<scalar> 
1504
(
0.00497987499388
0.00498004732925
0.00498003693864
0.00498002429848
0.00498003347862
0.00498006245042
0.00498009698477
0.0049801268955
0.00498014610366
0.00498016221108
0.00498017627637
0.00498018770436
0.00498019786692
0.00498021014993
0.00498022338341
0.00498023489996
0.00498023795987
0.00498024161642
0.00498023871624
0.00498023352703
0.00498098626654
0.0049810897476
0.00498099864762
0.00498094242034
0.00498089661384
0.00498085516607
0.00498081567878
0.00498077911277
0.00498074648383
0.0049807192643
0.00498069612361
0.00498067541129
0.00498065691351
0.00498064082799
0.00498062881522
0.0049806195428
0.00498060964743
0.00498059871188
0.00498058973181
0.00498057641125
0.00498184133277
0.00498182084776
0.00498175902921
0.00498172297548
0.0049816886072
0.00498163612131
0.00498155558892
0.00498146649848
0.00498138385684
0.00498131006948
0.00498124395232
0.00498118372743
0.00498112772147
0.00498107645729
0.00498103192698
0.00498099692969
0.00498097178035
0.00498094742082
0.00498093017542
0.004980909266
0.00498206046451
0.00498205163142
0.00498203903915
0.00498203252931
0.00498202687645
0.00498201615611
0.00498198694966
0.00498192585681
0.00498184451031
0.00498175741976
0.00498167186257
0.00498159124295
0.00498151579986
0.00498144560837
0.00498138213452
0.00498132833809
0.00498129012387
0.00498125882208
0.00498123181062
0.0049812055962
0.00498211492847
0.00498211383123
0.00498211299722
0.00498211298184
0.00498211365291
0.00498211420073
0.00498211259277
0.00498209807794
0.00498206004306
0.00498200151755
0.00498193060848
0.00498185651547
0.00498178465866
0.00498171615171
0.00498165235293
0.004981594408
0.00498154836311
0.00498151391798
0.00498148459726
0.00498145566927
0.00498214869568
0.00498214828915
0.00498214774215
0.00498214765312
0.00498214788886
0.00498214857894
0.00498214960675
0.00498214869374
0.00498213535925
0.00498210572341
0.00498206167257
0.00498200877951
0.0049819536039
0.00498189850405
0.00498184541127
0.00498179592829
0.00498175231686
0.00498171999038
0.0049816905373
0.00498166235175
0.00498217985863
0.00498217956889
0.00498217885779
0.00498217869118
0.00498217879694
0.00498217902035
0.00498217955603
0.00498217953529
0.00498217284202
0.00498215569466
0.00498212880342
0.00498209534645
0.00498205838516
0.00498201939916
0.00498198048597
0.00498194384199
0.00498191056214
0.00498188320003
0.00498185789295
0.00498183269234
0.00498220752701
0.00498220751371
0.00498220722122
0.00498220713759
0.00498220728346
0.00498220750598
0.00498220775409
0.00498220775461
0.00498220354106
0.00498219244904
0.00498217556186
0.00498215551492
0.00498213258814
0.00498210681578
0.00498208036481
0.00498205553122
0.00498203426728
0.00498201619067
0.00498199733924
0.00498197545564
0.0049822346019
0.00498223481325
0.00498223443738
0.0049822342649
0.00498223425262
0.00498223432673
0.00498223424916
0.00498223412997
0.00498223132852
0.00498222396893
0.00498221354387
0.00498220376851
0.00498219206736
0.00498217676589
0.00498216083447
0.00498214638081
0.00498213585105
0.00498212933949
0.00498211742399
0.00498209846047
0.00498226003045
0.00498226028291
0.00498226023199
0.0049822601332
0.00498226008164
0.00498226006047
0.00498225956979
0.0049822586335
0.00498225552563
0.00498225007371
0.00498224649136
0.00498224797987
0.00498224592759
0.00498223932721
0.00498223262123
0.00498222702347
0.00498222589654
0.00498223042394
0.00498222420618
0.00498220852712
0.00498228696702
0.00498228708889
0.00498228640639
0.00498228608013
0.00498228581772
0.00498228543084
0.0049822847912
0.00498228344448
0.0049822807227
0.00498227946703
0.00498228771857
0.00498229919124
0.00498230186093
0.00498230253442
0.00498230397817
0.00498230589768
0.00498231317305
0.00498232629923
0.00498232567987
0.00498231457934
0.00498231482228
0.00498231485166
0.0049823141854
0.00498231381517
0.00498231365369
0.00498231320574
0.00498231304637
0.00498231269716
0.00498231347864
0.00498232248713
0.00498234346895
0.00498235725286
0.00498236494914
0.00498237235411
0.00498238042316
0.00498238980591
0.00498240522468
0.00498242581059
0.00498243079689
0.00498242483664
0.00498234481167
0.00498234449096
0.00498234321555
0.00498234259833
0.00498234207046
0.00498234246616
0.0049823444063
0.00498234773268
0.0049823567045
0.00498238175442
0.00498240749578
0.00498242376874
0.00498243693185
0.00498245140435
0.00498246685564
0.00498248328945
0.00498250753321
0.00498253385989
0.00498254482209
0.00498254381552
0.00498238280055
0.00498238035899
0.00498237597021
0.00498237519509
0.00498237533245
0.00498237810446
0.00498238375578
0.00498239385919
0.00498241797329
0.00498245395959
0.00498248132885
0.00498250048728
0.00498252183396
0.00498254355835
0.00498256499206
0.00498259072426
0.00498262200472
0.00498265358842
0.00498266984867
0.00498267277135
0.00498243687799
0.00498243207599
0.00498242365057
0.00498242198063
0.00498242402501
0.0049824305691
0.00498244184613
0.00498246285606
0.00498250383751
0.00498254359442
0.00498256802898
0.00498259511039
0.00498262196849
0.00498265022658
0.00498268093264
0.00498271240781
0.00498275223037
0.00498278771422
0.00498280892627
0.00498281563876
0.00498250352643
0.00498249636398
0.00498247735696
0.00498247592223
0.00498248340534
0.00498249738786
0.00498251861865
0.00498255865429
0.00498260886083
0.00498264100738
0.00498267393755
0.00498270548108
0.004982740733
0.00498277832059
0.00498281370543
0.00498285671135
0.00498290078732
0.00498294043156
0.0049829661319
0.00498298055227
0.00498256734199
0.00498256730738
0.00498253662654
0.00498253942703
0.00498255701933
0.00498258249438
0.00498262114157
0.00498267835851
0.00498272295987
0.00498276331944
0.00498279981062
0.004982842047
0.00498288601417
0.00498292796788
0.00498297494016
0.00498302127793
0.00498307291718
0.00498311711121
0.0049831489267
0.00498316586188
0.0049826300726
0.0049826548238
0.0049826218818
0.00498263227076
0.00498266227291
0.00498270350883
0.00498276415343
0.00498282302152
0.00498287288292
0.00498291420555
0.00498296216151
0.00498301138117
0.00498306003912
0.00498311366783
0.00498316319514
0.00498322127653
0.00498327551122
0.00498332562849
0.00498336232831
0.00498338515963
0.00498268741436
0.00498275957502
0.0049827469161
0.00498277169173
0.00498281925617
0.00498288156238
0.00498295280848
0.00498301557
0.00498306395965
0.00498311760601
0.00498317124544
0.00498322625404
0.00498328535819
0.00498333925505
0.00498340164303
0.00498345849648
0.00498351757597
0.00498357393061
0.0049836166125
0.00498364276636
0.00498282890114
0.00498296133184
0.00498299456562
0.00498303056152
0.00498308487027
0.00498315469521
0.00498322974181
0.0049832846985
0.00498334335588
0.00498339996538
0.00498345741447
0.00498352464064
0.00498358289338
0.00498364767219
0.00498369963667
0.00498375409867
0.00498381062315
0.00498386730022
0.00498391035297
0.00498393974306
0.00498319951095
0.00498338756058
0.00498342152408
0.0049834455372
0.00498349130906
0.00498356002456
0.0049836300515
0.00498369666866
0.00498376095637
0.00498382040732
0.00498389615451
0.00498395326166
0.00498400241484
0.00498404040901
0.00498408020872
0.0049841211112
0.00498416485909
0.00498420805581
0.0049842421247
0.00498426670702
0.00498424336789
0.00498444619985
0.00498441306475
0.00498438834155
0.00498438008649
0.00498439214054
0.00498441975198
0.00498445393563
0.00498448496432
0.00498451868282
0.00498453253523
0.0049845362504
0.0049845393898
0.00498454914937
0.00498456084222
0.0049845724134
0.00498458389123
0.00498459601191
0.00498460706716
0.00498461726855
0.00498577003858
0.00498586269867
0.0049857680767
0.00498572084033
0.00498568344522
0.00498563909185
0.00498558468525
0.00498552241875
0.00498545461508
0.00498537872476
0.0049853027318
0.00498523596914
0.00498518446191
0.0049851437364
0.00498510810858
0.0049850751212
0.00498504378933
0.00498501491046
0.00498498884076
0.00498497227634
0.00498635449863
0.0049863426663
0.00498630746315
0.00498629223704
0.00498628475069
0.00498627486498
0.00498625239936
0.00498621050821
0.00498614362082
0.00498605720164
0.00498596202797
0.00498586627475
0.00498577371596
0.00498568892423
0.00498561298109
0.00498554368469
0.00498547910723
0.00498541841896
0.00498536139108
0.00498531626318
0.00498641414451
0.00498641159624
0.00498640796441
0.00498640638359
0.00498640621324
0.00498640613383
0.00498640454663
0.00498639909166
0.00498638602436
0.00498635830601
0.00498631200306
0.00498624836529
0.00498616835907
0.00498607852637
0.00498598995904
0.00498590727888
0.00498583043252
0.00498575704378
0.00498568837336
0.00498562567408
0.00498645019598
0.00498644924368
0.00498644720418
0.0049864470158
0.00498644794088
0.00498644946319
0.00498645097121
0.00498645222685
0.00498645276625
0.00498644991792
0.00498643759012
0.00498641094271
0.00498636706382
0.00498630449419
0.0049862300267
0.00498615464359
0.00498608332965
0.00498601510288
0.00498594886478
0.00498588575766
0.00498648648635
0.00498648476054
0.00498648232552
0.00498648159716
0.0049864818503
0.00498648262498
0.00498648376423
0.00498648506576
0.00498648629283
0.00498648700594
0.00498648423851
0.00498647372059
0.00498645266461
0.00498641767621
0.00498636881598
0.00498631309645
0.00498625726117
0.0049862031908
0.00498614824519
0.00498609724117
0.00498651367289
0.00498651335743
0.0049865118013
0.00498651139232
0.00498651163501
0.00498651224034
0.0049865130779
0.00498651389854
0.00498651460067
0.00498651523823
0.00498651424695
0.0049865086354
0.00498649672293
0.00498647667232
0.00498644802202
0.00498641363115
0.00498637696405
0.00498633977863
0.00498630182793
0.00498626565627
0.0049865412583
0.00498654118554
0.00498653965566
0.00498653910904
0.00498653913703
0.0049865395284
0.00498654003126
0.00498654054348
0.00498654094787
0.00498654124199
0.00498654055495
0.00498653715094
0.004986530126
0.00498651890158
0.0049865047616
0.00498648864968
0.00498646957408
0.00498644820192
0.0049864259496
0.00498640464348
0.00498656404507
0.00498656466045
0.00498656398606
0.00498656372695
0.00498656382272
0.00498656411657
0.00498656444537
0.00498656458072
0.00498656458231
0.00498656460266
0.00498656428165
0.00498656281998
0.00498655983424
0.00498655558561
0.0049865533833
0.00498655379043
0.00498655094052
0.00498654411245
0.00498653517823
0.00498652665422
0.00498658849777
0.00498658939691
0.00498658803592
0.00498658755793
0.00498658748528
0.00498658754295
0.00498658739862
0.00498658715229
0.00498658687551
0.00498658663593
0.00498658637932
0.00498658622435
0.00498658616098
0.00498658794017
0.00498659936995
0.00498661741865
0.00498662988911
0.00498663588092
0.00498663774104
0.00498664386297
0.00498661263284
0.00498661338396
0.00498661196346
0.00498661147379
0.00498661147436
0.00498661143487
0.00498661141975
0.00498661157261
0.00498661169731
0.0049866116458
0.00498661203808
0.00498661337666
0.00498661657814
0.00498662759974
0.00498665750053
0.00498669092119
0.00498671659994
0.00498673181326
0.00498674287683
0.00498676158165
0.00498663960652
0.00498664205033
0.00498663835391
0.00498663790852
0.00498663789363
0.00498663829365
0.00498663956706
0.00498664135589
0.00498664307249
0.00498664548812
0.00498664901821
0.0049866540564
0.00498666396491
0.00498669161435
0.00498673688264
0.00498678248012
0.00498681722686
0.00498683316791
0.00498685075137
0.00498688332139
0.00498667343978
0.00498667849348
0.00498667050723
0.00498666967826
0.00498667040151
0.0049866730044
0.00498667748862
0.00498668297552
0.00498668940326
0.00498669686389
0.00498670522227
0.00498671612961
0.00498673793786
0.00498678454201
0.00498684093051
0.00498689583826
0.00498692288682
0.00498693578187
0.00498696038619
0.00498700349086
0.00498671877389
0.0049867319745
0.00498672131086
0.00498672054432
0.00498672394433
0.00498673021607
0.00498673893086
0.00498674940998
0.00498676083155
0.00498677269079
0.0049867857588
0.00498680497814
0.00498684448989
0.00498690157603
0.00498696258312
0.00498700715873
0.00498702161683
0.00498703757698
0.00498706930861
0.00498712120615
0.0049867803567
0.00498680484328
0.00498678686289
0.0049867883718
0.00498679772018
0.00498681001406
0.00498682421202
0.00498683942241
0.0049868547943
0.00498687053746
0.00498688959339
0.0049869210804
0.00498697322887
0.00498703241097
0.00498708851072
0.00498711122353
0.0049871225668
0.00498714154292
0.00498717774891
0.00498722918957
0.00498686903495
0.00498691673657
0.00498689076746
0.00498689320131
0.00498690641325
0.00498692177562
0.00498693862545
0.00498695645629
0.00498697501525
0.00498699588191
0.00498702431612
0.00498706889559
0.00498712281719
0.0049871757966
0.00498720602664
0.00498721775987
0.00498723278506
0.00498725181218
0.00498728755765
0.00498733459454
0.00498702996664
0.00498710621711
0.00498707175232
0.00498707040629
0.00498707839993
0.00498708873295
0.00498710303992
0.0049799314168
0.00497993462072
0.00497993681761
0.00497993817192
0.0049799388986
0.00497993922367
0.00497993935158
0.00497993942744
0.00497993952549
0.00497993967477
0.00497993988196
0.00497994014218
0.00497994044217
0.00497994075761
0.00497994105171
0.00497994128915
0.00497994162079
0.00498023080238
0.00498022771305
0.00498022394038
0.00498022048084
0.00498021735431
0.0049802143248
0.00498021134379
0.00498020848013
0.00498020584238
0.00498020352985
0.00498020159487
0.00498020003949
0.00498019883854
0.00498019795584
0.00498019735168
0.00498019698391
0.00498019680319
0.00498019674887
0.00498019676398
0.00498019699807
0.0049805566201
0.00498053926776
0.00498052413207
0.0049805114976
0.00498050098829
0.00498049196618
0.00498048409422
0.00498047723467
0.00498047133121
0.0049804663446
0.0049804622146
0.00498045885921
0.00498045619044
0.00498045412317
0.00498045257846
0.00498045148199
0.00498045075747
0.00498045031961
0.00498045008789
0.00498045020116
0.00498087641309
0.00498084428377
0.00498081752182
0.00498079568407
0.0049807778511
0.00498076296212
0.00498075035951
0.0049807396723
0.00498073066088
0.0049807231383
0.00498071693041
0.00498071187242
0.00498070781497
0.00498070462565
0.00498070218786
0.00498070039671
0.00498069915094
0.00498069834337
0.00498069787155
0.00498069785309
0.00498116942919
0.00498112791885
0.00498109234546
0.00498106338334
0.00498103980794
0.00498102030805
0.00498100399228
0.00498099030554
0.00498097885914
0.00498096934633
0.00498096150306
0.00498095510038
0.00498094994169
0.00498094585831
0.00498094270463
0.00498094035229
0.00498093868132
0.00498093756919
0.00498093689722
0.00498093675374
0.00498142183964
0.00498137921777
0.00498133979802
0.00498130720489
0.00498128054726
0.00498125851382
0.00498124013609
0.00498122477267
0.00498121195551
0.00498120131131
0.00498119252746
0.00498118534161
0.00498117953298
0.00498117491439
0.00498117132521
0.00498116862476
0.00498116668389
0.0049811653739
0.00498116456871
0.00498116432296
0.00498163235073
0.00498159453141
0.00498155642028
0.00498152390043
0.00498149705488
0.00498147478797
0.00498145619955
0.00498144065772
0.00498142768628
0.00498141690113
0.00498140798425
0.00498140067221
0.00498139474489
0.00498139001594
0.00498138632521
0.00498138353227
0.00498138150933
0.00498138013139
0.00498137927509
0.00498137896128
0.00498180682556
0.00498177627891
0.00498174328563
0.00498171400083
0.00498168951059
0.00498166908093
0.00498165198198
0.00498163766133
0.0049816256891
0.00498161571474
0.00498160744974
0.00498160065641
0.00498159513622
0.00498159072053
0.00498158726354
0.00498158463658
0.00498158272291
0.00498158141019
0.00498158058727
0.00498158024527
0.0049819535581
0.00498193021487
0.00498190440657
0.00498188064837
0.00498186046957
0.00498184351097
0.00498182927111
0.0049818173196
0.00498180730766
0.00498179894833
0.00498179200667
0.00498178628955
0.00498178163522
0.00498177790543
0.00498177497939
0.00498177274935
0.00498177111737
0.00498176999074
0.00498176927808
0.00498176894811
0.00498208021029
0.00498206325638
0.00498204535689
0.00498202854759
0.00498201404258
0.0049820017176
0.00498199132484
0.00498198258222
0.00498197524347
0.00498196910382
0.00498196399645
0.00498195978433
0.00498195635209
0.00498195360008
0.00498195143981
0.00498194979079
0.00498194857936
0.00498194773713
0.00498194719747
0.00498194691617
0.00498219418358
0.00498218295458
0.00498217279067
0.00498216348879
0.00498215541689
0.00498214840212
0.00498214244227
0.00498213741701
0.00498213319253
0.00498212965437
0.00498212670985
0.00498212428286
0.00498212230871
0.00498212073037
0.00498211949543
0.00498211855426
0.00498211786046
0.00498211737244
0.00498211705124
0.00498211684943
0.00498230445126
0.00498229779629
0.00498229419399
0.00498229199993
0.00498229042448
0.0049822888773
0.00498228752182
0.00498228638695
0.00498228544436
0.0049822846654
0.00498228402826
0.00498228351583
0.00498228311322
0.00498228280597
0.00498228257827
0.00498228241211
0.00498228228914
0.00498228219538
0.00498228211942
0.00498228201893
0.00498241826396
0.00498241460149
0.00498241603806
0.00498242009063
0.00498242461685
0.00498242832575
0.00498243144035
0.00498243411293
0.00498243640518
0.00498243836285
0.00498244002674
0.00498244143285
0.00498244261205
0.00498244358967
0.0049824443847
0.00498244500952
0.00498244547262
0.00498244578613
0.00498244596373
0.0049824459773
0.00498253936106
0.00498253769422
0.004982543084
0.00498255258228
0.00498256269753
0.00498257131641
0.00498257862981
0.00498258489471
0.00498259025204
0.0049825948129
0.0049825986734
0.00498260191714
0.00498260461642
0.00498260683304
0.00498260861816
0.00498261001239
0.00498261104901
0.00498261176185
0.00498261218928
0.00498261232439
0.00498267065897
0.00498267106103
0.00498267968339
0.00498269374126
0.00498270885612
0.00498272197644
0.00498273314298
0.00498274270544
0.0049827508788
0.00498275783377
0.00498276371691
0.00498276865519
0.00498277275877
0.00498277612278
0.00498277882781
0.00498278094011
0.00498278251498
0.00498278360613
0.00498278427209
0.00498278453145
0.0049828189668
0.00498282114371
0.00498283080421
0.00498284785885
0.00498286713842
0.00498288421343
0.00498289877981
0.00498291125208
0.00498292190783
0.00498293097056
0.00498293863261
0.00498294506062
0.00498295039932
0.00498295477411
0.00498295829207
0.00498296104214
0.00498296309826
0.00498296453114
0.00498296541626
0.00498296579835
0.00498298599709
0.00498298762113
0.0049829976436
0.00498301748485
0.00498304066288
0.00498306136892
0.00498307893941
0.00498309391003
0.00498310665231
0.00498311745918
0.00498312657672
0.0049831342143
0.00498314055138
0.00498314574219
0.00498314991801
0.00498315318748
0.00498315563919
0.00498315735498
0.00498315842519
0.00498315892279
0.00498317425467
0.00498317845937
0.00498318779135
0.00498320883797
0.00498323457383
0.00498325793245
0.00498327764727
0.00498329434307
0.0049833084817
0.00498332042539
0.00498333047232
0.00498333887115
0.00498334583146
0.00498335153113
0.00498335612016
0.0049833597213
0.00498336243153
0.00498336433585
0.00498336553169
0.0049833661252
0.00498339618322
0.00498340084551
0.00498340979678
0.00498342950347
0.00498345514284
0.00498347903705
0.00498349916138
0.00498351613958
0.00498353046294
0.00498354252527
0.00498355264971
0.00498356110245
0.00498356810501
0.00498357384365
0.00498357847416
0.00498358212198
0.00498358488145
0.00498358682907
0.00498358805858
0.00498358870981
0.00498365738551
0.00498366697297
0.00498367183569
0.00498368571629
0.00498370693618
0.00498372805431
0.00498374599871
0.00498376119458
0.00498377402749
0.00498378483424
0.00498379390687
0.00498380148843
0.00498380778111
0.00498381295466
0.0049838171505
0.00498382048012
0.00498382302044
0.00498382482412
0.00498382596673
0.00498382661922
0.00498395539702
0.00498396428432
0.00498396586504
0.00498397388202
0.00498398797779
0.00498400338963
0.00498401669764
0.0049840280597
0.00498403770589
0.0049840458482
0.00498405270154
0.00498405845053
0.00498406324893
0.00498406722564
0.00498407048749
0.00498407311482
0.00498407515216
0.00498407661383
0.00498407754054
0.00498407812691
0.0049842793107
0.00498428264111
0.00498428504277
0.00498428889728
0.00498429422985
0.00498430096606
0.00498430720154
0.00498431271357
0.00498431755152
0.00498432171264
0.00498432527076
0.00498432830943
0.00498433090196
0.0049843331111
0.00498433498855
0.00498433656699
0.00498433784505
0.00498433878628
0.00498433938071
0.00498433983352
0.00498462277346
0.00498462346216
0.00498462632466
0.00498462200332
0.00498461777725
0.00498461367357
0.0049846105941
0.00498460845467
0.00498460712237
0.00498460626933
0.00498460572717
0.00498460541912
0.00498460530028
0.00498460534141
0.00498460552052
0.00498460580889
0.00498460614906
0.00498460644623
0.00498460662758
0.004984606891
0.00498496870968
0.0049849609998
0.00498495486546
0.00498494597624
0.00498493702474
0.00498492570948
0.00498491429269
0.00498490461108
0.00498489698153
0.00498489099085
0.00498488624134
0.00498488249177
0.00498487957769
0.0049848773773
0.00498487579481
0.00498487474054
0.00498487410197
0.00498487372698
0.00498487347606
0.00498487351972
0.00498529451244
0.00498527720789
0.00498526147405
0.00498525005869
0.00498523807894
0.00498522339514
0.00498520662567
0.00498519097627
0.00498517794749
0.00498516745467
0.00498515900368
0.00498515221547
0.00498514682275
0.0049851426251
0.00498513946552
0.00498513720534
0.00498513568842
0.0049851347151
0.00498513408321
0.00498513391711
0.00498558760106
0.00498556352925
0.00498554519819
0.00498553195228
0.00498551497836
0.00498549766805
0.00498547842756
0.00498545929321
0.00498544255724
0.00498542876846
0.00498541756465
0.00498540850277
0.00498540124435
0.00498539553289
0.00498539116978
0.00498538798635
0.00498538580292
0.00498538439058
0.00498538349511
0.00498538318517
0.00498583804597
0.00498581511554
0.00498579477907
0.00498577668
0.00498575873642
0.00498574099402
0.00498572236598
0.00498570306197
0.00498568521105
0.00498567001519
0.00498565745821
0.00498564719501
0.00498563890677
0.00498563233156
0.00498562726233
0.00498562352859
0.00498562095541
0.00498561931279
0.0049856183117
0.00498561797816
0.00498605491082
0.00498603043398
0.00498600981428
0.00498599113474
0.00498597318979
0.00498595622044
0.0049859392018
0.00498592166602
0.00498590483418
0.00498588998468
0.00498587745456
0.00498586704891
0.00498585854895
0.00498585174722
0.00498584646234
0.00498584254546
0.00498583985234
0.00498583817985
0.00498583720891
0.00498583696694
0.00498623639447
0.00498621858202
0.00498619707665
0.00498618018046
0.0049861661594
0.00498614933291
0.00498613377871
0.00498611861796
0.00498610402918
0.00498609083034
0.00498607944807
0.00498606981612
0.00498606183696
0.00498605541385
0.00498605042017
0.0049860467416
0.00498604426153
0.00498604284393
0.00498604206817
0.00498604203696
0.00498639265901
0.00498637832499
0.00498636695844
0.00498635536454
0.00498633982283
0.0049863251481
0.00498631176319
0.00498629956032
0.00498628810771
0.00498627763338
0.00498626842239
0.00498626049879
0.00498625386586
0.00498624853044
0.00498624440511
0.00498624139758
0.00498623941696
0.00498623825407
0.00498623762741
0.00498623833197
0.004986529702
0.00498653211592
0.00498652577014
0.00498651645233
0.00498650748796
0.00498649384952
0.00498648215686
0.0049864728669
0.00498646480881
0.00498645756796
0.00498645108623
0.00498644537998
0.00498644044532
0.00498643629043
0.00498643292765
0.00498643038267
0.00498642851246
0.00498642721406
0.00498642669552
0.00498642840658
0.00498666229805
0.00498667717158
0.0049866834313
0.00498667900696
0.00498667021353
0.00498666058185
0.00498665227217
0.00498664668222
0.00498664235875
0.00498663858229
0.00498663507142
0.00498663174644
0.00498662858286
0.00498662570715
0.00498662327506
0.00498662123448
0.00498661950908
0.00498661827776
0.00498661788986
0.00498662061161
0.00498679339471
0.00498682656844
0.00498683899556
0.00498684187856
0.00498684041881
0.00498683610892
0.00498683312777
0.00498683189108
0.00498683170537
0.00498683164224
0.00498683128104
0.00498683047298
0.00498682917922
0.00498682726877
0.00498682468557
0.00498682172519
0.00498681897999
0.00498681699574
0.00498681617823
0.004986819483
0.00498692601347
0.00498697187463
0.00498700094979
0.00498701125515
0.00498701910768
0.00498702616337
0.00498702887009
0.00498703249988
0.00498703655088
0.00498703989881
0.00498704198742
0.00498704269598
0.00498704209512
0.0049870391454
0.00498703419546
0.00498702959853
0.00498702508996
0.00498702084462
0.0049870189508
0.00498702243655
0.00498705533257
0.00498711160126
0.00498715350409
0.00498718051321
0.00498719630474
0.00498720770796
0.00498721838503
0.00498722901525
0.00498723926373
0.00498724720452
0.00498725170031
0.0049872520933
0.00498724789231
0.00498724119907
0.00498723931932
0.00498724767706
0.00498725007816
0.00498724326855
0.00498723621601
0.00498723702183
0.00498717362038
0.00498723178671
0.00498728964124
0.00498731912644
0.00498733864895
0.00498735661367
0.00498737067742
0.00498738321965
0.00498739612523
0.00498740797409
0.00498741461731
0.00498741313972
0.00498740813837
0.00498741468973
0.00498743663645
0.00498743469673
0.00498742843835
0.00498742778791
0.00498742549887
0.00498742260082
0.00498728191157
0.00498733327274
0.00498738833728
0.00498742675142
0.00498744163011
0.00498745597718
0.00498746946553
0.00498747879132
0.004987485084
0.00498748675415
0.00498748369972
0.00498748140101
0.00498749854848
0.00498753558881
0.00498751346548
0.00498750556983
0.00498750403326
0.00498750332704
0.00498750382087
0.00498750601231
0.00498737739657
0.0049874189101
0.00498746556581
0.00498750239115
0.00498751833978
0.00498752039887
0.00498752593329
0.00498753019919
0.00498752868798
0.00498752528596
0.00498752313685
0.0049875429021
0.00498757459275
0.00498755239358
0.00498754190139
0.00498753834315
0.00498753689045
0.00498753667981
0.00498753965357
0.00498754505299
)
;

boundaryField
{
    emptyPatch
    {
        type            empty;
    }
    minY
    {
        type            calculated;
        value           nonuniform List<scalar> 0();
    }
    maxY
    {
        type            calculated;
        value           nonuniform List<scalar> 0();
    }
    maxX
    {
        type            calculated;
        value           nonuniform List<scalar> 
38
(
0.00497994162079
0.00498019699807
0.00498045020116
0.00498069785309
0.00498093675374
0.00498116432296
0.00498137896128
0.00498158024527
0.00498176894811
0.00498194691617
0.00498211684943
0.00498228201893
0.0049824459773
0.00498261232439
0.00498278453145
0.00498296579835
0.00498315892279
0.0049833661252
0.00498358870981
0.00498382661922
0.00498407812691
0.00498433983352
0.004984606891
0.00498487351972
0.00498513391711
0.00498538318517
0.00498561797816
0.00498583696694
0.00498604203696
0.00498623833197
0.00498642840658
0.00498662061161
0.004986819483
0.00498702243655
0.00498723702183
0.00498742260082
0.00498750601231
0.00498754505299
)
;
    }
    water_to_heater
    {
        type            calculated;
        value           nonuniform List<scalar> 
60
(
0.00497985999212
0.00497991515966
0.0049809849792
0.00498183984936
0.0049820341576
0.0049820670526
0.00498209708753
0.0049821294921
0.0049821390684
0.00498217090143
0.00498217817307
0.00498220579756
0.00498220860427
0.00498224093505
0.00498224234622
0.00498227412003
0.0049822770597
0.00498230939221
0.00498231294582
0.00498234290111
0.00498235678516
0.00498238885048
0.00498241865494
0.00498245109232
0.00498249341196
0.00498252566582
0.00498256526077
0.00498262795617
0.00498266084515
0.00498269338796
0.00498280828374
0.00498284516999
0.00498318564472
0.00498323301784
0.00498424146221
0.00498576798289
0.00498632338607
0.00498636172353
0.00498639533976
0.00498642805918
0.00498643971484
0.00498647186209
0.00498648404832
0.00498651119855
0.00498651426154
0.0049865469493
0.00498654541884
0.00498657761929
0.00498657777553
0.0049866104668
0.00498661002809
0.00498663696381
0.00498664629865
0.00498667889204
0.00498669964612
0.00498673242526
0.00498676935361
0.00498680220336
0.0049868662166
0.00498702717784
)
;
    }
    procBoundary3to1
    {
        type            processor;
        value           nonuniform List<scalar> 
41
(
0.00498712047845
0.00498714104097
0.00498716730606
0.00498720282832
0.00498724581761
0.00498728827042
0.00498732079048
0.00498733596685
0.00498734779698
0.00498735743813
0.00498737507949
0.00498740670614
0.00498744312134
0.00498731742414
0.00498740693737
0.00498736590336
0.00498735381753
0.00498735150327
0.00498735322881
0.00498712047845
0.00498735961357
0.00498747800402
0.00498750690574
0.00498753840731
0.0049875721787
0.0049875865743
0.004987589237
0.00498758954648
0.00498758764857
0.00498758542294
0.00498758103761
0.004987593504
0.00498762510439
0.00498761051967
0.00498759857987
0.00498759296158
0.00498758896423
0.00498758644489
0.00498758469539
0.00498758773614
0.00498759475585
)
;
    }
    procBoundary3to2
    {
        type            processor;
        value           nonuniform List<scalar> 
41
(
0.0049792870816
0.00497943625617
0.00497946754775
0.00497948480932
0.00497951431343
0.00497955524025
0.00497960007981
0.00497964501011
0.00497968987573
0.00497972621469
0.00497976591055
0.00497979410916
0.00497981386496
0.00497983361934
0.00497985473538
0.00497987263549
0.00497988365671
0.0049798893015
0.00497989352406
0.00497990154786
0.0049796509593
0.00497965881391
0.00497966493248
0.00497966960838
0.00497967313597
0.00497967580289
0.00497967787478
0.00497967956
0.00497968098604
0.00497968222194
0.00497968330652
0.00497968426151