/*--------------------------------*- C++ -*----------------------------------*\
| =========                 |                                                 |
| \\      /  F ield         | OpenFOAM: The Open Source CFD Toolbox           |
|  \\    /   O peration     | Version:  2312                                  |
|   \\  /    A nd           | Website:  www.openfoam.com                      |
|    \\/     M anipulation  |                                                 |
\*---------------------------------------------------------------------------*/
FoamFile
{
    version     2.0;
    format      ascii;
    arch        "LSB;label=32;scalar=64";
    class       volScalarField;
    location    "0.15/water";
    object      epsilon.gas;
}
// * * * * * * * * * * * * * * * * * * * * * * * * * * * * * * * * * * * * * //

dimensions      [0 2 -3 0 0 0 0];

internalField   nonuniform List<scalar> 
6000
(
17.8620620383
2.84604426748
0.531842366493
0.126883867418
0.0398930592969
0.0077210361255
0.00202146431448
0.000916812142173
0.000609774834557
0.000500612868446
0.000455129304281
0.000434079349029
0.000423488758918
0.000417699165951
0.000414266374961
0.000412089975598
0.000410648846972
0.000409676511544
0.000409024086555
0.000408602758702
565.715334147
108.820041088
18.4438412719
3.85786964281
0.72680972013
0.203816095477
0.0452113096004
0.0082507066923
0.00203974122221
0.000900376707872
0.000601560155035
0.000496637709489
0.000452927231611
0.000432699637546
0.000422467017471
0.000416783581561
0.000413330075675
0.000411088376246
0.00040959135382
0.000408608387182
793.636760181
185.960601471
41.6705564299
8.91291730025
2.13593958387
0.489069532122
0.137758325511
0.0310616198199
0.00636696155915
0.00185690357511
0.000897905255481
0.000614590051402
0.000507115942749
0.000460054634286
0.000437561018703
0.000425957346535
0.000419435644767
0.000415438211544
0.000412831910837
0.000411107841303
1011.64212551
251.767640183
62.7571504874
15.3521846606
4.1864172989
0.930635650612
0.249058874069
0.0714267591072
0.0158876338111
0.00375113305762
0.00139274760602
0.000792778695056
0.000585843518795
0.000499069715771
0.000458531915965
0.000438230151336
0.000427350312062
0.000421033655438
0.00041706937568
0.000414467618398
1093.81513767
289.206998023
77.5215332315
20.9533696149
5.42324195684
1.64624948741
0.356572662537
0.111205405918
0.0321057926311
0.00720235480897
0.00216871759583
0.00103966701888
0.000688845942584
0.000549148285528
0.00048513415256
0.000453426390296
0.000436795709659
0.000427492289879
0.000421879215086
0.000418273835877
1073.51382033
300.594290441
86.0145345919
25.0861514184
7.21698461086
1.91984552541
0.589326321624
0.13553538732
0.0504519843486
0.0133909057742
0.00342493509574
0.0013800203943
0.000818477830361
0.000609905681647
0.000516961097631
0.000471303119779
0.000447534345174
0.000434491497722
0.00042685654734
0.000422080748089
1070.16993937
303.843646304
89.9575639183
27.648781724
8.58658351315
2.56937260756
0.68653083715
0.204654951292
0.0577503177673
0.022608394509
0.00560714635705
0.00187212587945
0.000982278474035
0.000682097787328
0.000553925521944
0.000491805408992
0.000459567407028
0.000442003650374
0.000431906568029
0.000425737343839
1080.79742093
307.436564189
92.5967674041
29.4014965824
9.61539664937
3.12611439463
0.956364917747
0.271718270259
0.0770664747585
0.0286714513063
0.00938210774749
0.00264278253102
0.00119570532524
0.000767654467505
0.000596121023292
0.000514864353409
0.000472886108561
0.000450046839035
0.000437025977055
0.00042920398523
1092.17062829
311.173596261
94.5305674517
30.6465144341
10.3990801054
3.60846846039
1.22806818317
0.384276736983
0.130386006178
0.0350764990271
0.0140895078267
0.00398611208406
0.00149481821117
0.000871007392572
0.00064401657033
0.000540412893895
0.000487415801998
0.000458594638606
0.000442205542548
0.000432482595648
1093.40857854
313.14760864
95.6524977793
31.4477580262
10.992779339
4.01323269627
1.48433253732
0.529674549964
0.173883930982
0.0670093933316
0.0171558285308
0.00621749452057
0.0019598236901
0.00100171862021
0.000698987899678
0.000568579283055
0.000503093879044
0.000467588299858
0.000447445719704
0.000435600980195
1091.68308662
313.424484737
96.1594192108
31.9666081713
11.4545942589
4.3567281135
1.7136197908
0.669499100112
0.257627924128
0.0962882922065
0.0299775907888
0.00841849991967
0.0027448712424
0.00118399716362
0.000765692943527
0.000600429723692
0.000520117913115
0.000477125120124
0.00045282638544
0.000438633421131
1086.75171101
313.171593871
96.4029533426
32.3191874634
11.8150460653
4.63524596355
1.89152674194
0.787094806027
0.339497722552
0.156301347145
0.0662916414986
0.0107748859268
0.00396171458979
0.00147444463477
0.000855684378046
0.000639136294414
0.000539601563229
0.000487583859101
0.000458530165283
0.000441730919224
1096.83459856
314.787795619
97.0439030956
32.7402733419
12.1107995748
4.82729174137
2.00645297411
0.870842769755
0.410907870184
0.221052096564
0.100633726152
0.0228026910511
0.00534692110873
0.00202282346387
0.00100001302355
0.000691696335071
0.00056333640373
0.000499588756077
0.000464898194837
0.000445163072183
1120.42902802
320.430884424
98.6456229009
33.3488855787
12.35978779
4.9311063525
2.06196938002
0.924144604869
0.473280284048
0.283835310743
0.161360600607
0.0585304077663
0.00847330724024
0.00324606608532
0.00126162054308
0.000769512563653
0.000594279673885
0.000514213289557
0.000472500791695
0.000449332925985
1151.54120793
328.766270609
101.614539049
34.3970633919
12.6429385101
4.96713152008
2.07842497866
0.96749207964
0.53265442949
0.344489503518
0.227321265073
0.0940627188873
0.0193379140758
0.00590172211624
0.00178779760907
0.000894611205852
0.000637399403563
0.000533109307697
0.000482127237758
0.00045473530972
1153.29428169
338.47171587
106.807127271
36.0777653823
12.9157188561
4.9428051302
2.08713044827
1.01630828599
0.58975894841
0.403935043142
0.293434574145
0.15634563719
0.0508458516082
0.010662121168
0.0029621132544
0.00111264706014
0.000700616345235
0.000558473051471
0.00049469093964
0.00046187963078
1219.7150263
366.14402843
115.653446508
38.0043128295
13.1402408395
4.9679144837
2.14505178454
1.08457024852
0.647987297351
0.457527144616
0.353391330672
0.232687760552
0.0934514614878
0.0191425177875
0.00550005347318
0.00152424860867
0.000796754749743
0.000593033496565
0.000511131548917
0.000471229482742
1436.64218099
418.50626843
127.080381576
40.4208097871
13.7863758242
5.23952439972
2.29565286462
1.17747306607
0.707924944925
0.497641361921
0.402280088455
0.306084486057
0.161570939023
0.0485012174681
0.00834220360561
0.00232644648548
0.000946207681621
0.000639892997454
0.000532311962421
0.000483180516661
1651.04949373
463.18612165
138.455409782
43.9029625327
15.0554226303
5.75664873293
2.52102342984
1.28570359899
0.767919685045
0.536374137556
0.433201561455
0.367711901379
0.244494172212
0.0878377276197
0.0114097797628
0.00360714931105
0.00118336844292
0.000702855286855
0.000559008120236
0.000498069000591
1702.58825357
484.94768279
146.299313504
47.0248783955
16.3494211329
6.29811114676
2.75242218456
1.39056171632
0.824004370646
0.575604535879
0.463243259513
0.403372300393
0.318594171089
0.160806359213
0.0306604920317
0.00445570502967
0.00157163969234
0.000788500844828
0.000592032501383
0.000516156953184
1728.85502178
494.994794176
150.929294171
49.2552911573
17.3358147806
6.72792920554
2.93874107116
1.47517304942
0.874938446061
0.616728345338
0.496444908911
0.435279274631
0.368274657727
0.232607613497
0.0575180586662
0.00505135918136
0.00210259717387
0.000903233998897
0.000631821129001
0.000537508690777
1730.86356458
500.011872632
154.138948584
50.7864108404
18.0301827488
7.03617306607
3.07384270736
1.54510809996
0.927785169634
0.658844919508
0.531995267312
0.471234131317
0.406546577179
0.293653248834
0.107488663086
0.00946621379384
0.00264911873064
0.00106036050517
0.000679102933668
0.000561953361422
1742.55631064
503.736031337
156.29992799
51.7718863161
18.4837381855
7.24261587499
3.17492335464
1.61465400262
0.981515686465
0.698527887746
0.570310383828
0.512373094056
0.44890262639
0.346655267393
0.161729115697
0.0249092786752
0.00325690172301
0.00128724751384
0.000735072677901
0.000588982523046
1764.98605803
510.740995736
158.381187359
52.5223567134
18.8090830357
7.40072099384
3.26806967864
1.6865866228
1.02884644777
0.73498195523
0.610047419283
0.557422102196
0.496527532543
0.392416525618
0.216368819489
0.0516589265543
0.00423021388132
0.00161717906225
0.00080080079065
0.000617623918739
1806.735269
520.950631316
161.128396667
53.3215373661
19.0978389774
7.53817617392
3.35896342589
1.74920523758
1.06452672558
0.767543232226
0.64978284713
0.603817688595
0.545990425451
0.438131402574
0.275001311202
0.0865244195808
0.00735068628521
0.00218272631654
0.000883711091212
0.000646869356145
1847.57319533
533.810626598
164.961997842
54.4682468057
19.4757290613
7.69303566392
3.44577614124
1.79361445778
1.08996154379
0.796042813309
0.687270601605
0.647503690575
0.592427839491
0.48783863455
0.341784496124
0.142582777984
0.0196935055781
0.00320021277634
0.000996012118652
0.000675086662623
1898.52164203
547.885141855
169.459398838
55.9282195878
19.9769484655
7.88364643095
3.52629644682
1.82292712181
1.10893253527
0.820339937291
0.718794846198
0.683598287642
0.631177568798
0.541651152478
0.419925642587
0.2147922751
0.052617511232
0.00453156746093
0.00115262242273
0.000699917253029
1950.69520493
561.984655557
173.828272911
57.424125602
20.5040190963
8.06606072173
3.58270414532
1.83791841582
1.12117819987
0.8371251509
0.737325379404
0.70322705697
0.658390376452
0.599977097851
0.512681667735
0.304783476932
0.0968069270143
0.00765767589041
0.00148190171699
0.000722900565786
2013.26781653
576.502163709
177.803335176
58.7999242812
20.9844873184
8.21382168561
3.61221197616
1.8379760438
1.12262447377
0.839646241187
0.732771329185
0.696050249763
0.670896561922
0.660921356689
0.604277886596
0.41699939836
0.146346724174
0.0181748874008
0.00221110717183
0.000745229241958
2057.11804625
586.101094736
180.548056111
59.8360584063
21.3807034763
8.33191586118
3.61813317781
1.81727874973
1.10666867393
0.819452126797
0.699691909527
0.664388904658
0.668109875402
0.708553820919
0.679911442131
0.517718911061
0.226610357041
0.0414429410994
0.00359364064416
0.000776723796702
2045.53019179
584.028108841
181.219171141
60.6572924772
21.7991151284
8.42299481434
3.57693885018
1.76561042749
1.0677580067
0.777551573925
0.652981775978
0.623687046036
0.651050300616
0.732666853303
0.740583402034
0.591393940788
0.315550037422
0.0858878204456
0.00932377039528
0.000915978447866
1977.62468282
573.015741563
181.00695727
61.6319528111
22.1569771147
8.35597580039
3.45162134663
1.69297852673
1.02470517362
0.735394312446
0.610364348837
0.581967523221
0.62031828722
0.736991052957
0.775383572213
0.658885274864
0.4092326293
0.116746023371
0.0222788245883
0.00128041847777
1934.12305182
571.046028746
183.998330407
63.0063569695
22.2066086434
8.08725066654
3.34336127221
1.66380217729
0.998775581615
0.701884635657
0.574570464447
0.538991467414
0.572986831414
0.709188397151
0.77620682107
0.708852669474
0.477378806881
0.18226647825
0.0363474012116
0.00229911939181
1924.26159516
584.441441761
190.563313165
64.5689689245
21.9792123522
8.0418311562
3.38550814719
1.68449610488
0.990492401358
0.677796384694
0.543716398051
0.495371421478
0.513668896564
0.646247368833
0.747324079482
0.72811789233
0.524774479734
0.256975647879
0.0669483151711
0.00944419314197
1965.84253986
612.401643318
199.60199897
66.3367464791
22.3341291172
8.36623540367
3.56066754477
1.75267676751
1.00183453785
0.664883354543
0.519282677143
0.457118488598
0.454336044591
0.55869442764
0.690597883508
0.715148325022
0.568442836361
0.336866691268
0.0993049409259
0.0229227124483
2092.88945504
659.533554474
211.508922967
69.5806452337
23.8343857508
9.10120503015
3.88661997575
1.87912728553
1.0401619059
0.667640437187
0.505734279968
0.430351775582
0.405945994898
0.468175018724
0.610452596123
0.675663439681
0.593172255768
0.401883531018
0.151323578089
0.0319663864597
2364.22091469
726.592689741
227.001106865
75.0796210189
26.8218425616
10.3691152812
4.4036534173
2.08160102537
1.11435829795
0.690557234311
0.505975608145
0.417165922389
0.373797606383
0.39642726973
0.523655479614
0.62468952683
0.598014127902
0.426583881221
0.212935930976
0.0543246637269
2707.75971179
796.894448591
244.104299458
81.6468436533
30.2840565953
12.0701926304
5.12262671243
2.3685730246
1.22895238763
0.735447459757
0.520287149409
0.416534996795
0.35796785482
0.351888654717
0.445833922998
0.573100389883
0.589203892335
0.452061965511
0.264202461312
0.0805389432754
2977.34152271
854.715754256
260.818073021
88.3926270348
33.7049015774
13.7634960256
5.91089085513
2.71873775677
1.38084955395
0.801460982799
0.547755829599
0.426410150079
0.355147874363
0.328139141368
0.387107343277
0.525919842005
0.576714345785
0.475756507901
0.306880313547
0.103849530684
3162.06425228
892.26513817
273.49183737
93.9897735365
36.5748375696
15.2383674063
6.64860847708
3.07440802858
1.54840363874
0.880283257085
0.584802024549
0.444120426077
0.36217850116
0.319747864069
0.352804941486
0.490428057496
0.568243216574
0.504601733041
0.343930590447
0.143625735386
3205.98707763
908.096408097
281.43204168
97.8886323092
38.6325554444
16.374920588
7.27427906694
3.40650429213
1.71841344199
0.966369924567
0.62917527623
0.468322424586
0.376443069943
0.322938544108
0.339055294181
0.471709723301
0.567891357384
0.535179425994
0.37955274335
0.191798632516
3167.897927
905.582615421
283.945361627
99.8221201565
39.7645914379
17.1000610341
7.74327150903
3.69127831242
1.87972558227
1.05501890762
0.678970461545
0.498399687483
0.397433472872
0.336045999569
0.340504616902
0.469860284609
0.574525311908
0.565191369336
0.433331678846
0.252355828611
3123.26978916
892.071788174
281.482373446
99.6331858863
39.8770489739
17.3461470655
8.01193523019
3.90159682494
2.01746400457
1.13910511946
0.731070971108
0.533040514577
0.424594297279
0.359067660051
0.35659982264
0.484784366203
0.588848684526
0.596782177147
0.497251039393
0.337033980965
3065.48435214
878.797276535
278.481303207
98.6117045132
39.2652186547
17.1693279278
8.07665416956
4.02080628318
2.11747507069
1.21020932603
0.781275409634
0.570136801991
0.456849782853
0.39176647305
0.388819656398
0.514289153838
0.609093884001
0.629155141803
0.560979114492
0.42429277765
3029.62229848
865.98091977
274.525888762
96.6270811244
38.0375200652
16.6648463137
7.95852493261
4.03966782839
2.1667346289
1.25978050412
0.82472378027
0.606704508645
0.492554134427
0.433234964833
0.436109949864
0.548651026284
0.636642412099
0.665843823236
0.624704014219
0.504602606583
2999.83413997
857.418999956
271.010371954
94.4900962475
36.7574454234
16.0696527008
7.72696971258
3.9688226188
2.1616409853
1.28365951192
0.857151816916
0.639468353895
0.52964312632
0.481590324144
0.493049984165
0.589366813855
0.675053007961
0.711138882533
0.683219167303
0.581033185399
3022.88908412
855.577444386
269.462127529
93.2540668705
35.9041260763
15.5538858897
7.44273991605
3.82915124065
2.11011512237
1.2834990928
0.875851070116
0.666186815338
0.566153654677
0.533047687552
0.551720975319
0.641179714209
0.727827869298
0.764261429119
0.741998307801
0.656895176524
3078.89766341
860.564238784
269.685196614
92.8753662365
35.398785276
15.0948012026
7.1139181057
3.63515594546
2.02575468192
1.26202513526
0.880086191659
0.68657984294
0.60052438465
0.58377255494
0.611088531738
0.703252969213
0.791349259493
0.827093269335
0.80478524847
0.729604921982
3179.65313521
875.436290658
272.694567753
93.3671621749
35.1513055011
14.6763388991
6.75738676609
3.41272897068
1.92362796222
1.22230675218
0.873935003676
0.702045226494
0.631171752822
0.630808448702
0.672559120305
0.772293936344
0.864031480416
0.895699539965
0.870786674437
0.796376840026
3246.52873648
886.468215418
274.482695533
93.4568299784
34.8188655119
14.2338612142
6.38406324014
3.18784757802
1.81033460853
1.17226136831
0.86462280262
0.71341310413
0.655267718547
0.66969899462
0.7351203214
0.846957233067
0.941771814992
0.969816166019
0.938518047747
0.863596950914
3280.4317913
883.734384227
271.868229377
92.3957692261
34.2912570017
13.7757637945
6.02629151552
2.9720580503
1.69699441314
1.12912261212
0.85778056447
0.719001355115
0.66844392709
0.694670022243
0.790848072251
0.922896909745
1.02200288834
1.04303848015
1.00634529477
0.928040086418
3230.05012487
859.889255422
263.970822793
90.5566908277
33.8082195188
13.385121491
5.71582264431
2.78721844132
1.61448256137
1.10707400237
0.853829542284
0.714506423494
0.665986294923
0.700334304705
0.827303720482
0.998173027052
1.09716066762
1.11175767292
1.06806503134
0.989000479687
3095.1111403
818.302061508
254.843474174
89.534211313
33.7551635949
13.1498999806
5.50333869135
2.68353839705
1.59025631767
1.1085524436
0.847110154657
0.694873126115
0.644009782031
0.684177813032
0.834512330412
1.06061462129
1.15764288754
1.16446078798
1.11826529017
1.03883212696
2721.20851973
758.981304688
247.064358891
90.4177994763
34.4066391181
13.2185006272
5.51572393206
2.73019500231
1.63611147518
1.12386253675
0.828281528678
0.65740978015
0.601324724193
0.644053952832
0.801248425044
1.07909631411
1.18589113809
1.18983342546
1.14427690214
1.06970479792
2297.70901201
703.108568782
245.982594757
94.1182152166
35.7527178099
13.9638767645
5.93656465867
2.93135874699
1.71732296863
1.13314201413
0.798096191013
0.609155299807
0.541249201755
0.574851221553
0.724023374476
1.01602479271
1.16936969951
1.17381369818
1.13766543867
1.07078459946
2064.00427577
682.04992901
253.364225731
99.3482667183
38.8918344513
15.5891119892
6.64903924578
3.22131114245
1.81861878919
1.14515497386
0.768777253744
0.55986188915
0.474490067383
0.487742545513
0.614427214828
0.871239195584
1.09468498013
1.11065482969
1.09047932381
1.03740942332
2013.68639344
684.400778468
261.099509903
106.910010016
44.3956644984
18.1077660597
7.67119447094
3.62174754238
1.95921620395
1.17307314173
0.749065091021
0.519029487736
0.416122107718
0.403136041998
0.482707094467
0.685261492569
0.95534495771
1.00141946922
1.00569055733
0.969615488215
2042.65106513
692.948755262
267.11338982
119.42380216
53.8409467362
21.9490163045
9.08933398766
4.15406594798
2.1471853946
1.22206874527
0.744574293163
0.493715066102
0.376185564901
0.340066083188
0.372223511965
0.512771146306
0.770538354509
0.864170548287
0.895007383199
0.877900924548
2118.69908183
703.470126764
274.984382041
137.659413764
69.5424208558
27.590628459
10.8668068919
4.76758127632
2.3627823069
1.28783898758
0.755574497324
0.485178463675
0.357240092666
0.305331471411
0.304555838859
0.384817093211
0.590628987354
0.724184771937
0.776547261976
0.773133135673
2118.00592406
702.333252623
283.512952749
159.095223158
92.2693072458
34.9364655125
12.8156378439
5.35994957496
2.56525375046
1.35630993617
0.776497852951
0.489743433325
0.355020511973
0.294224458925
0.273073798359
0.30509555558
0.455285138442
0.600484595913
0.661040532282
0.661001721589
2049.12610214
691.152320036
291.259325559
184.296501655
120.495401314
43.4284542378
14.7329461131
5.84674746514
2.71766448521
1.41150410979
0.799866558743
0.502641276293
0.363654104173
0.298280947946
0.265556811057
0.271478153454
0.371431514349
0.499681432258
0.553154481642
0.543195151144
1981.72875469
679.842304854
298.915655673
214.952091522
153.55658825
53.0800746205
16.7254803825
6.25469508139
2.82111461223
1.45003371681
0.822907300721
0.52162592281
0.379460565713
0.31056558863
0.270655160017
0.261896892862
0.325090904718
0.421160070912
0.456099188317
0.427214282301
1938.69109445
672.421726773
305.706373407
247.216640441
188.251616488
65.4893505376
19.6962276586
6.91443631108
2.97976656433
1.50532062721
0.8569895331
0.55020112853
0.402107662335
0.327079837348
0.281377381277
0.262777883254
0.299068153024
0.361315511405
0.37447734396
0.330714400291
1903.07339556
668.99017754
311.349570426
264.919652799
214.090540227
81.9247371111
25.6718850082
8.58096410814
3.45314708309
1.66915002443
0.933687341795
0.596968753045
0.432911998409
0.346334783851
0.294528025291
0.268943013707
0.284019429203
0.316362999632
0.311280728876
0.264884831281
1881.2316282
669.188994412
316.120701829
254.392275251
213.060825025
99.7010841998
34.9509414584
11.9854542857
4.57830463798
2.06505055757
1.09720214457
0.67621854488
0.476462268654
0.371049205532
0.310827260627
0.278525004334
0.276991001496
0.28544019648
0.268514030796
0.227240861328
1933.92724972
681.44694148
317.298338495
231.344507169
191.810250857
111.644425467
45.3335332155
17.1179730346
6.60864502143
2.82994196395
1.40381513286
0.811658556234
0.542550058158
0.407162585379
0.333614080279
0.293037728101
0.277741293605
0.268926638928
0.245333455086
0.209702182713
2133.15623051
716.975809352
312.05904411
205.646496318
165.192720435
112.180130706
54.9988969655
23.336447682
9.59639508518
4.07645480912
1.91149081903
1.02874774849
0.643309559939
0.460497529045
0.366311013422
0.31464921025
0.287208874711
0.266303765991
0.238765288069
0.206562578751
2400.30613123
765.811868465
299.597500512
179.158748157
137.200850711
101.059600844
59.7375286386
28.9309757547
13.0231498302
5.73775152227
2.62905199668
1.33744037041
0.78358482465
0.533102274899
0.410437158971
0.344581615527
0.305768359445
0.275906767832
0.245834319312
0.219320870559
2525.13763124
789.49858255
302.43462848
162.460427065
114.198320936
85.8020211332
57.9678077985
32.9208765571
15.9064774692
7.31772690724
3.37563215349
1.67571747859
0.945551571767
0.619055163761
0.463976268707
0.382362407416
0.332892894971
0.296436026581
0.266715383207
0.248822837479
2453.16142073
772.121461891
295.713081129
148.399375603
95.9971514988
70.7219735694
50.9728142298
32.7808548339
17.5832067879
8.14909937535
3.80678619817
1.91177345454
1.08008269772
0.702637696228
0.521251780605
0.425890050074
0.368160018356
0.329457711851
0.303924882621
0.299461951645
2350.30439071
737.69241655
279.524247948
133.372519512
80.5509975565
57.4336092711
42.4962129168
29.0370847808
16.482836254
7.73567922759
3.74728148971
1.96673533913
1.15242064448
0.767914304154
0.576404899982
0.473423539213
0.412809226744
0.377231769772
0.361757323048
0.387911193579
2444.31123213
729.802921724
266.799557181
120.505325809
68.3156143346
47.1593835148
35.0569279337
24.0552553568
13.0327884876
6.46637912347
3.35472093401
1.88393029592
1.17100059541
0.815434458724
0.629014206249
0.526460839035
0.469899689892
0.445530327736
0.455592171667
0.552527713724
2813.20612934
774.487341668
266.62635046
112.902763442
59.9964333296
40.0217792619
28.8020716977
17.6570307814
9.42721757864
5.06046798518
2.86572820952
1.75023742043
1.16964157085
0.858849115382
0.685020968811
0.589927430724
0.547247200873
0.550876658699
0.621476775691
0.857593610423
3177.20557537
860.775373676
282.560355963
111.637215726
55.1449956988
34.9681443052
21.943005695
12.1108269553
6.7979364353
3.98663063782
2.48175075047
1.6568861001
1.1907843662
0.916792451947
0.753249206599
0.672899502677
0.662584177916
0.727861584963
0.921112728182
1.27734805742
3605.69259928
976.263238179
310.358714865
114.712629849
52.8110030768
29.7094722117
15.4781279263
8.73601832814
5.29532509579
3.40379124315
2.31939908104
1.67228935895
1.26634122259
0.999390592161
0.840166849055
0.791771034514
0.849746664749
1.03165074034
1.33615332718
1.427716296
4160.12059075
1121.06429993
347.60122212
121.900922287
51.2269024134
23.2611741831
11.9305862845
7.14628077888
4.68104820981
3.26279470163
2.38441214737
1.80116538263
1.3896231119
1.10199151941
0.955219013255
0.979780221969
1.15835539155
1.41852297619
1.46516679755
1.82017237208
4790.82322177
1295.71449324
397.819554496
135.695040707
49.4631683745
21.0707369541
11.0005671722
6.794501624
4.6729911429
3.42857959843
2.59975612787
1.98890862619
1.52331905077
1.21549482551
1.12658967532
1.28858013656
1.53424988481
1.53290661294
1.75110333965
2.32853469526
5456.68069177
1482.49585532
457.731018613
153.831497685
56.318374861
23.6682883276
11.9362525208
7.22780603914
5.00538892175
3.72584099435
2.83431651043
2.13173682481
1.60797693701
1.34004989815
1.40969019422
1.69114678811
1.69036228758
1.75768154443
2.23926756055
2.79344347091
6045.54181981
1644.22736444
507.662249546
176.739200247
67.6346734646
28.0383797156
13.5515000237
7.92381871889
5.38531364384
3.9393808246
2.89195972813
2.11524547907
1.63560120177
1.5386686475
1.82426386695
1.98267527133
1.91445782577
2.25606648671
2.78701564239
3.24639764573
6580.33260184
1760.9989514
540.120683075
195.425419972
74.6034649055
30.647000449
14.5639689681
8.34276139919
5.52373760413
3.84598739986
2.70819952723
2.00823250986
1.71783261921
1.90092826036
2.29166934755
2.2673714758
2.44115143671
2.93152473544
3.40421350507
3.68847411148
7142.57304074
1782.40288942
550.533631174
193.399346645
72.9458115204
30.0765250973
14.4244150239
8.22611782311
5.26621633517
3.48697985075
2.44019248567
1.94959102386
1.97651880755
2.46251846612
2.74225478701
2.82108180446
3.254015127
3.7523334894
4.07003325621
4.12027659529
7678.87091546
1786.48202445
520.194253723
174.682828032
65.1565798717
27.3990585044
13.4182143245
7.62324254723
4.70978895448
3.03850961822
2.22683412416
2.08251868045
2.52181132714
3.13168689145
3.30617738588
3.71114202921
4.2804566265
4.65627331553
4.74442183943
4.37752863821
7548.869604
1699.25362849
461.963703424
149.84596962
56.2883636465
24.3412074916
12.0704462384
6.76199912598
4.06032191259
2.67602905404
2.24907963004
2.56645576696
3.31681385414
3.74125424528
4.20140889051
4.90561449502
5.40998397482
5.56470501538
5.25149441428
4.1968923099
6892.0601319
1513.9105176
400.892953016
129.49895598
49.7687487593
21.9786972374
10.8921556343
5.95241187557
3.55399682449
2.58074414325
2.66036203906
3.35158764966
3.95009199226
4.57553623764
5.47906594379
6.21551062155
6.53929689727
6.30305774945
5.37034328194
3.40799752681
5839.88826295
1294.14318697
345.119245967
114.521810271
45.3152263697
20.3940198665
10.0724716905
5.37106255372
3.28933498885
2.81789120184
3.37318437944
3.98692799529
4.74691381523
5.9167005479
6.96058751643
7.55897989175
7.5350263543
6.75675667791
4.8071123072
2.50459045447
4491.44477047
1028.58795749
289.473578427
102.328827299
42.3665222534
19.3765604144
9.33649547258
4.86948780675
3.2693234006
3.40654714018
4.03272818576
4.82664273172
6.23640683313
7.62862433219
8.5646791252
8.875767216
8.37382172987
6.71822150318
3.86678018389
1.76036265783
3046.85424387
753.850599692
240.657927081
94.1515710034
41.0249886205
18.3920807345
8.35207759053
4.39891032327
3.56267932377
4.02482016305
4.86294540846
6.45945805646
8.19226290048
9.4936264175
10.1746288258
10.1695486097
9.05134918596
6.11570799725
2.87953973518
1.19212643746
1843.3816073
566.25178385
217.14208251
93.8900380779
40.8101355303
16.7291860015
7.04962155376
4.1110389852
3.89389460512
4.65354483122
6.39796056372
8.46197219594
10.1471882254
11.1968780663
11.618594846
11.2586495855
9.53635755776
5.19730849435
1.95645725736
0.741620167001
1251.80174919
516.079591535
231.405468293
101.724954437
39.8724932356
14.2309875589
5.93442834907
3.93718588157
4.06594266333
5.58125035496
7.89526038258
10.0011554948
11.4902335649
12.311368159
12.4561429697
11.7686175119
9.41585614716
4.05254358042
1.24274975187
0.519728352383
1350.85445451
656.068626552
295.184381909
115.951020523
38.61855721
12.4690544558
5.31433208016
3.75809219029
4.16621821651
5.85369344547
8.0992808338
10.0714686203
11.4429219388
12.1093206032
12.0816788923
11.0886611837
8.15255481122
2.81875727168
0.806125037498
0.400113331443
2508.87114657
1113.72182954
411.85738135
132.170511106
38.6824854383
12.3541529799
5.46846207806
3.7823641573
3.90001638227
4.98867184807
6.52496824576
8.07824174624
9.30344726308
9.95061179379
9.87692549962
8.78134631942
5.86927670519
1.7907290283
0.573111422662
0.356911412796
6185.64388076
1894.31531876
534.060223655
154.50360786
46.5344304676
16.4039762425
7.3576924073
4.32306957566
3.49595202887
3.72301541015
4.41964897398
5.24998881872
6.01645335944
6.49981061537
6.46680301727
5.65888873003
3.5698670766
1.11126276473
0.456138766888
0.347939770107
10315.8276471
2470.30412483
708.408444782
206.123299027
66.6743470168
25.9363136939
11.9201946771
6.06043219061
3.55828881271
2.76104223233
2.74591775866
3.03778027249
3.3966302776
3.66538726211
3.6583166585
3.1998333661
1.96115000934
0.717125551336
0.394203339104
0.331022836825
10219.979483
2630.51419795
812.953745101
272.721408088
98.6755273059
40.2399464897
19.0481706814
9.30588218089
4.48886808811
2.48754748913
1.78935338646
1.65200808877
1.73139978633
1.85975560854
1.87995209532
1.65088854915
1.01394125178
0.475294678627
0.351445438425
0.312359273065
8744.84080058
2422.09729414
790.540900107
288.521598698
117.252888772
54.2043037626
27.8666507285
14.0001092629
6.1919527943
2.82072927696
1.50535954158
1.03073358239
0.892130396109
0.869968810361
0.856147036565
0.753918070675
0.502305974655
0.325578181782
0.312019188404
0.288804411887
7522.25892151
2116.79287622
703.782650441
268.015960101
116.800558722
58.950405381
33.3990520536
18.9305811869
8.5691411687
3.48491465077
1.59981042949
0.878188776163
0.605083101935
0.503583311295
0.455886397969
0.401084130899
0.308814891477
0.256066728183
0.278977402369
0.268660657033
6705.44538697
1872.39106234
616.909321155
236.529745233
106.822120443
57.3753346443
34.7898289979
21.0399758617
10.2465588839
4.24124276394
1.8505384793
0.925639410767
0.562844955164
0.418896471995
0.354913896017
0.310026791909
0.26025049813
0.235162309842
0.261121756629
0.263151167316
6268.6411374
1716.92609076
552.607643836
208.274574925
95.2529992592
53.2819143249
33.765235879
21.1061229216
10.5087118423
4.61914238633
2.07105955885
1.02863065711
0.60683362375
0.435627766783
0.359596941401
0.310321343795
0.265819858053
0.240882856765
0.25864035394
0.275328094563
6037.58725693
1634.1640864
512.254882443
188.534356949
86.0479187901
48.9927397004
31.6100678106
19.7411852419
9.89378250536
4.56093137881
2.13843657371
1.09924530393
0.664788256554
0.483583326515
0.399357945157
0.34076964702
0.291704857573
0.26165030067
0.268579764555
0.300641709932
5970.68896979
1595.19681842
489.808510809
176.817912603
79.5844681651
45.0734877481