/*--------------------------------*- C++ -*----------------------------------*\
| =========                 |                                                 |
| \\      /  F ield         | OpenFOAM: The Open Source CFD Toolbox           |
|  \\    /   O peration     | Version:  2312                                  |
|   \\  /    A nd           | Website:  www.openfoam.com                      |
|    \\/     M anipulation  |                                                 |
\*---------------------------------------------------------------------------*/
FoamFile
{
    version     2.0;
    format      ascii;
    arch        "LSB;label=32;scalar=64";
    class       volScalarField;
    location    "0.365/water";
    object      nut.gas;
}
// * * * * * * * * * * * * * * * * * * * * * * * * * * * * * * * * * * * * * //

dimensions      [0 2 -1 0 0 0 0];

internalField   nonuniform List<scalar> 
1503
(
3.1930460454e-07
1.22366349805e-07
5.03631889133e-08
3.41346403455e-08
1.30885473561e-07
9.62985995566e-07
4.05341726386e-06
9.1076678673e-06
1.37353572997e-05
1.66819397132e-05
1.8230187891e-05
1.89523689032e-05
1.92549706572e-05
1.93637102316e-05
1.93905380364e-05
1.93868163629e-05
1.93744137703e-05
1.93617690664e-05
1.93516064582e-05
1.93444374857e-05
1.64067836137e-06
9.89564043976e-07
4.76614016102e-07
2.46646552469e-07
1.01767668354e-07
7.63644117785e-08
1.65736265719e-07
9.68347813987e-07
4.16571317291e-06
9.49167634741e-06
1.41214171991e-05
1.69528202845e-05
1.83955249759e-05
1.90456648365e-05
1.93031428558e-05
1.9384319173e-05
1.93942782336e-05
1.93802121705e-05
1.93616805333e-05
1.93459293033e-05
2.27595619747e-06
1.64841034503e-06
1.02006746423e-06
5.4930465796e-07
3.00092027485e-07
1.41608221874e-07
1.02498195294e-07
2.41815180593e-07
1.29354994172e-06
4.65113387429e-06
9.63628400918e-06
1.39870684407e-05
1.67971100172e-05
1.8319274558e-05
1.90434294578e-05
1.93437806303e-05
1.94428025478e-05
1.94566401206e-05
1.94405835127e-05
1.9418776983e-05
2.68935902895e-06
2.0499460557e-06
1.39864910268e-06
8.57015175584e-07
5.46573635484e-07
2.59660939244e-07
1.3855047618e-07
1.32861368396e-07
4.90811036475e-07
2.28790416262e-06
6.27751323977e-06
1.09934951311e-05
1.4771816115e-05
1.71849450425e-05
1.85108544851e-05
1.91523943172e-05
1.94201199873e-05
1.9505767777e-05
1.95134055398e-05
1.94942832355e-05
2.97043668392e-06
2.33745825345e-06
1.67169013547e-06
1.11224338297e-06
6.66516160215e-07
4.40265155575e-07
1.90456093684e-07
1.23491137678e-07
2.36747662653e-07
1.16744828913e-06
4.06117562108e-06
8.46644657163e-06
1.27050168642e-05
1.582168218e-05
1.77536970322e-05
1.88042857809e-05
1.93073992563e-05
1.95112443517e-05
1.95695388049e-05
1.95666765996e-05
3.11268036736e-06
2.52930221453e-06
1.87810827476e-06
1.31209619434e-06
8.52875078732e-07
4.87172650795e-07
2.99336185466e-07
1.27524605377e-07
1.43560850324e-07
6.08203277222e-07
2.61467726921e-06
6.46117036959e-06
1.07952076985e-05
1.43845014639e-05
1.68452291308e-05
1.83162216532e-05
1.90954004946e-05
1.94562922832e-05
1.95924748244e-05
1.96217706203e-05
3.16610849203e-06
2.64804795983e-06
2.02972545549e-06
1.46633818277e-06
9.98847843411e-07
6.23527188083e-07
3.28914944571e-07
1.7348316005e-07
9.73608246356e-08
3.09729655123e-07
1.64249466691e-06
4.87955326546e-06
9.09652329221e-06
1.29678227651e-05
1.58551582413e-05
1.77214044757e-05
1.87923934406e-05
1.93376576403e-05
1.95756734408e-05
1.96532089176e-05
3.20276579497e-06
2.72498409322e-06
2.12953936674e-06
1.57162071015e-06
1.10446933656e-06
7.31075202092e-07
4.28914492349e-07
2.17496075933e-07
9.37984408306e-08
1.4144346827e-07
9.43982019059e-07
3.58536284528e-06
7.57788164054e-06
1.16054028013e-05
1.48305839359e-05
1.70533109815e-05
1.84146054197e-05
1.91601760063e-05
1.9518744707e-05
1.96589771503e-05
3.27904587158e-06
2.80381939777e-06
2.19969392718e-06
1.63840562847e-06
1.17762148539e-06
8.14894621878e-07
5.18752672812e-07
2.70101680129e-07
1.31721579047e-07
7.17575818457e-08
4.22664233299e-07
2.42582445617e-06
6.14535064679e-06
1.02753668034e-05
1.37897477862e-05
1.6337549581e-05
1.79805659043e-05
1.89338880177e-05
1.94258364054e-05
1.96398454458e-05
3.39675640108e-06
2.8795403212e-06
2.23580138784e-06
1.67032883078e-06
1.22604088999e-06
8.80588691553e-07
5.96311696886e-07
3.4724693409e-07
1.47146949036e-07
6.8447566685e-08
1.34303738139e-07
1.31823328318e-06
4.6644030872e-06
8.90245277368e-06
1.27173284399e-05
1.55850863535e-05
1.75051452149e-05
1.86689079243e-05
1.93019870386e-05
1.95980244073e-05
3.4158066449e-06
2.84033261194e-06
2.21262670531e-06
1.6798541219e-06
1.2611132934e-06
9.33579066611e-07
6.63669938174e-07
4.21748172639e-07
2.06093336952e-07
7.43926997595e-08
5.58888106313e-08
4.42273040731e-07
3.0225623018e-06
7.36186293585e-06
1.15575909967e-05
1.47847865411e-05
1.69930923626e-05
1.83723050316e-05
1.91519092848e-05
1.95352030723e-05
3.41490481384e-06
2.832079986e-06
2.21339659177e-06
1.69493372773e-06
1.29074824999e-06
9.7680257887e-07
7.21293041447e-07
4.91079124717e-07
2.70115945493e-07
9.75435748385e-08
4.87081760861e-08
1.02721385701e-07
1.38331998467e-06
5.54981531004e-06
1.02280837621e-05
1.39035486795e-05
1.64359199865e-05
1.80437469761e-05
1.89762907886e-05
1.94511970594e-05
3.39690294734e-06
2.826029765e-06
2.21538090087e-06
1.70681875759e-06
1.31381220185e-06
1.01167781308e-06
7.69626564944e-07
5.52123954367e-07
3.31395014536e-07
1.30812192407e-07
4.15366464252e-08
4.85043083993e-08
3.60291310876e-07
3.50616327066e-06
8.64989684053e-06
1.28867370478e-05
1.58072735133e-05
1.76720616727e-05
1.87706316494e-05
1.93436390119e-05
3.38147524888e-06
2.81556424371e-06
2.2098941103e-06
1.70923160946e-06
1.326658907e-06
1.03718077292e-06
8.08994399543e-07
6.03537824066e-07
3.84322340881e-07
1.61930986678e-07
4.75619061244e-08
3.22238482454e-08
9.69857001427e-08
1.65794800546e-06
6.86109398479e-06
1.16905481332e-05
1.50672960548e-05
1.72361522941e-05
1.85259115782e-05
1.92085365675e-05
3.36231636471e-06
2.80646084581e-06
2.20297364915e-06
1.70531054957e-06
1.33167430356e-06
1.05533018792e-06
8.40970201617e-07
6.45753459353e-07
4.2653273137e-07
1.86904297669e-07
5.25554369864e-08
2.75456593918e-08
5.67790934973e-08
5.45742731841e-07
4.96838245546e-06
1.0283150851e-05
1.41691142161e-05
1.67073634244e-05
1.82294802833e-05
1.90407640152e-05
3.35767307523e-06
2.80351777155e-06
2.19878537229e-06
1.70078247643e-06
1.33447175808e-06
1.07089417829e-06
8.69175402446e-07
6.80985524587e-07
4.58624600926e-07
2.05469461782e-07
5.66508930859e-08
2.61099054983e-08
3.63605222484e-08
1.91792226003e-07
3.19105164026e-06
8.65378712317e-06
1.30512094165e-05
1.60508392258e-05
1.78651408317e-05
1.88339352121e-05
3.35924186131e-06
2.80887666286e-06
2.2011169647e-06
1.7028946125e-06
1.34318884971e-06
1.09024378476e-06
8.97618552433e-07
7.1190028347e-07
4.83396584561e-07
2.20965718074e-07
6.17081001735e-08
2.56189983849e-08
2.57947052124e-08
9.19543917291e-08
1.67886871686e-06
6.73971830213e-06
1.16581797309e-05
1.52280179051e-05
1.74127288855e-05
1.85797957721e-05
3.38450404731e-06
2.82725293721e-06
2.21554610982e-06
1.71938212008e-06
1.36534001803e-06
1.11817413758e-06
9.28346859728e-07
7.40080474265e-07
5.04645741669e-07
2.38451451291e-07
7.01419101395e-08
2.66862802133e-08
2.29333548419e-08
5.13189550387e-08
7.21783102025e-07
4.73288979155e-06
9.97872707294e-06
1.42008360873e-05
1.68483972203e-05
1.82676187308e-05
3.4262943794e-06
2.85569084798e-06
2.24419522699e-06
1.75501125231e-06
1.40446330043e-06
1.15523269233e-06
9.60958613769e-07
7.6625065424e-07
5.26367530314e-07
2.62722508165e-07
8.50969578451e-08
2.94419508879e-08
2.2189798847e-08
3.75415615479e-08
2.70569944839e-07
2.87156267683e-06
8.0246524761e-06
1.29293673635e-05
1.61443283051e-05
1.78836315839e-05
3.4634310457e-06
2.90601820525e-06
2.31774128345e-06
1.8333774515e-06
1.46821023791e-06
1.20021063108e-06
9.92215404198e-07
7.87910800472e-07
5.49745018732e-07
2.98598876222e-07
1.0711601591e-07
3.37816789156e-08
2.25502918327e-08
2.64139221073e-08
9.44479468659e-08
1.4572524824e-06
5.93566664925e-06
1.13987483856e-05
1.52746519191e-05
1.74121389291e-05
3.56588455701e-06
3.06507907985e-06
2.48837251297e-06
1.96605059745e-06
1.54885281597e-06
1.24382914196e-06
1.0142984159e-06
8.02206227183e-07
5.77895822259e-07
3.43051224725e-07
1.36485570639e-07
3.96336880135e-08
2.32936798887e-08
2.47425324555e-08
5.06750716383e-08
5.71168182247e-07
3.96934231758e-06
9.65539013323e-06
1.42301335946e-05
1.68401906218e-05
3.80765107367e-06
3.32994150476e-06
2.70297847765e-06
2.09776497538e-06
1.61557166496e-06
1.27276936183e-06
1.02561008791e-06
8.15794829692e-07
6.10899571417e-07
3.92945090765e-07
1.72455010613e-07
4.71532489429e-08
2.38935853555e-08
2.48257350459e-08
3.30707259809e-08
1.54163577595e-07
2.28736300006e-06
7.7944230243e-06
1.30182862883e-05
1.61592235555e-05
4.12144674275e-06
3.57707124762e-06
2.83786645251e-06
2.16341423088e-06
1.65192143286e-06
1.29128671287e-06
1.0343888013e-06
8.31791921545e-07
6.47649036517e-07
4.46632531793e-07
2.1414320195e-07
5.65391805505e-08
2.42594380561e-08
2.43946375964e-08
3.13363775805e-08
7.8270975305e-08
9.31617059048e-07
5.91789056666e-06
1.16558315102e-05
1.53636280967e-05
4.28726282238e-06
3.62164682503e-06
2.83980159349e-06
2.17091795135e-06
1.66776269298e-06
1.30412107006e-06
1.04286294043e-06
8.48241625987e-07
6.83519420506e-07
4.99915453508e-07
2.59412399877e-07
6.80609261581e-08
2.48061546298e-08
2.35484396115e-08
2.94452614229e-08
4.65008267459e-08
2.63620306874e-07
4.04153680192e-06
1.01747335037e-05
1.4451896014e-05
4.33901546502e-06
3.63710282188e-06
2.843604375e-06
2.17884305389e-06
1.67809994131e-06
1.31175564001e-06
1.04893926042e-06
8.61653594935e-07
7.14171140241e-07
5.47526626501e-07
3.036223736e-07
8.17920548768e-08
2.5782143804e-08
2.28559010973e-08
2.73822756454e-08
3.89040452312e-08
1.27227948009e-07
2.21279749348e-06
8.59442640023e-06
1.3420497156e-05
4.38671754647e-06
3.66576550378e-06
2.86215305747e-06
2.19409218874e-06
1.6895151317e-06
1.31934960728e-06
1.05516893387e-06
8.73514949875e-07
7.40486464807e-07
5.87208040621e-07
3.41185523909e-07
9.72100235815e-08
2.75585418603e-08
2.26214113301e-08
2.58364848991e-08
3.32495527188e-08
8.66509237423e-08
9.37969907125e-07
6.90587034796e-06
1.22585379169e-05
4.3914821022e-06
3.6799367601e-06
2.87813791701e-06
2.2077513196e-06
1.69938757763e-06
1.32636359832e-06
1.0620970146e-06
8.86324756773e-07
7.65080643338e-07
6.19398968052e-07
3.71713344428e-07
1.12854119808e-07
3.02390191523e-08
2.28518863416e-08
2.50528569054e-08
2.95957657962e-08
4.98605631407e-08
3.83362350031e-07
5.17176379435e-06
1.09629858104e-05
4.38967479931e-06
3.68306875045e-06
2.88528362366e-06
2.21399818805e-06
1.70489553174e-06
1.33195993865e-06
1.07011949041e-06
9.01759959097e-07
7.88770205302e-07
6.4468654248e-07
3.94677267229e-07
1.26923051083e-07
3.33773253062e-08
2.33985690681e-08
2.49692737726e-08
2.77254856932e-08
3.72376883188e-08
1.82593092478e-07
3.51661146716e-06
9.53529366406e-06
4.3819860201e-06
3.68376210629e-06
2.88445377054e-06
2.21098309684e-06
1.70451505945e-06
1.33556482701e-06
1.07947845294e-06
9.19537242905e-07
8.1045333662e-07
6.62897990659e-07
4.08748684855e-07
1.3687265443e-07
3.61170458475e-08
2.4065961464e-08
2.52992848201e-08
2.70462358678e-08
3.18693257797e-08
1.03310732412e-07
2.05987388714e-06
7.97994226126e-06
4.39870140222e-06
3.69021480076e-06
2.88329809368e-06
2.20475914888e-06
1.70051310223e-06
1.33739435069e-06
1.08940526102e-06
9.37615134328e-07
8.28233610482e-07
6.72928878848e-07
4.12078425923e-07
1.40589017027e-07
3.76182418259e-08
2.46112790203e-08
2.56697017326e-08
2.69970447071e-08
2.94733322412e-08
6.92161261036e-08
9.92215183289e-07
6.36087140517e-06
4.39977523456e-06
3.69365869169e-06
2.88208069689e-06
2.19739357702e-06
1.69369738123e-06
1.33681875195e-06
1.09848757085e-06
9.53668658862e-07
8.40401086555e-07
6.73264723789e-07
4.03778323461e-07
1.37752073327e-07
3.76068812199e-08
2.48228851128e-08
2.58881226846e-08
2.72033023881e-08
2.84958438423e-08
4.56963008085e-08
4.13097803905e-07
4.78249995463e-06
4.40821741686e-06
3.69306183095e-06
2.87596599606e-06
2.18593073449e-06
1.68298230501e-06
1.33319604373e-06
1.10573835035e-06
9.65965073214e-07
8.45757623135e-07
6.62830632323e-07
3.85319687283e-07
1.30550903168e-07
3.67077860125e-08
2.48130197042e-08
2.60048002491e-08
2.73281380212e-08
2.80198966537e-08
3.33474121269e-08
1.79864001643e-07
3.30258603043e-06
4.39404839573e-06
3.6780497128e-06
2.85626087624e-06
2.16582309435e-06
1.66789655374e-06
1.32760711064e-06
1.11137160782e-06
9.74113293231e-07
8.43392691853e-07
6.41159050214e-07
3.6004087652e-07
1.22134837397e-07
3.58213287558e-08
2.47795590274e-08
2.60541998847e-08
2.73302133063e-08
2.77016098277e-08
3.01920040895e-08
9.56956951766e-08
2.0346092727e-06
4.38722857466e-06
3.64636109452e-06
2.81690271413e-06
2.13461567345e-06
1.64975616406e-06
1.32328953286e-06
1.11718184709e-06
9.78757335585e-07
8.32023669557e-07
6.09812070896e-07
3.32983737829e-07
1.15463874331e-07
3.57222051849e-08
2.49000963352e-08
2.60675297319e-08
2.72878415557e-08
2.75034754159e-08
2.85562534415e-08
6.32504520448e-08
1.12590170433e-06
4.34053135513e-06
3.57349058547e-06
2.75565521295e-06
2.10191916131e-06
1.64063540747e-06
1.32866959795e-06
1.12763015766e-06
9.80834824643e-07
8.10950426144e-07
5.73834555824e-07
3.10053534869e-07
1.12782962801e-07
3.71238383809e-08
2.53249272313e-08
2.60827694284e-08
2.72955808936e-08
2.74810331114e-08
2.78416375623e-08
4.95298997729e-08
5.67608053362e-07
4.18878354761e-06
3.43778935285e-06
2.69899931968e-06
2.10431057358e-06
1.66555251715e-06
1.35594485865e-06
1.14696351676e-06
9.78494164007e-07
7.82287261128e-07
5.41845060774e-07
2.97089336276e-07
1.16472120532e-07
4.09254823261e-08
2.61128733771e-08
2.61442968773e-08
2.73762357208e-08
2.7531196135e-08
2.76684809641e-08
3.56480398885e-08
2.58524643944e-07
4.03472965921e-06
3.37994721979e-06
2.7420162305e-06
2.19013567709e-06
1.74346423139e-06
1.41025437428e-06
1.17028112168e-06
9.66981486555e-07
7.54777273409e-07
5.25659678445e-07
3.01241807844e-07
1.29548469655e-07
4.74059107296e-08
2.7386212857e-08
2.62929220795e-08
2.7444319069e-08
2.74274877871e-08
2.77466406231e-08
3.08090965681e-08
1.15021404741e-07
4.04437900134e-06
3.50585829563e-06
2.92331752465e-06
2.35655793175e-06
1.85908639006e-06
1.4745993579e-06
1.18743965516e-06
9.55551930687e-07
7.44450782711e-07
5.35446404339e-07
3.27702788425e-07
1.54252085003e-07
5.75817212251e-08
2.94201188001e-08
2.65486277589e-08
2.7360259753e-08
2.71309218331e-08
2.77268661132e-08
3.04191729792e-08
6.77018402341e-08
1.93401532797e-05
1.93383054484e-05
1.93383039914e-05
1.93397248302e-05
1.93421836055e-05
1.93449770509e-05
1.93463531947e-05
1.93418926892e-05
1.93209005268e-05
1.92585534842e-05
1.90994493246e-05
1.87251265819e-05
1.78967668349e-05
1.61803533233e-05
1.2958486622e-05
7.96347563927e-06
2.85327052366e-06
4.7365744768e-07
1.48224601795e-07
6.7409926992e-07
1.93353584381e-05
1.93300317055e-05
1.93287857293e-05
1.93302200155e-05
1.93323489782e-05
1.93312115257e-05
1.9317988262e-05
1.92732418692e-05
1.91559664976e-05
1.8884367668e-05
1.83063828182e-05
1.71661955724e-05
1.51012529044e-05
1.17726180105e-05
7.31671070635e-06
3.03560357326e-06
7.26549673686e-07
1.90642883137e-07
3.48311541183e-07
1.33938188727e-06
1.94011103967e-05
1.9390410197e-05
1.93854326756e-05
1.9383091677e-05
1.93778802454e-05
1.93588084494e-05
1.93034113876e-05
1.91673497562e-05
1.88683257604e-05
1.82656267369e-05
1.71446712455e-05
1.52337253537e-05
1.23075223141e-05
8.44535466399e-06
4.39755490518e-06
1.50715852123e-06
3.73668274423e-07
2.35154505407e-07
7.01384035629e-07
1.95632867722e-06
1.9471887032e-05
1.94550517511e-05
1.9443511272e-05
1.94318166349e-05
1.94087448899e-05
1.93524694947e-05
1.92218677411e-05
1.8943870124e-05
1.8398949672e-05
1.74125426912e-05
1.57701866937e-05
1.32857193723e-05
9.95260309375e-06
6.16510731864e-06
2.83077577627e-06
8.87388498979e-07
2.8748742897e-07
3.86786797186e-07
1.15961662992e-06
2.4606107434e-06
1.95449336891e-05
1.95225498041e-05
1.950161658e-05
1.94737861319e-05
1.94201863794e-05
1.93054825186e-05
1.90682132027e-05
1.86097643545e-05
1.77878302443e-05
1.64260103644e-05
1.4356873332e-05
1.15150901077e-05
8.07866853489e-06
4.59899344421e-06
1.92270427218e-06
5.99127790375e-07
3.03764808794e-07
6.38903295235e-07
1.62475402504e-06
2.82611634897e-06
1.96080743138e-05
1.95817885169e-05
1.95487366389e-05
1.94973872967e-05
1.93999851843e-05
1.92068050498e-05
1.88378528404e-05
1.81769516298e-05
1.70763282624e-05
1.53830297766e-05
1.29980353916e-05
9.96985192076e-06
6.60093229473e-06
3.49452645556e-06
1.36504974729e-06
4.65062995546e-07
3.93669177603e-07
9.63637825634e-07
2.02099279252e-06
3.073886073e-06
1.96558534033e-05
1.96277876372e-05
1.95798167302e-05
1.94972641664e-05
1.93432072048e-05
1.90544830546e-05
1.853690536e-05
1.76664611977e-05
1.63047953283e-05
1.4337077976e-05
1.17354644638e-05
8.63976033405e-06
5.42633239911e-06
2.69402650513e-06
1.01228528709e-06
4.20394384948e-07
5.52012025237e-07
1.31061643584e-06
2.32552128881e-06
3.23689243057e-06
1.9685844942e-05
1.96579821336e-05
1.95920037581e-05
1.9470512806e-05
1.92481071106e-05
1.88505948888e-05
1.81751919932e-05
1.709920908e-05
1.55041216024e-05
1.33189572198e-05
1.05802520468e-05
7.4954163318e-06
4.48020746416e-06
2.10207165542e-06
7.90543341207e-07
4.40087485018e-07
7.68376359688e-07
1.63426026323e-06
2.54908054341e-06
3.34114033802e-06
1.96976660725e-05
1.96712797458e-05
1.95837889641e-05
1.94158339023e-05
1.91150153216e-05
1.8599408672e-05
1.77633770097e-05
1.64929416072e-05
1.46954300431e-05
1.23436650574e-05
9.52847387994e-06
6.50540267653e-06
3.70828887084e-06
1.66045696457e-06
6.59632201169e-07
5.14566344189e-07
1.02126550016e-06
1.9106704636e-06
2.71050466086e-06
3.40466322053e-06
1.96915783091e-05
1.96669307003e-05
1.95540421229e-05
1.93325801164e-05
1.89451603057e-05
1.83057615413e-05
1.73110723229e-05
1.58611213901e-05
1.38917070878e-05
1.14163285687e-05
8.5700736951e-06
5.64240556106e-06
3.07276733412e-06
1.33273353271e-06
5.96677925103e-07
6.38269403089e-07
1.28453064677e-06
2.13588542889e-06
2.82601823761e-06
3.43975077174e-06
1.96674298372e-05
1.96438650128e-05
1.95015240085e-05
1.92202628168e-05
1.87399993723e-05
1.79741809066e-05
1.68260935917e-05
1.52131745715e-05
1.31000418373e-05
1.05365625066e-05
7.69356499276e-06
4.88481876922e-06
2.5478612177e-06
1.09499853785e-06
5.88500965739e-07
8.03341808038e-07
1.53640518184e-06
2.31615254824e-06
2.90778053989e-06
3.45483119274e-06
1.96240850052e-05
1.96004602699e-05
1.94247670167e-05
1.90783898175e-05
1.8500926119e-05
1.76085401085e-05
1.63144160716e-05
1.45553058758e-05
1.23236738119e-05
9.70135958112e-06
6.88835528907e-06
4.21661629469e-06
2.11612287103e-06
9.30663460167e-07
6.27408122301e-07
9.9783473992e-07
1.7642721262e-06
2.46016793407e-06
2.96475630976e-06
3.45575199331e-06
1.9559510302e-05
1.95347873732e-05
1.9322329689e-05
1.89066339392e-05
1.82293400956e-05
1.72121566148e-05
1.57805840011e-05
1.38915256709e-05
1.15636821655e-05
8.90696669219e-06
6.14585807998e-06
3.62667421931e-06
1.7655927514e-06
8.27690780031e-07
7.08090538329e-07
1.20753661413e-06
1.96409933591e-06
2.57569709598e-06
3.00356726888e-06
3.44665483249e-06
1.94713575224e-05
1.94451894015e-05
1.91933015315e-05
1.87052298887e-05
1.79269717455e-05
1.67881748072e-05
1.52283448954e-05
1.32246709037e-05
1.08203014205e-05
8.15009471278e-06
5.45998655191e-06
3.10791420403e-06
1.48761737304e-06
7.77161546004e-07
8.25146670127e-07
1.41921660159e-06
2.13717481281e-06
2.66891332747e-06
3.02909930657e-06
3.43055646232e-06
1.93574753051e-05
1.93308006687e-05
1.90377690999e-05
1.84753689471e-05
1.75962455808e-05
1.63399947618e-05
1.46612555212e-05
1.25572253096e-05
1.00938332121e-05
7.42862785874e-06
4.82724815704e-06
2.65629632963e-06
1.27522941837e-06
7.72388187278e-07
9.71671025685e-07
1.62310724866e-06
2.28692515259e-06
2.74462129454e-06
3.04495161863e-06
3.40972183942e-06
1.92159313704e-05
1.91916720288e-05
1.88569695684e-05
1.82193442663e-05
1.72404311536e-05
1.5871484008e-05
1.40830106721e-05
1.18917631594e-05
9.3851021941e-06
6.74188395842e-06
4.24647456072e-06
2.26962580733e-06
1.12210632583e-06
8.08101163617e-07
1.13923054197e-06
1.81366347348e-06
2.41703371734e-06
2.80655240211e-06
3.05375704067e-06
3.38588378827e-06
1.90445379457e-05
1.90284304432e-05
1.86530201768e-05
1.79403001583e-05
1.68634079499e-05
1.53867923407e-05
1.34973459752e-05
1.12309388061e-05
8.6954613346e-06
6.09046946171e-06
3.71819260062e-06
1.94625529827e-06
1.02211956253e-06
8.79574016341e-07
1.31891769796e-06
1.98888270856e-06
2.53074587275e-06
2.85758473704e-06
3.0573952687e-06
3.3603455705e-06
1.88400932137e-05
1.88415716093e-05
1.84282530025e-05
1.76415770949e-05
1.64690272416e-05
1.4889770733e-05
1.29075561453e-05
1.05771119785e-05
8.02646647827e-06
5.47583378848e-06
3.24372065715e-06
1.68395383822e-06
9.69365061141e-07
9.81866169934e-07
1.50273490542e-06
2.14902628651e-06
2.63079225126e-06
2.89992229655e-06
3.05713832209e-06
3.3340022863e-06
1.85975575709e-05
1.86305790215e-05
1.81843224855e-05
1.73258254522e-05
1.60602680231e-05
1.43832187125e-05
1.23158717644e-05
9.93185211327e-06
7.37943860197e-06
4.89970108137e-06
2.82420614229e-06
1.47929677268e-06
9.58416449312e-07
1.10945960881e-06
1.68461514114e-06
2.29545103756e-06
2.71948373324e-06
2.93525501e-06
3.0537700635e-06
3.30732488677e-06
1.83098156607e-05
1.83932635891e-05
1.79214281894e-05
1.699423697e-05
1.56385444928e-05
1.38683090757e-05
1.17230153849e-05
9.2956013806e-06
6.75515156013e-06
4.36359818556e-06
2.45990630336e-06
1.32776010669e-06
9.84506035405e-07
1.25639212493e-06
1.86075702411e-06
2.42985029551e-06
2.79878771942e-06
2.96489570661e-06
3.0477095013e-06
3.28035584656e-06
1.79688229515e-05
1.81257976663e-05
1.76380410851e-05
1.66462379043e-05
1.52034627228e-05
1.33444391829e-05
1.11281454051e-05
8.66768206361e-06
6.15382873402e-06
3.8686783493e-06
2.14995150295e-06
1.22435540221e-06
1.04346631247e-06
1.41673765434e-06
2.02934314757e-06
2.55387507139e-06
2.87035855939e-06
2.98988793439e-06
3.03914860106e-06
3.25275900473e-06
1.75667935191e-05
1.78233190777e-05
1.73312128893e-05
1.62797092143e-05
1.47530545917e-05
1.28095235281e-05
1.05292208176e-05
8.04672147303e-06
5.57555324645e-06
3.41593557777e-06
1.89260237152e-06
1.1643822579e-06
1.13145128266e-06
1.58515809261e-06
2.18992565115e-06
2.66898359084e-06
2.93554896895e-06
3.01108488897e-06
3.02819533387e-06
3.22394353695e-06
1.70967891969e-05
1.74806377027e-05
1.69971153657e-05
1.58914505302e-05
1.42842760307e-05
1.22605941932e-05
9.92373082654e-06
7.43148654095e-06
5.02106186636e-06
3.00668666633e-06
1.68574448222e-06
1.14388619363e-06
1.24458320377e-06
1.75729416441e-06
2.34278086624e-06
2.77639402417e-06
2.99542828822e-06
3.02920343946e-06
3.01499768502e-06
3.19324633538e-06
1.65528210604e-05
1.70924432567e-05
1.66313432418e-05
1.5477604269e-05
1.37936111637e-05
1.16946156951e-05
9.30970290912e-06
6.82198278711e-06
4.49264845238e-06
2.64294895275e-06
1.52725594768e-06
1.15964374048e-06
1.37870612344e-06
1.92989840954e-06
2.48843120245e-06
2.87708421923e-06
3.05081884625e-06
3.04485796352e-06
2.99982229725e-06
3.16012405878e-06
1.59278814801e-05
1.66529428623e-05
1.62291455811e-05
1.50341975759e-05
1.32778511017e-05
1.11094537647e-05
8.68677968503e-06
6.22044921462e-06
3.99468103432e-06
2.32730778164e-06
1.41504519364e-06
1.20877718676e-06
1.52937847776e-06
2.10074564642e-06
2.6273953206e-06
2.9718237183e-06
3.10234754166e-06
3.05857850255e-06
2.98307509507e-06
3.12429681117e-06
1.52126982892e-05
1.615605409e-05
1.57861531244e-05
1.45580409064e-05
1.27350204948e-05
1.05047601789e-05
8.05697701581e-06
5.63177659092e-06
3.5333099879e-06
2.06219394328e-06
1.34685370177e-06
1.28826952955e-06
1.69211706657e-06
2.26842617379e-06
2.76012141395e-06
3.06122743946e-06
3.15050026166e-06
3.07081764938e-06
2.96527297733e-06
3.08580813857e-06
1.439927327e-05
1.55970093309e-05
1.52996523127e-05
1.40477361622e-05
1.21650786347e-05
9.88237553471e-06
7.42476887564e-06
5.06309531612e-06
3.11536604932e-06
1.84894898121e-06
1.32007099868e-06
1.3946442472e-06
1.862773692e-06
2.43212343833e-06
2.88701317542e-06
3.14581132206e-06
3.19566505915e-06
3.08195051307e-06
2.94699221154e-06
3.04500709758e-06
1.34804426939e-05
1.49730466281e-05
1.47693359169e-05
1.35040979939e-05
1.15699565622e-05
9.24604777027e-06
6.79650154969e-06
4.52272358487e-06
2.74692634785e-06
1.68723436664e-06
1.3317067231e-06
1.52393465148e-06
2.03786675748e-06
2.59142896147e-06
3.00846808536e-06
3.22602998815e-06
3.23815632649e-06
3.09227136052e-06
2.9288203023e-06
3.00249101569e-06
1.24484088283e-05
1.42829231172e-05
1.41970651667e-05
1.2929785407e-05
1.09530198132e-05
8.60077942245e-06
6.17957970889e-06
4.01900329253e-06
2.43219731823e-06
1.57507962818e-06
1.37847386634e-06
1.67189468615e-06
2.21473446079e-06
2.74619853635e-06
3.12488717698e-06
3.30228997947e-06
3.27822311998e-06
3.1019895947e-06
2.91132484315e-06
2.95905400699e-06
1.1306464226e-05
1.35279220969e-05
1.35862930401e-05
1.23285932013e-05
1.03184637236e-05
7.95233713737e-06
5.58191079175e-06
3.55946179076e-06
2.17308258075e-06
1.50940752046e-06
1.45685732097e-06
1.83430056434e-06
2.39148192112e-06
2.89643590724e-06
3.23665622166e-06
3.37494886988e-06
3.31605304961e-06
3.11122627309e-06
2.89503355423e-06
2.91566470486e-06
1.00665894104e-05
1.27096841698e-05
1.29406394063e-05
1.17046479039e-05
9.67099892769e-06
7.30721672731e-06
5.0117608866e-06
3.15037475332e-06
1.96936010316e-06
1.48662569462e-06
1.5631024381e-06
2.00720252363e-06
2.566791513e-06
3.04220121443e-06
3.34412250335e-06
3.4443189433e-06
3.35178416314e-06
3.12001130252e-06
2.88040646274e-06
2.87346260961e-06
8.72372793009e-06
1.18234392246e-05
1.2262011588e-05
1.10620039711e-05
9.01611455501e-06
6.67308935444e-06
4.47782649522e-06
2.79651897871e-06
1.81914042039e-06
1.50296673004e-06
1.6931640676e-06
2.1870707321e-06
2.73970949444e-06
3.18355851027e-06
3.44759377376e-06
3.51068953452e-06
3.38553105324e-06
3.12828139519e-06
2.86778076419e-06
2.83373538176e-06
7.28650591215e-06
1.08616121848e-05
1.15509207716e-05
1.04050382193e-05
8.36069583806e-06
6.05920479073e-06
3.98895164277e-06
2.50080436026e-06
1.71929694533e-06
1.55452364209e-06
1.84272386795e-06
2.37086778061e-06
2.90950739418e-06
3.32057857637e-06
3.5473706669e-06
3.57436762724e-06
3.41742098905e-06
3.13587934145e-06
2.85728178265e-06
2.79783626677e-06
5.82163235326e-06
9.82239125308e-06
1.08079173292e-05
9.73890940623e-06
7.71320286704e-06
5.47598896202e-06
3.55307157656e-06
2.26378638296e-06
1.66579407289e-06
1.63715910412e-06
2.00736860051e-06
2.55610891306e-06
3.07565589128e-06
3.45339117632e-06
3.64379917978e-06
3.63571995709e-06
3.44762758614e-06
3.14255752668e-06
2.84871399607e-06
2.76702199956e-06
4.38893847872e-06
8.69805132246e-06
1.00323516502e-05
9.06940215703e-06
7.08307200737e-06
4.93369674046e-06
3.17571271243e-06
2.08345583636e-06
1.65401713359e-06
1.74652066183e-06
2.18293165341e-06
2.74093888528e-06
3.23788076665e-06
3.58225387306e-06
3.7373133703e-06
3.69519352956e-06
3.47638889361e-06
3.14799278035e-06
2.84146635366e-06
2.74222215718e-06
3.04505790697e-06
7.47759070041e-06
9.22333213214e-06
8.40298218946e-06
6.47958454557e-06
4.44054354282e-06
2.85880081994e-06
1.95562351976e-06
1.67918451623e-06
1.87827607374e-06
2.36589684641e-06
2.92420053863e-06
3.39622800029e-06
3.70759019578e-06
3.82843693734e-06
3.75329633406e-06
3.50400131896e-06
3.15181918455e-06
2.8344750941e-06
2.72377766049e-06
1.93559316071e-06
6.19032667714e-06
8.38533450347e-06
7.74686858808e-06
5.91036734044e-06
4.00108968846e-06
2.60049694872e-06
1.87488267879e-06
1.73681427619e-06
2.02848415766e-06
2.55369116411e-06
3.10542056481e-06
3.5510544784e-06
3.82995459946e-06
3.9177255285e-06
3.81053268e-06
3.53078071312e-06
3.15365224056e-06
2.82620009345e-06
2.71105976235e-06
1.12963354256e-06
4.90175250038e-06
7.52673552126e-06
)
;

boundaryField
{
    emptyPatch
    {
        type            empty;
    }
    minY
    {
        type            calculated;
        value           nonuniform List<scalar> 
40
(
1.93374713617e-05
1.93368291493e-05
1.9336727e-05
1.93366060816e-05
1.93364877471e-05
1.93363772485e-05
1.93362750359e-05
1.93361820488e-05
1.93360991972e-05
1.93360261511e-05
1.9335962544e-05
1.93359077841e-05
1.93358609907e-05
1.93358213188e-05
1.93357880631e-05
1.93357606458e-05
1.93357385981e-05
1.93357215577e-05
1.93357092627e-05
1.93357015269e-05
1.93356982849e-05
1.93356992622e-05
1.9335703881e-05
1.9335711642e-05
1.93357221928e-05
1.93357353001e-05
1.93357508298e-05
1.93357687294e-05
1.93357890122e-05
1.93358117477e-05
1.93358370592e-05
1.93358651392e-05
1.93358962922e-05
1.93359310032e-05
1.93359699355e-05
1.93360134654e-05
1.93360609896e-05
1.93361135422e-05
1.93361844826e-05
1.93368977624e-05
)
;
    }
    maxY
    {
        type            calculated;
        value           nonuniform List<scalar> 0();
    }
    water_to_cooler
    {
        type            nutkWallFunction;
        blending        stepwise;
        value           uniform 0;
    }
    water_to_heater
    {
        type            nutkWallFunction;
        blending        stepwise;
        value           uniform 0;
    }
    procBoundary2to3
    {
        type            processor;
        value           nonuniform List<scalar> 
41
(
4.26331897746e-06
3.79383342024e-06
3.19831144949e-06
2.55776129617e-06
1.9977913913e-06
1.55575994633e-06
1.21812898779e-06
9.63066200008e-07
7.61084638289e-07
5.74995749038e-07
3.80046853122e-07
1.9531984577e-07
7.38319616474e-08
3.26836166421e-08
2.69524853981e-08
2.71790538233e-08
2.67876390217e-08
2.72939273251e-08
3.00217783055e-08
5.13221803045e-08
7.10791501567e-06
5.38023787292e-06
3.61594513001e-06
2.39633193464e-06
1.83581516154e-06
1.82310000814e-06
2.19388354384e-06
2.74472130015e-06
3.28465833818e-06
3.70291473571e-06
3.94993605798e-06
4.00569567631e-06
3.86738650677e-06
3.55719110609e-06
3.15358910563e-06
2.8157492252e-06
2.70420445126e-06
5.27035832449e-07
3.6699743901e-06
7.10791501567e-06
6.65483469045e-06
)
;
    }
}

