/*--------------------------------*- C++ -*----------------------------------*\
| =========                 |                                                 |
| \\      /  F ield         | OpenFOAM: The Open Source CFD Toolbox           |
|  \\    /   O peration     | Version:  2312                                  |
|   \\  /    A nd           | Website:  www.openfoam.com                      |
|    \\/     M anipulation  |                                                 |
\*---------------------------------------------------------------------------*/
FoamFile
{
    version     2.0;
    format      ascii;
    arch        "LSB;label=32;scalar=64";
    class       volScalarField;
    location    "0.54/water";
    object      Tf.gasAndLiquid;
}
// * * * * * * * * * * * * * * * * * * * * * * * * * * * * * * * * * * * * * //

dimensions      [0 0 0 1 0 0 0];

internalField   nonuniform List<scalar> 
6000
(
314.366780297
306.125366951
302.635810101
301.071657044
300.454139929
300.092458545
300.003950404
300.000023325
300.00000002
300
300
300
300
300
300
300
300
300
300
300
320.376575488
308.386226458
303.039262261
301.112179011
300.402926442
300.146604587
300.047409508
300.005408891
300.000081672
300.000000088
300
300
300
300
300
300
300
300
300
300
320.399932008
307.929251812
302.725611881
300.916127397
300.303458177
300.100222827
300.032875061
300.008312887
300.000596408
300.00000637
300.000000002
300
300
300
300
300
300
300
300
300
319.532162271
307.910849914
302.836866161
300.954879011
300.311005301
300.098445905
300.029973847
300.008782265
300.001450473
300.000055154
300.000000431
300
300
300
300
300
300
300
300
300
318.659044204
307.738346583
302.942156536
301.038875177
300.35188107
300.115888017
300.035878247
300.010229054
300.002773898
300.00025201
300.000005789
300.000000001
300
300
300
300
300
300
300
300
317.700631661
307.409672963
302.926223759
301.084140809
300.384917468
300.134465998
300.044867976
300.013299788
300.003597355
300.000681435
300.000030732
300.000000529
300
300
300
300
300
300
300
300
317.256071852
307.163240474
302.853140382
301.089231228
300.402158483
300.147929342
300.053408389
300.01715849
300.004675119
300.001242932
300.000127327
300.000003428
300
300
300
300
300
300
300
300
317.112902181
306.990447584
302.765505319
301.068265732
300.408014351
300.157363501
300.060930503
300.021417622
300.006058859
300.001531082
300.000340779
300.000015191
300.000000009
300
300
300
300
300
300
300
317.074836707
306.952350714
302.751710882
301.072163514
300.419894674
300.168854556
300.069124948
300.02627625
300.007893214
300.001903491
300.000493706
300.000060123
300.000000329
300
300
300
300
300
300
300
317.11575949
306.962178989
302.76026447
301.087741584
300.436122901
300.182172229
300.078217409
300.031616303
300.010105651
300.002388998
300.000557886
300.000153088
300.000005192
300.000000005
300
300
300
300
300
300
317.17570901
306.948859029
302.750490059
301.093586296
300.448438738
300.193970371
300.086887759
300.036992088
300.012566767
300.002954244
300.000624144
300.000169653
300.000023419
300.00000017
300
300
300
300
300
300
317.258653234
306.878118814
302.695864284
301.077216727
300.450823626
300.200938126
300.093370879
300.041602553
300.015158394
300.003687475
300.000697157
300.000168217
300.000051916
300.000001822
300.000000001
300
300
300
300
300
317.284171023
306.725346448
302.579546017
301.026747869
300.437091015
300.20073267
300.096577633
300.044874898
300.017452603
300.004568945
300.000810187
300.000166093
300.000051328
300.000005725
300.000000019
300
300
300
300
300
317.245076533
306.664117383
302.51847721
300.987687271
300.42084395
300.197391409
300.09793876
300.04729613
300.019493637
300.00553952
300.000971629
300.000167429
300.000044253
300.000010055
300.00000012
300
300
300
300
300
317.140604813
306.691825178
302.515219951
300.974343068
300.412267761
300.195387702
300.099445046
300.049793031
300.021636972
300.006675564
300.001200916
300.000173862
300.000037296
300.000012531
300.000000395
300
300
300
300
300
316.722783016
306.617807132
302.505614836
300.968145185
300.408050432
300.195564448
300.102416872
300.0532697
300.024380107
300.008160177
300.001545529
300.000191448
300.000031454
300.000008858
300.000000746
300.000000002
300
300
300
300
316.303876938
306.514584541
302.478554265
300.957739817
300.406237796
300.199362683
300.108313858
300.05869382
300.028261071
300.010219184
300.002078612
300.00023375
300.000029447
300.00000641
300.000001283
300.000000016
300
300
300
300
316.617140443
306.635174492
302.513674901
300.969903932
300.417418305
300.211049722
300.118675843
300.066604854
300.033486219
300.012917577
300.002843034
300.000316873
300.000034504
300.000006318
300.000001347
300.000000071
300
300
300
300
317.646647486
307.130475453
302.736068596
301.062587429
300.459036294
300.234006302
300.133485041
300.076445483
300.039557306
300.015988237
300.00375662
300.000440194
300.000047867
300.000008211
300.000001578
300.000000261
300.000000001
300
300
300
317.994672287
307.429204595
302.950542336
301.180187334
300.514519376
300.261920091
300.149828636
300.086736346
300.045713084
300.018990879
300.004696896
300.000581337
300.000067102
300.000011446
300.000002083
300.000000354
300
300
300
300
318.089653233
307.526660909
303.039226924
301.24804282
300.556328726
300.285448255
300.164308189
300.096245762
300.051649934
300.021758707
300.005560568
300.000720466
300.000085527
300.000014849
300.000002601
300.000000416
300
300
300
300
318.163354913
307.507512369
303.042869854
301.2657449
300.575422602
300.300307081
300.175317468
300.104447143
300.057315795
300.024394603
300.006339964
300.000857646
300.000104229
300.000018222
300.000003076
300.000000458
300
300
300
300
318.160495714
307.360954279
302.948167053
301.232524887
300.57219437
300.306437232
300.182818655
300.111073886
300.061989387
300.026859234
300.007092886
300.00098867
300.000120375
300.000021021
300.000003503
300.000000493
300
300
300
300
318.134418437
307.249596647
302.862624789
301.191695095
300.560617734
300.30780659
300.18787605
300.116093748
300.065296066
300.028925637
300.007880294
300.001127732
300.000132809
300.000022717
300.000003789
300.000000519
300
300
300
300
318.054366677
307.189384624
302.809579647
301.163318196
300.550837244
300.30790266
300.191196111
300.119087171
300.067266551
300.030474833
300.008740629
300.001295074
300.000143331
300.000023921
300.000004036
300.000000554
300
300
300
300
317.987243463
307.15955498
302.788341462
301.153726807
300.548350876
300.30906377
300.1930785
300.12004551
300.06797916
300.03143479
300.009556846
300.001485997
300.000157116
300.000025877
300.000004377
300.000000593
300
300
300
300
317.908759844
307.113342391
302.763533886
301.148221683
300.549585744
300.310650186
300.193167767
300.119295025
300.067569025
300.031754438
300.010177911
300.001700541
300.000187171
300.000028117
300.000004625
300.000000596
300
300
300
300
317.823329119
306.98780585
302.694598873
301.124858883
300.54456274
300.308998098
300.190740005
300.116955078
300.066208575
300.031599668
300.010635312
300.001985568
300.000217965
300.000028271
300.000004164
300.000000481
300
300
300
300
317.726808325
306.975012412
302.696219788
301.121743476
300.541526406
300.305618528
300.186863178
300.113853552
300.06467572
300.031503909
300.011337166
300.0024091
300.000258988
300.00002881
300.000003616
300.000000327
300
300
300
300
317.679039926
307.062064053
302.753882263
301.143619149
300.545233529
300.302825477
300.183270145
300.111606605
300.06414548
300.032399856
300.012783673
300.002962232
300.000318063
300.000029004
300.000003087
300.000000117
300
300
300
300
317.35156128
307.044630626
302.780504751
301.160870085
300.546653769
300.299131447
300.180701488
300.111394937
300.065936601
300.035149219
300.014849085
300.003741351
300.000406696
300.000029823
300.000002796
300
300
300
300
300
316.628646822
306.760434451
302.69553514
301.127737005
300.526988142
300.289071468
300.178634861
300.114072015
300.07059078
300.039596464
300.017737743
300.00478663
300.000534959
300.000031259
300.000002609
300
300
300
300
300
315.938836677
306.394478824
302.519035289
301.04096169
300.484501479
300.275413625
300.179988412
300.12071513
300.077887133
300.04557342
300.021401243
300.006164557
300.000715637
300.000034776
300.000002432
300
300
300
300
300
315.42825499
306.198802603
302.407860053
300.961865872
300.440192078
300.269034476
300.187785667
300.131196747
300.087426816
300.052822202
300.0258137
300.00790072
300.00096845
300.000042797
300.000002588
300
300
300
300
300
315.177393562
306.100583744
302.324492676
300.871459409
300.415821625
300.276576267
300.201400503
300.144554376
300.098628359
300.061118654
300.030892999
300.009966961
300.001296922
300.000056879
300.000003118
300
300
300
300
300
315.292176817
305.905233924
302.034105073
300.759521077
300.413005413
300.291216509
300.21789787
300.159427595
300.110727874
300.070014719
300.036450836
300.012321765
300.001697243
300.000079038
300.000004438
300.000000178
300
300
300
300
316.431358312
304.857271081
301.617958056
300.695758599
300.421438194
300.309603797
300.236026211
300.175193721
300.123377599
300.079272873
300.04225516
300.014866815
300.002177889
300.000114637
300.000007483
300.000000651
300
300
300
300
319.529492712
305.765040538
301.570753941
300.681670433
300.43867819
300.330192277
300.254870049
300.191298875
300.13623335
300.088692713
300.048220307
300.017643611
300.002775684
300.000172526
300.000013737
300.000001599
300
300
300
300
321.984594656
307.323126077
302.319416804
300.762534427
300.467306614
300.351910485
300.273340649
300.20695114
300.148793018
300.098061145
300.05441933
300.020780871
300.003574886
300.000264692
300.000025343
300.000003449
300.00000016
300
300
300
323.390401624
308.748829032
303.170487211
301.065389781
300.539679666
300.380552987
300.292134794
300.222144372
300.161038889
300.107321694
300.060782541
300.024373241
300.00472403
300.000413484
300.000045067
300.000006865
300.00000066
300
300
300
324.582208243
309.362790621
303.530172941
301.280293657
300.640947502
300.421730205
300.313522096
300.237074288
300.172511891
300.115837236
300.066830681
300.028390088
300.006393664
300.000667211
300.000076042
300.000012566
300.000001614
300
300
300
325.285252581
309.707072309
303.768967702
301.461018364
300.741439031
300.471065042
300.338676614
300.252475833
300.183254322
300.123301513
300.071872714
300.031942933
300.008368842
300.001094349
300.000120787
300.000020932
300.000003152
300.000000033
300
300
325.95628764
309.903326103
303.902894364
301.58678329
300.826626206
300.52078224
300.365606654
300.267950921
300.193022346
300.129471498
300.075761642
300.034746993
300.010092468
300.0016003
300.000185268
300.000032083
300.000005276
300.00000028
300
300
326.419675288
309.977906351
303.928417167
301.647886572
300.891178909
300.56529192
300.391220456
300.282228417
300.201174259
300.133822632
300.078167564
300.036547947
300.011367579
300.002043808
300.000264912
300.0000448
300.000007688
300.000000567
300
300
326.795459872
309.843035867
303.799160652
301.642843129
300.941269656
300.603350632
300.413222679
300.293892282
300.20681349
300.135733578
300.078749346
300.037169045
300.012065529
300.002370665
300.000344574
300.000057188
300.000009996
300.000000789
300
300
326.73540351
309.51831317
303.600951223
301.69239098
300.999826409
300.637466386
300.430640554
300.301809572
300.208870319
300.13464493
300.077320322
300.03659135
300.012186584
300.002578584
300.000415634
300.000068235
300.000011873
300.00000091
300
300
326.414129137
309.048238925
303.557490531
301.833560183
301.064046471
300.664857149
300.441687211
300.304473962
300.206000187
300.130180752
300.073942581
300.034980447
300.011862727
300.002695269
300.00047413
300.000077459
300.000013244
300.000000929
300
300
325.698669603
308.715691636
303.842230505
301.955183267
301.103635093
300.674621917
300.441753585
300.298714199
300.197023843
300.122326332
300.068965155
300.032666394
300.011325089
300.002763596
300.000519549
300.000082581
300.000013872
300.000000833
300
300
325.433025723
309.545612582
304.156653251
302.040932432
301.111469633
300.665670743
300.429147014
300.282826576
300.182818571
300.112320718
300.063349651
300.030278973
300.010862428
300.002839687
300.000557353
300.000085094
300.000013626
300.000000626
300
300
325.667649859
310.109604477
304.33397597
302.060508976
301.09046503
300.639813689
300.401551172
300.25964158
300.166040714
300.102233541
300.058371478
300.028520004
300.010743064
300.002993378
300.000603444
300.000088599
300.000012638
300.000000319
300
300
326.243743443
310.347490425
304.344150656
302.023086
301.04154978
300.590392839
300.364435338
300.233793455
300.150304009
300.094383285
300.055251726
300.027924137
300.011190528
300.003325453
300.00068909
300.000097327
300.000010802
300.000000042
300
300
326.816930198
310.505512192
304.278631149
301.914574916
300.941539241
300.525638858
300.32368474
300.209943246
300.138866172
300.090420244
300.054968528
300.02901957
300.01241169
300.003901464
300.000826731
300.000110653
300.000008149
300
300
300
325.619568339
310.321309738
303.951221504
301.652700133
300.794273555
300.447687623
300.283989863
300.192933578
300.134119359
300.09161039
300.058063951
300.03209545
300.014389727
300.004715712
300.00101701
300.000130815
300.000005258
300
300
300
320.395875625
308.705797116
303.301758092
301.334171106
300.640012893
300.376909041
300.257225711
300.186496587
300.13731514
300.097989361
300.064647161
300.037205406
300.017370227
300.005905958
300.001298888
300.00016673
300.000005596
300.000000013
300
300
315.641603565
306.996469246
302.69861229
301.055000197
300.515818777
300.336379749
300.250310928
300.193697379
300.149185997
300.110480844
300.075469183
300.045167559
300.021985574
300.007811496
300.001781714
300.000238233
300.000011098
300.000000735
300.000000223
300
313.883800263
306.44615303
302.419453059
300.827471403
300.462832029
300.340844397
300.269778756
300.216576362
300.171614518
300.130457508
300.09188884
300.057078495
300.029043836
300.010832387
300.002589022
300.000364857
300.000021737
300.00000126
300.00000096
300.000000114
317.167210037
308.509481733
303.09231694
301.033203206
300.549577467
300.397464567
300.3154569
300.255314426
300.204463468
300.157934203
300.113985375
300.073223627
300.038813123
300.015132824
300.003777765
300.000561463
300.000039226
300.000001388
300.000001323
300.000000439
330.179481758
311.857652336
304.502800942
301.593189299
300.747144181
300.500495859
300.384243797
300.305993316
300.243871823
300.189368311
300.139030708
300.09193124
300.050527258
300.020497098
300.005328265
300.000835224
300.000066521
300.00000136
300.000001126
300.000000617
341.278177056
314.05439895
305.219634357
301.957699886
300.920700884
300.596717852
300.453827174
300.357717101
300.282008092
300.218705549
300.162228981
300.109778078
300.062264835
300.026181953
300.007096142
300.001177632
300.000106631
300.000001777
300.000000678
300.00000052
344.622063498
314.865081328
305.364417745
302.042313559
300.979569661
300.634753491
300.486363232
300.389762238
300.309461131
300.24072232
300.17990093
300.123786445
300.07201692
300.031307307
300.008922701
300.001597412
300.000169132
300.000004386
300.000000533
300.000000245
344.913997863
314.443790111
305.083510099
301.943497021
300.954449927
300.631378985
300.491117836
300.400404217
300.322340442
300.253179636
300.190706237
300.132755596
300.07868266
300.035359258
300.010761325
300.002150032
300.000277635
300.000016115
300.000001326
300.000000036
343.445002791
313.480736365
304.585342325
301.744133601
300.888305809
300.612732198
300.487158597
300.402274349
300.326623044
300.257937018
300.195081786
300.136465075
300.081701102
300.037889721
300.012393592
300.002775958
300.000425072
300.000037935
300.000003298
300.000000006
341.719674672
312.535065932
304.078234141
301.540847676
300.826451434
300.595770733
300.485183584
300.402133262
300.327794038
300.259139106
300.19563303
300.136034066
300.081180263
300.038326517
300.013290345
300.003304984
300.000586057
300.000067008
300.000006114
300.00000025
340.935947122
311.963879371
303.759736195
301.423819218
300.800682389
300.599547548
300.487498883
300.403365473
300.328748479
300.2592375
300.194145114
300.132826468
300.078467491
300.037434847
300.013565561
300.00364024
300.000713776
300.000094405
300.000009112
300.000000663
339.408714811
311.960692735
303.954474158
301.560538808
300.887067683
300.635248869
300.501541106
300.408999918
300.331168679
300.25927536
300.191096752
300.128042567
300.07491475
300.036123826
300.013586996
300.00385451
300.000803835
300.000114805
300.000011802
300.0000011
331.855062762
311.32133046
304.22904567
301.853653052
301.059926588
300.713557615
300.533209474
300.421179497
300.335443756
300.258696863
300.186437946
300.122676425
300.071453651
300.034971074
300.013607408
300.004013579
300.000865065
300.0001276
300.000014056
300.000001469
324.431265823
310.2952558
304.451661838
302.201260198
301.26583935
300.813828784
300.576456482
300.437846242
300.340040972
300.256053316
300.180381946
300.117258125
300.068486321
300.034177398
300.013705504
300.004145549
300.000903161
300.000134156
300.000015625
300.000001744
321.026222779
309.632216034
304.581352678
302.412115638
301.407437602
300.890953932
300.61231969
300.451298116
300.341233513
300.25014227
300.173053228
300.112002816
300.066084919
300.033725755
300.013873986
300.004254221
300.000923229
300.00013553
300.000016583
300.000001902
319.855231992
309.056292669
304.481934265
302.446847504
301.44986153
300.91882082
300.625578725
300.453553653
300.335100943
300.240157116
300.164438431
300.106927766
300.064162838
300.033544873
300.014099174
300.004353628
300.00093095
300.000133748
300.000016937
300.000001949
319.538564667
308.395244792
304.123971592
302.283114153
301.374999872
300.884146837
300.606953303
300.4386145
300.318643842
300.225462343
300.154583156
300.102055871
300.062691113
300.033633283
300.014441342
300.004493187
300.000946466
300.000133174
300.000016252
300.000001774
319.305325976
307.468203078
303.514931733
301.955539185
301.205071912
300.797191889
300.559516634
300.40596469
300.292649335
300.207356922
300.144581294
300.09806684
300.062066911
300.034316638
300.015174815
300.004826604
300.001022331
300.000138434
300.000013992
300.000001371
318.966433711
306.838739589
302.925250401
301.603729646
301.011451018
300.692405496
300.498034288
300.36282798
300.263623158
300.190567623
300.137336073
300.09663613
300.063450533
300.036559141
300.016954749
300.005627268
300.001198813
300.000151746
300.00001072
300.000000874
318.513554205
306.933155139
302.613794037
301.350170835
300.855462824
300.60050866
300.438303187
300.325023089
300.241983945
300.181637549
300.136615192
300.100259991
300.068688809
300.041500652
300.020282581
300.007085507
300.001551179
300.000193926
300.000008875
300.000000563
317.139644759
307.139646754
302.631186357
301.255817067
300.772480461
300.54467735
300.404184425
300.306334901
300.235912276
300.184784594
300.145202321
300.110846498
300.079051974
300.05011165
300.025986587
300.009721323
300.002290157
300.000319559
300.000021022
300.000000601
315.509220768
307.310944685
303.027719809
301.429651979
300.822865181
300.552776515
300.405612193
300.313525275
300.249943098
300.203452846
300.165449347
300.130222007
300.096105395
300.063835635
300.035332284
300.014421682
300.003827216
300.000649644
300.000071887
300.000004198
316.060964146
308.843433499
304.544446513
302.210473709
301.117432768
300.654040066
300.453251505
300.354934711
300.290506532
300.241712368
300.19976509
300.159766174
300.120717183
300.083393469
300.049137904
300.021982295
300.006675569
300.001391295
300.000220546
300.000027891
324.155403074
313.615609741
306.831167702
303.10820247
301.463632006
300.816052359
300.557883852
300.440233477
300.362100006
300.300414981
300.247433402
300.198254551
300.15145917
300.107518084
300.066787155
300.032492903
300.011200611
300.002787146
300.000565809
300.000104293
343.660477084
317.322845358
307.702730742
303.430568034
301.668556665
300.974740714
300.687569248
300.546040274
300.448974318
300.369484059
300.301327602
300.240162663
300.184081358
300.132857512
300.085884372
300.044892489
300.017337759
300.005042603
300.00124441
300.000289426
352.760296025
318.858997312
307.834592637
303.448620357
301.731459409
301.05320933
300.76138631
300.609879295
300.50525074
300.418777551
300.343413003
300.27505659
300.212425843
300.155462196
300.103537467
300.057417988
300.024540972
300.008182071
300.002357612
300.00065107
354.685768533
318.956722628
307.583921357
303.320724062
301.704460276
301.064837558
300.783709632
300.633665466
300.529577794
300.443466666
300.367755577
300.297757708
300.232644605
300.172717341
300.117495997
300.067802148
300.031245282
300.011652694
300.003849001
300.001232637
354.543247046
318.246063617
307.045033208
303.075352023
301.61213133
301.033792973
300.775922927
300.634892944
300.535780479
300.45351212
300.380280431
300.311100636
300.245679052
300.184499078
300.12695566
300.074931051
300.03639713
300.01489399
300.005580929
300.002049206
353.783430416
317.103063511
306.345781593
302.750211921
301.473449438
300.976621063
300.752075068
300.624823469
300.532847123
300.455844269
300.385224691
300.317751673
300.25314276
300.191537787
300.132099675
300.078947886
300.039994941
300.017833534
300.007537473
300.003125012
352.112289349
315.627003405
305.570193321
302.378504299
301.305936176
300.904067097
300.71951483
300.60888796
300.525326328
300.453002597
300.385031089
300.319555088
300.256233534
300.194142671
300.133402832
300.080452055
300.04246298
300.020642777
300.009762967
300.00447113
343.616615893
313.241712273
304.739687847
302.030442596
301.145030512
300.834790734
300.687286863
300.591944015
300.515422102
300.44620152
300.380759397
300.317432267
300.255236835
300.192310952
300.131528534
300.080190735
300.044315704
300.023512582
300.01227577
300.006042539
329.231575673
311.343232891
304.444927532
301.939357932
301.061743934
300.79131469
300.662786412
300.575177652
300.502073411
300.435818657
300.372965224
300.31170569
300.249788546
300.18660776
300.127323232
300.078942006
300.045998968
300.026546893
300.015010996
300.007727296
321.270560896
309.45432317
304.130249467
301.883242351
301.050848537
300.77252648
300.641838973
300.556142154
300.486179585
300.422851482
300.362464889
300.302395102
300.240288098
300.178327771
300.122025923
300.077580367
300.047891003
300.029740254
300.017839493
300.009422425
317.775043089
307.935075031
303.659838499
301.781077
301.041298991
300.752209535
300.620441006
300.537309542
300.470081838
300.40911192
300.350157276
300.290108851
300.228893776
300.169616711
300.117255333
300.077024016
300.050273963
300.033058286
300.020736503
300.011301643
316.422167101
307.085628552
303.301585814
301.693680081
301.021480967
300.735527347
300.60467416
300.522945812
300.456781217
300.39646676
300.337503157
300.278038983
300.218934669
300.16294283
300.114548294
300.077967265
300.053390654
300.037001556
300.024219997
300.013369409
315.846163116
306.868955951
303.215857584
301.681376697
301.02889494
300.740636428
300.603535931
300.5181352
300.449660408
300.387995889
300.328745173
300.270323281
300.213264431
300.160032631
300.114784875
300.081431875
300.058906029
300.042374603
300.027966663
300.015447051
315.781908672
306.998270573
303.341916288
301.762443883
301.102540629
300.797401182
300.636771802
300.53426389
300.455749589
300.388833895
300.327693024
300.269484301
300.213503262
300.162457586
300.12040107
300.089435216
300.067112305
300.048495894
300.031871383
300.017666685
316.530412193
307.766735877
303.76831073
302.028024355
301.339349252
300.980265119
300.757208919
300.603893101
300.491991385
300.406385743
300.336973439
300.276357061
300.220226782
300.171428053
300.131927655
300.101320395
300.076451135
300.055019976
300.036116543
300.020245169
321.237559063
310.26554842
305.037707778
302.786157263
301.818746311
301.300720334
300.967437515
300.733093502
300.564155623
300.443294132
300.356140337
300.289186441
300.232314209
300.185236357
300.145997216
300.113192951
300.085487638
300.061641863
300.04075419
300.023386459
329.22538059
312.784174504
306.299815451
303.485348904
302.197947227
301.509822094
301.084140675
300.800782855
300.604486625
300.467178195
300.370846921
300.300268123
300.243711959
300.196740834
300.156823793
300.122540834
300.093288061
300.068033905
300.045810188
300.027190556
333.673883947
314.112329555
306.792921402
303.690575688
302.26876099
301.519253385
301.070335316
300.782542491
300.590932731
300.460390808
300.368942504
300.300978589
300.246598981
300.201650429
300.162794154
300.129014525
300.099662774
300.073899289
300.050868391
300.031366375
335.166630908
313.608975158
305.950984258
303.100943521
301.9082015
301.306578715
300.94600275
300.708114483
300.546913703
300.435273317
300.355015164
300.293192487
300.242970439
300.20135377
300.165193507
300.133090808
300.104620453
300.079025203
300.055624183
300.035641706
331.063942055
310.875986002
304.355287774
302.170407748
301.368597111
301.003896468
300.77751538
300.613078315
300.492258082
300.403514489
300.336432673
300.282541379
300.237339882
300.199540978
300.166039362
300.135913801
300.108676438
300.083536483
300.060074927
300.039970096
324.62182257
308.610427587
303.202827378
301.506342845
300.987695794
300.779063318
300.644079593
300.533870735
300.445102627
300.375425852
300.319924716
300.27393803
300.233250715
300.198150426
300.166802845
300.138362587
300.112229435
300.087584513
300.064367113
300.04439636
319.870609194
307.033973798
302.461621169
301.119065809
300.784737335
300.653990279
300.562881885
300.482636198
300.413605967
300.356546128
300.309119906
300.268492724
300.231541499
300.198008514
300.168150881
300.140874374
300.115493831
300.091361104
300.068723721
300.048967459
316.888570987
306.185606612
302.083704352
300.947161804
300.70437515
300.602151053
300.525713999
300.458449075
300.398914409
300.347845752
300.304396819
300.266393775
300.23181389
300.199613792
300.170463332
300.143789386
300.118829863
300.095313908
300.073330784
300.053599085
315.45325766
305.968981614
302.006113097
300.916452689
300.697404562
300.598904769
300.522303789
300.456521395
300.399039905
300.349171546
300.306026812
300.268264306
300.234181246
300.202914234
300.174266615
300.147787115
300.122940787
300.09979241
300.078034356
300.057897304
314.999471249
306.227854726
302.132869922
301.028267476
300.763711794
300.640484009
300.550402133
300.476125279
300.413522478
300.360342497
300.314796072
300.275175739
300.240021697
300.208381307
300.179609119
300.153055995
300.127974825
300.104417342
300.082196976
300.061237059
317.954240397
307.81781369
303.146090277
301.610950773
301.030756774
300.771271042
300.623374325
300.521898017
300.44444892
300.382246513
300.330877733
300.287376976
300.249601482
300.216156378
300.18601842
300.158382637
300.132364735
300.107978945
300.084747079
300.062812096
330.673197377
311.362045959
304.86865725
302.596639959
301.580641044
301.058644136
300.77208568
300.602751124
300.492343797
300.41294184
300.351816034
300.302230662
300.260309306
300.223825477
300.191308165
300.161796233
300.134500432
300.108789147
300.084379532
300.061732064
343.740191946
314.554468476
306.072144627
303.110216607
301.855639566
301.23685958
300.892001704
300.680529387
300.541353975
300.443705741
300.371378674
300.314598794
300.267621278
300.227571655
300.19250583
300.161046935
300.132147115
300.105186529
300.080093996
300.057550385
348.121991726
315.331195673
305.970513265
302.887986883
301.71468949
301.174826423
300.87675454
300.686990457
300.554003687
300.455496181
300.379403573
300.318065737
300.267259376
300.224346103
300.187228221
300.154279696
300.124361426
300.096923196
300.072148022
300.050874385
345.469749499
313.754212549
304.951745917
302.295267041
301.400013115
301.020688374
300.807024439
300.657855361
300.541088438
300.449192982
300.374044519
300.311010168
300.258442449
300.214161392
300.176100396
300.142601257
300.112567313
300.085622891
300.062235443
300.042985757
340.994018048
311.624329354
303.849490964
301.756283036
301.169432791
300.905569406
300.744461198
300.622234741
300.521397057
300.435188251
300.36081266
300.29775692
300.244962853
300.200514652
300.16243088
300.129110066
300.099584709
300.073708075
300.051972504
300.035600968
338.747701136
310.600622537
303.281712481
301.527435822
301.031601863
300.819492165
300.69210372
300.591972883
300.502770419
300.420579698
300.347235331
300.284444987
300.231740621
300.187341792
300.149334215
300.116213684
300.087154738
300.062265984
300.043150596
300.03015823
338.381696444
310.549338135
303.15622824
301.459977639
300.977221556
300.776472803
300.663464965
300.574320603
300.490779275
300.410327164
300.336887612
300.273663825
300.220586757
300.175858743
300.137561264
300.104280375
300.075665974
300.053021392
300.037409341
300.027305405
338.154900736
310.669214853
303.264950783
301.687646234
301.086357697
300.807304918
300.665870706
300.570916844
300.486911468
300.405530682
300.330161933
300.26515276
300.210907118
300.165439057
300.126792125
300.094005798
300.067356325
300.047796007
300.035337006
300.028393928
337.154581421
311.856551901
304.440704311
302.235092785
301.338714198
300.912240699
300.702526057
300.582234859
300.489929675
300.404229593
300.324762888
300.256999174
300.201729498
300.156388053
300.118775838
300.087978977
300.063939811
300.046960298
300.037814878
300.033132232
331.80279192
311.897387325
305.344897977
302.776784423
301.617695583
301.045694315
300.758944117
300.603099239
300.495743039
300.402018537
300.317988253
300.248831421
300.194243363
300.150615638
300.115329244
300.087180977
300.065289204
300.05108309
300.044089177
300.039315953
325.217217448
311.787490065
305.787263878
303.107702006
301.805444574
301.143001101
300.803934421
300.619689849
300.497110089
300.395740031
300.309611201
300.241634323
300.189566064
300.148908826
300.116673583
300.091130097
300.071328853
300.059914826
300.052258587
300.046379781
320.58399638
310.774245363
305.738775496
303.194423797
301.870898581
301.179981679