/*--------------------------------*- C++ -*----------------------------------*\
| =========                 |                                                 |
| \\      /  F ield         | OpenFOAM: The Open Source CFD Toolbox           |
|  \\    /   O peration     | Version:  2312                                  |
|   \\  /    A nd           | Website:  www.openfoam.com                      |
|    \\/     M anipulation  |                                                 |
\*---------------------------------------------------------------------------*/
FoamFile
{
    version     2.0;
    format      ascii;
    arch        "LSB;label=32;scalar=64";
    class       volScalarField;
    location    "0.46/water";
    object      Ct2;
}
// * * * * * * * * * * * * * * * * * * * * * * * * * * * * * * * * * * * * * //

dimensions      [0 0 0 0 0 0 0];

internalField   nonuniform List<scalar> 
750
(
5.40519203496
1.00000000011
1
1.41281732505
5.47596323665
5.48007230756
1.43085188268
1.00001768962
1.00041600454
1
1
1
1
1
1
1
1
1
1
1
1
1
1
1
1
1
1
1
1
1
1
1
1
1
1
1
1
1
1
1
1
1
1
1
1
1
1
1
1
1
1
1
1
1
1
1
1
1
1
1
1
1
1
1
1
1
1
1
1
1
1
1
1
1
1
1
1
1
1
1
1
1
1
1
1
1
1
1
1
1
1
1
1
1
1
1
1
1
1
1
1
1
1
1
1
1
1
1
1
1
1
1
1
1
1
1
1
1
1
1
1
1
1
1
1
1
1
1
1
1
1
1
1
1.00000000001
1
1
1
1
1
1
1
1
1
1
1
1
1
1
1
1
1
1
1
1.00000000001
1
1
1
1
1
1
1
1
1
1
1
1
1
1
1
1
1
1
1
1
1
1
1
1
1
1
1
1
1
1
1
1
1
1
1
1
1
1
1
1
1
1
1
1
1
1
1
1
1
1
1
1
1
1
1
1
1.00000000377
1
1
1
1
1
1
1
1
1
1
1
1
1
1
1
1
1
1
1.30954747874
1.44070525757
1
1
1
1
1
1
1
1
1
1
1
1
1
1
1
1
1
1.00373245428
1.40462420399
2.18795536017
1.45111753232
1
1
1
1
1
1
1
1
1
1
1
1
1
1
1
1
1.00055349509
1.40457239315
1.8947637845
2.1279601837
1.01640173863
1
1
1
1
1
1
1
1
1
1
1
1
1
1
1
1.00000139321
1.37279224185
3.17326617699
1.75792548653
1
1
1
1.01340603981
1.00193993832
1
1
1
1
1
1
1
1
1
1
1
1.00000000023
1.3812791727
3.4605268437
1.00044756487
1
1
1.00000297752
1.58051768403
2.33179053873
1.42330834173
1.00000079026
1
1
1
1
1
1
1
1
1
1
1.40068060991
1.40152406996
1
1
1.00060410307
1.79841674277
6.43700360301
7.20214257349
6.07661351866
2.90093786858
1.48385694977
1.00000000122
1
1
1
1
1
1
1
1.00000024139
1.46897003595
1
1
1
2.03473399914
7.22305142535
7.54336164832
7.54350771173
5.2033110861
1.47360594961
1
1
1
1
1
1
1
1
1
1.25178903748
1.57599080699
1
1
1
1
1.00000103715
1.96901724376
4.13739312482
2.73948320123
1.26309043011
1
1
1
1
1
1
1
1
1.01510941666
1.57595952246
1.57623402032
1
1
1
1
1
1
1
1.00155644077
1.28568024489
1.00506077849
1
1
1
1
1
1
1
1.43684963888
1.57601988106
1.57632386735
1
1
1
1
1
1
1
1
1
1
1
1
1
1
1
1
1
1.44286369429
1.57589007779
1.57631167723
1
1
1
1
1
1
1
1
1
1
1
1
1
1
1
1
1
1.4001858152
1.57608272206
1.57618822573
1
1
1
1
1
1
1
1
1
1
1
1
1
1
1
1
1
1.27735885135
1.5765103393
1.57671651575
1
1
1
1
1
1
1
1
1
1
1
1
1
1
1
1
1
1.41736458695
1.57681157869
1.57682241861
1
1
1.12900027356
1.0132191911
1
1
1
1
1
1
1
1
1
1
1
1
1
1.46586838092
1.57676451694
1.57683121243
1
1
1.47562400397
1.43840432453
1
1
1
1
1
1
1
1
1
1
1
1
1
1.4450353217
1.57677917025
1.57676435543
1
1.06319802345
1.52013546788
2.32077238573
1.41593478379
1
1
1
1
1
1
1
1
1
1
1
1
1.44115262403
1.57669631427
1.55131113688
1
1.39971115543
2.20314615049
4.58451756236
6.50070959361
1.42080064673
1
1
1
1
1
1
1
1
1
1
1
1.39349341001
1.57667454997
1.52166958462
1
1.61259291156
6.38023023085
7.90476456451
8.01412686488
7.660060698
1.0035848353
1
1
1
1
1
1
1
1
1
1
1
1.57661280295
1.52860294493
1
3.17666364272
8.01426494815
8.01402235476
8.01397253014
8.01418461442
1
1
1
1
1
1
1
1
1
1
1
1
1.23269587127
1.52857249665
1.38551944523
7.16706101729
8.01409685988
8.00862912497
7.92954281232
7.46571598079
1
1
1
1
1
1
1
1
1
1
1
1
1
1.52805386451
2.98256672947
7.60423722616
7.64948356145
7.20994430364
6.83298343207
1.67516604741
1
1
1
1
1
1
1
1
1
1
1
1
1
1.39749551762
7.2079782619
7.3520042579
6.25505320885
4.99809903585
1.42897433693
1
1
1
1
1
1
1
1
1
1
1
1
1
1.03644167173
1.85144479861
7.03430033078
4.54413375036
2.12319985156
1.00110275579
1
1
1
1
1
1
1
1
1
1
1
1
1.02302047363
1.81768988958
1.85143933393
1.85182198818
2.14005179331
1.1378964442
1
1
1
1
1
1
1
1
1
1
1
1
1
1
1.85228830016
1.85146228184
1.85163023962
1.85131163645
1
1
1
1
1
1
1
1
1
1
1
1
1
1
1
1
1.00082137933
1.55613332695
1.85072493604
1.85108997518
1
1
1
1
1
1
1
1
1
1
1
1
1
1
1
1
1
1
1
1.0000523421
)
;

boundaryField
{
    emptyPatch
    {
        type            empty;
    }
    minY
    {
        type            calculated;
        value           nonuniform List<scalar> 0();
    }
    maxY
    {
        type            calculated;
        value           uniform 1;
    }
    maxX
    {
        type            calculated;
        value           nonuniform List<scalar> 
37
(
1
1
1
1
1
1
1
1
1
1
1.30996102682
1.4050089565
1.40494853591
1.37321057451
1.381764974
1.40127004484
1.4696323518
1.57674597771
1.57682500733
1.57681263282
1.57688140436
1.5768495585
1.57690173599
1.57684032013
1.57684061907
1.57677560385
1.55132648502
1.52168114441
1.52861129315
1.52858378748
1.52806503755
1.397588169
1.8516244157
1.85197639479
1.85194869865
1.85197667474
1.00005244989
)
;
    }
    water_to_heater
    {
        type            calculated;
        value           nonuniform List<scalar> 0();
    }
    procBoundary2to1
    {
        type            processor;
        value           uniform 1;
    }
    procBoundary2to3
    {
        type            processor;
        value           nonuniform List<scalar> 
39
(
1
1
1
1
1
1
1
1
1.39304289492
5.40609005504
5.40294374011
5.40294374011
5.40413868145
1
1
1.0000535832
5.26040802188
5.47920914248
2.27780514385
1.00000000286
1.00041616101
1.00041625252
1
1
1
1
1
1
1
1
1
1
1
1.00000007501
2.43522798808
7.10221674559
5.89170901316
1
1
)
;
    }
}


// ************************************************************************* //
