/*--------------------------------*- C++ -*----------------------------------*\
| =========                 |                                                 |
| \\      /  F ield         | OpenFOAM: The Open Source CFD Toolbox           |
|  \\    /   O peration     | Version:  2312                                  |
|   \\  /    A nd           | Website:  www.openfoam.com                      |
|    \\/     M anipulation  |                                                 |
\*---------------------------------------------------------------------------*/
FoamFile
{
    version     2.0;
    format      ascii;
    arch        "LSB;label=32;scalar=64";
    class       volScalarField;
    location    "0.745/water";
    object      d.gas;
}
// * * * * * * * * * * * * * * * * * * * * * * * * * * * * * * * * * * * * * //

dimensions      [0 1 0 0 0 0 0];

internalField   nonuniform List<scalar> 
6000
(
0.00496952706026
0.00496958868331
0.00496960467866
0.00496961699151
0.00496962750724
0.00496963694037
0.00496964561978
0.00496965353734
0.00496966062297
0.00496966690124
0.00496967240073
0.0049696771705
0.00496968128463
0.00496968481312
0.00496968781455
0.00496969033629
0.00496969241726
0.00496969408703
0.00496969536714
0.00496969627197
0.00496983452446
0.00496986483686
0.0049698622493
0.00496986207122
0.00496986668551
0.0049698709545
0.00496987507805
0.00496987913317
0.0049698832277
0.00496988724681
0.00496989096803
0.00496989430874
0.0049698973039
0.00496989999116
0.00496990238351
0.00496990447727
0.00496990626338
0.00496990773133
0.00496990887087
0.00496990967233
0.00497010883341
0.00497014022088
0.00497012806683
0.00497011885879
0.00497011668519
0.00497011512744
0.00497011413852
0.00497011388067
0.00497011427593
0.00497011519855
0.00497011643674
0.00497011774504
0.00497011899774
0.00497012017656
0.00497012128523
0.00497012231355
0.00497012323783
0.00497012402621
0.00497012464465
0.00497012506215
0.00497034524974
0.00497036678359
0.0049703536127
0.00497034756747
0.00497034775788
0.00497034716285
0.00497034583684
0.00497034449839
0.00497034345429
0.0049703427751
0.00497034244033
0.00497034232598
0.00497034229519
0.00497034228459
0.00497034228734
0.00497034230615
0.00497034233497
0.0049703423557
0.00497034234252
0.00497034226881
0.00497058189289
0.00497059611718
0.00497057819854
0.00497057160322
0.00497057226711
0.00497057250073
0.00497057153858
0.00497057006108
0.00497056861168
0.00497056734876
0.0049705663017
0.0049705654394
0.00497056468181
0.00497056396594
0.0049705632769
0.00497056262335
0.00497056201567
0.00497056145565
0.00497056093659
0.00497056044846
0.00497080838453
0.00497082282944
0.00497080419079
0.00497079621852
0.00497079536523
0.00497079536549
0.00497079460756
0.00497079306133
0.00497079128049
0.00497078960933
0.00497078811207
0.00497078678499
0.00497078558154
0.0049707844462
0.00497078335446
0.00497078230941
0.00497078132478
0.00497078041196
0.00497077957666
0.00497077882159
0.00497103821538
0.00497105251788
0.00497103317072
0.00497102364831
0.004971019981
0.00497101788047
0.00497101617611
0.00497101422776
0.00497101202609
0.00497100991876
0.00497100803049
0.00497100635159
0.00497100484555
0.00497100345866
0.0049710021534
0.0049710009196
0.00497099976424
0.00497099869788
0.00497099772923
0.00497099686552
0.00497123833862
0.004971258413
0.00497124786386
0.00497124171166
0.00497123894579
0.00497123644385
0.00497123419905
0.00497123211566
0.00497122987275
0.00497122760766
0.00497122554969
0.00497122373182
0.00497122213134
0.00497122069761
0.00497121938401
0.00497121816765
0.00497121704573
0.00497121602293
0.00497121510476
0.00497121429804
0.00497146736668
0.00497148593785
0.0049714690847
0.0049714608124
0.00497145675348
0.00497145287998
0.00497144961002
0.00497144700134
0.00497144466813
0.00497144235579
0.00497144026386
0.0049714385086
0.00497143706412
0.00497143585291
0.00497143480105
0.00497143386438
0.00497143302452
0.00497143227533
0.00497143161527
0.00497143104677
0.00497165801404
0.00497167933733
0.00497166528696
0.0049716602781
0.00497165939179
0.00497165816076
0.00497165662768
0.0049716551999
0.00497165384057
0.00497165234771
0.00497165092497
0.00497164984576
0.00497164912803
0.00497164865119
0.00497164830354
0.00497164802666
0.00497164779444
0.00497164759453
0.00497164742206
0.00497164727442
0.00497186031969
0.00497188571252
0.00497186858781
0.00497186189843
0.00497186096479
0.00497186065429
0.0049718603161
0.00497185990379
0.00497185933769
0.0049718586351
0.00497185814757
0.00497185825251
0.00497185885739
0.00497185967951
0.00497186051725
0.00497186129158
0.00497186197889
0.00497186256917
0.00497186305926
0.00497186345089
0.00497203155378
0.00497206463309
0.00497205572453
0.00497205313051
0.00497205629593
0.00497205967379
0.00497206191716
0.00497206289691
0.00497206312182
0.00497206323539
0.004972063919
0.00497206561332
0.00497206807615
0.00497207070919
0.0049720731045
0.00497207517024
0.00497207691233
0.00497207834551
0.00497207948937
0.00497208036731
0.00497222680833
0.00497226954186
0.00497226456883
0.00497226294035
0.0049722671027
0.00497227101349
0.00497227324101
0.00497227366666
0.00497227327266
0.00497227320209
0.00497227436704
0.00497227712655
0.00497228111955
0.00497228538475
0.00497228910757
0.00497229216878
0.00497229462686
0.00497229654471
0.00497229797985
0.00497229898902
0.00497245346396
0.00497249695025
0.0049724906016
0.00497249054847
0.00497249566629
0.0049724992226
0.00497250016503
0.00497249915801
0.00497249768788
0.00497249682558
0.00497249718061
0.00497249946742
0.00497250359961
0.00497250826464
0.00497251214902
0.00497251508757
0.00497251723599
0.00497251871801
0.00497251962988
0.0049725200592
0.00497269995852
0.00497274694623
0.00497274026997
0.00497274042024
0.00497274539358
0.0049727480293
0.00497274737184
0.00497274510212
0.00497274276007
0.00497274062109
0.00497273876795
0.00497273834874
0.00497274007912
0.00497274276082
0.00497274468861
0.00497274557942
0.00497274574513
0.00497274538754
0.00497274461628
0.00497274351908
0.00497298330702
0.00497303276756
0.00497302342229
0.00497302160488
0.00497302374684
0.00497302293212
0.00497301940409
0.00497301523316
0.00497301110178
0.00497300625135
0.00497300053925
0.00497299520133
0.00497299126872
0.00497298854966
0.00497298573794
0.00497298232511
0.0049729786615
0.004972975015
0.00497297145308
0.00497296799646
0.00497330670981
0.00497334900177
0.00497333032232
0.00497332091171
0.0049733157053
0.00497330893113
0.00497330112939
0.00497329342369
0.0049732855305
0.00497327672937
0.0049732669788
0.00497325725752
0.00497324755413
0.00497323765438
0.00497322827496
0.00497321932477
0.00497321097935
0.00497320345803
0.00497319674787
0.00497319074572
0.00497357247149
0.0049735981035
0.00497358135806
0.00497357132286
0.00497356434889
0.00497355615326
0.00497354679505
0.00497353693045
0.00497352673902
0.00497351643181
0.00497350643818
0.00497349672838
0.00497348661268
0.00497347397255
0.00497346010529
0.00497344706117
0.00497343534435
0.00497342507346
0.0049734161784
0.00497340847262
0.00497377713316
0.00497378833865
0.00497376698676
0.0049737577246
0.0049737526733
0.00497374663638
0.00497373902377
0.00497373074429
0.00497372283031
0.00497371570023
0.00497370872563
0.00497370139596
0.0049736937564
0.00497368426619
0.00497367146437
0.00497365813658
0.00497364608505
0.00497363560338
0.00497362657885
0.00497361884471
0.00497391754598
0.00497392783908
0.00497390956261
0.00497390524263
0.00497390499556
0.00497390358458
0.00497390051653
0.00497389657817
0.00497389234914
0.00497388864552
0.00497388538315
0.00497388047159
0.00497387458072
0.00497386869745
0.00497386086307
0.00497385131417
0.00497384226028
0.00497383436072
0.0049738275055
0.00497382161162
0.00497408364922
0.00497409389778
0.00497407069876
0.00497406383633
0.00497406233171
0.00497406070884
0.00497405807926
0.00497405472099
0.00497405201115
0.00497405189192
0.00497405154917
0.00497404919838
0.00497404520735
0.0049740404771
0.00497403647929
0.00497403194816
0.0049740278117
0.00497402436216
0.00497402133384
0.00497401868189
0.00497421076804
0.00497422873426
0.00497421433781
0.00497421043355
0.00497421109986
0.00497421137618
0.00497421015993
0.0049742088841
0.00497421133429
0.00497421647957
0.00497421755161
0.00497421754107
0.00497421460551
0.00497421042998
0.00497420834072
0.00497420798992
0.00497420894541
0.00497421059343
0.00497421207645
0.0049742133035
0.00497436625428
0.00497439135776
0.00497437813817
0.00497437209617
0.0049743709627
0.00497436996238
0.00497436888576
0.00497437124071
0.00497437989754
0.00497438346179
0.00497438642015
0.00497438872191
0.00497438804885
0.00497438512537
0.00497438398954
0.0049743865977
0.00497439203254
0.00497439842088
0.00497440416986
0.00497440912487
0.00497451632393
0.00497454466233
0.00497453085145
0.00497452740838
0.0049745289946
0.00497453085185
0.0049745343102
0.00497454467647
0.00497455430596
0.00497456138979
0.00497456432182
0.00497456832538
0.00497457161314
0.00497457028796
0.00497456952647
0.00497457386646
0.00497458268376
0.00497459268882
0.00497460167383
0.00497460949312
0.00497470908907
0.00497473985927
0.00497471745504
0.00497471111588
0.00497471217205
0.00497471521261
0.00497472304023
0.00497473626165
0.00497474775369
0.00497475133722
0.00497475825806
0.00497476595214
0.00497477199565
0.00497477366903
0.00497477119582
0.00497477529557
0.00497478536507
0.0049747970202
0.00497480757553
0.00497481685051
0.00497489240498
0.00497492754345
0.00497490675153
0.00497490272287
0.00497490743805
0.00497491531834
0.00497492932752
0.00497494625869
0.00497495263197
0.00497496267971
0.00497497134998
0.00497498416197
0.00497499650145
0.00497499195831
0.00497498864774
0.00497499176647
0.00497500079753
0.00497501213658
0.00497502271997
0.00497503207464
0.00497509058039
0.00497513491
0.00497511579924
0.00497511299073
0.0049751206745
0.00497513265392
0.00497514989787
0.00497516206035
0.00497517552337
0.0049751850647
0.0049751983752
0.00497521967445
0.0049752207397
0.00497521818351
0.00497521558753
0.00497521823118
0.00497522570837
0.00497523610955
0.00497524612603
0.00497525477013
0.00497529702099
0.00497535030347
0.00497534039349
0.0049753407086
0.00497535052663
0.00497536374969
0.00497537928644
0.00497539696599
0.00497540739157
0.00497541976596
0.00497544731335
0.0049754551671
0.00497545438975
0.00497545442327
0.00497545674528
0.00497545706893
0.00497546101916
0.00497546911205
0.00497547774438
0.00497548485543
0.00497552922009
0.00497559058784
0.00497558324001
0.00497558667275
0.00497559784514
0.00497561174821
0.00497563086131
0.00497564779623
0.00497566368229
0.004975692924
0.00497570523108
0.0049757027357
0.00497570508675
0.00497570947826
0.00497570842396
0.00497570604759
0.00497570702059
0.0049757118957
0.0049757180465
0.0049757225141
0.00497582098064
0.00497589444326
0.0049758855339
0.00497588634516
0.00497589574932
0.0049759107327
0.00497593122061
0.00497595226647
0.004975971918
0.00497597912329
0.00497597540745
0.00497597478655
0.004975977388
0.0049759761296
0.00497597340019
0.0049759688567
0.00497596702386
0.00497596671547
0.00497596783429
0.00497596769644
0.00497627409076
0.00497635055941
0.00497632480976
0.00497631152994
0.00497630501539
0.0049763054135
0.00497630855411
0.00497630653882
0.00497629654781
0.0049762835961
0.00497627387922
0.00497626833328
0.00497626273887
0.00497625831099
0.00497625097303
0.00497624417505
0.00497623813643
0.00497623174424
0.00497622510815
0.00497621818693
0.00497681888999
0.00497685915104
0.00497681897036
0.00497679402739
0.00497676667746
0.00497673664608
0.00497670606448
0.00497667376027
0.0049766415773
0.00497661300061
0.00497658980679
0.00497657093007
0.0049765546341
0.00497654103712
0.00497652921872
0.00497651805146
0.00497650863149
0.00497649788502
0.00497648329518
0.00497646857898
0.00497714367061
0.00497714146328
0.00497712283599
0.00497711184847
0.00497709892979
0.0049770734113
0.0049770375307
0.00497699832162
0.00497695967146
0.00497692338614
0.00497689096625
0.00497686132682
0.00497683390212
0.00497681084467
0.00497679273198
0.00497677923847
0.00497676728094
0.00497675372834
0.00497673371138
0.00497671180571
0.00497728768244
0.00497727749195
0.00497726147188
0.00497725891993
0.0049772608738
0.00497725854154
0.00497724452084
0.00497722128674
0.00497719357018
0.0049771642598
0.00497713483238
0.00497710595071
0.00497707721643
0.0049770514069
0.00497703147349
0.00497701722789
0.00497700398593
0.00497698821936
0.00497696669994
0.00497694037195
0.00497743482564
0.00497741511478
0.00497739359709
0.0049773872744
0.00497738807968
0.00497739076582
0.00497738810149
0.0049773770578
0.00497736042271
0.00497734058623
0.00497731968802
0.00497729779074
0.00497727490056
0.00497725332558
0.0049772360023
0.00497722285722
0.00497720805155
0.0049771918048
0.00497717304673
0.00497714754723
0.00497754656872
0.00497752994676
0.00497750951625
0.00497750358863
0.00497750364534
0.00497750590196
0.0049775061236
0.00497750043044
0.00497749032813
0.00497747796678
0.00497746522684
0.00497745125822
0.00497743485016
0.00497741936732
0.00497740668193
0.00497739574225
0.00497738133486
0.00497736702505
0.00497735191179
0.00497733140914
0.00497766027152
0.00497764494933
0.00497762525825
0.00497761807798
0.00497761654854
0.00497761731762
0.00497761654308
0.00497761177979
0.00497760439134
0.0049775968007
0.0049775903355
0.00497758183896
0.00497757151432
0.00497756110392
0.00497755341117
0.0049775468441
0.0049775361404
0.00497752324837
0.00497751028026
0.00497749562056
0.00497774337967
0.00497773667735
0.00497772404859
0.00497771929873
0.00497771908864
0.0049777196012
0.00497771924446
0.00497771616134
0.00497771142222
0.00497770719942
0.00497770528545
0.00497770217231
0.00497769503537
0.00497768944427
0.00497768770276
0.00497768611966
0.00497767957562
0.00497766751493
0.004977656077
0.00497764642285
0.00497784883048
0.00497784158088
0.00497782427451
0.00497781829245
0.00497781692647
0.00497781714223
0.00497781664166
0.00497781422972
0.00497781087557
0.00497781032555
0.00497781435605
0.00497781376775
0.00497781250954
0.00497781100083
0.00497781329881
0.00497781843329
0.00497781601794
0.00497780551136
0.00497779603559
0.00497779053919
0.00497793146393
0.0049779281852
0.00497791171025
0.0049779067121
0.00497790667821
0.00497790656686
0.00497790604887
0.00497790468726
0.00497790437282
0.00497791047764
0.00497791942166
0.00497792452856
0.00497792599611
0.00497792996534
0.00497793768862
0.00497794767247
0.0049779508714
0.00497794257987
0.00497793580016
0.00497793392069
0.00497802128933
0.00497802098073
0.00497800355303
0.00497799858056
0.00497799725443
0.00497799679638
0.0049779967194
0.004977997412
0.00497800204072
0.00497801656561
0.00497803128384
0.00497803687627
0.00497804455099
0.00497805230098
0.00497806391829
0.00497808343413
0.00497808852489
0.00497808389081
0.00497808056254
0.00497808164837
0.00497809836304
0.00497810336716
0.00497808882495
0.00497808511633
0.00497808486229
0.00497808655554
0.0049780901017
0.00497809600957
0.00497811055303
0.00497813364073
0.00497814715996
0.0049781596954
0.00497817076004
0.0049781843038
0.00497820289744
0.00497822437699
0.00497823560986
0.00497823495017
0.00497823493133
0.00497823741223
0.0049781974792
0.0049782087304
0.00497819314111
0.00497818875609
0.00497818959859
0.00497819414775
0.0049782013156
0.00497821409596
0.00497824042186
0.00497826393735
0.00497828201419
0.00497829583643
0.00497831259905
0.0049783300948
0.00497835318694
0.00497838491913
0.00497839455028
0.00497839840137
0.0049784000766
0.00497840185161
0.00497832437247
0.00497833689226
0.00497831315208
0.00497830924369
0.00497831416785
0.00497832340817
0.00497833649945
0.0049783620139
0.00497839266111
0.00497841648517
0.00497843286347
0.00497845267677
0.00497847237664
0.00497849346803
0.00497852737426
0.00497855251954
0.00497856501424
0.00497857209068
0.00497857389511
0.00497857526842
0.00497848152022
0.00497849934848
0.00497846538896
0.00497846120747
0.00497846952145
0.00497848276359
0.00497850446405
0.00497853773688
0.00497856700182
0.00497858524651
0.0049786073025
0.00497862821629
0.00497865054918
0.00497867739825
0.00497870595473
0.00497873428038
0.00497874888904
0.00497875797119
0.00497876122388
0.00497876334155
0.00497863621461
0.00497866311343
0.00497862776655
0.00497862725723
0.00497864175742
0.00497866327112
0.00497869762539
0.00497873337286
0.00497875311724
0.00497877698546
0.00497879806467
0.00497882136994
0.0049788476301
0.0049788736968
0.00497891040827
0.00497893464985
0.00497895183999
0.00497896411405
0.00497897028591
0.00497897332179
0.00497879094906
0.00497883819989
0.00497880907766
0.00497881372872
0.00497883579825
0.00497886799274
0.00497890862632
0.00497893352823
0.0049789607437
0.00497898342143
0.00497900873244
0.00497903671454
0.00497906353259
0.0049790985838
0.00497913001489
0.00497915791852
0.00497917930191
0.00497919594685
0.00497920557296
0.00497920928682
0.00497896476545
0.00497903459024
0.00497902413904
0.00497903500623
0.00497906161606
0.00497909779383
0.00497913221639
0.0049791643972
0.00497918915467
0.00497921670341
0.00497924591657
0.00497927198707
0.00497931023067
0.00497934277104
0.00497938041474
0.00497940777567
0.00497943393252
0.00497945483793
0.00497946748814
0.00497947319075
0.00497917118114
0.004979265239
0.00497926996592
0.0049792852528
0.00497931317751
0.00497935025102
0.00497939466294
0.0049794237537
0.00497945382271
0.00497949131286
0.00497951950599
0.00497956440427
0.00497959889568
0.00497963333453
0.00497966104583
0.00497968940654
0.00497971679265
0.00497973918838
0.00497975363814
0.0049797584892
0.00497954500209
0.00497967202482
0.00497967175345
0.0049796806006
0.00497970121868
0.00497973273689
0.00497976762811
0.00497980209968
0.00497985086392
0.00497988531496
0.00497991513246
0.00497993516827
0.00497995367014
0.00497997139858
0.00497998872525
0.00498000794135
0.00498002682372
0.00498004382685
0.00498005421179
0.00498005513362
0.00498030872891
0.00498044746328
0.00498043610843
0.0049804328308
0.00498043125856
0.00498042809808
0.00498043119641
0.00498044227089
0.00498043828588
0.00498042093511
0.00498039916974
0.00498038389616
0.0049803756432
0.00498036900064
0.00498036395828
0.00498036097304
0.00498036047554
0.00498036245795
0.00498036414456
0.00498035768987
0.00498114391592
0.004981247829
0.00498121339665
0.00498119610779
0.00498118523203
0.00498116562136
0.00498113219932
0.00498108393228
0.00498102549002
0.00498096393022
0.00498090802246
0.00498086168259
0.00498082242284
0.00498078693885
0.004980754541
0.00498072556911
0.00498070084607
0.00498068208956
0.00498066987666
0.00498065900451
0.00498155856135
0.00498159099532
0.00498156323575
0.00498155215657
0.00498154707931
0.00498153920426
0.0049815195554
0.00498148416088
0.00498143591419
0.00498138064508
0.00498132248635
0.00498126364843
0.00498120702182
0.00498115381544
0.00498110423813
0.00498105845527
0.00498101688395
0.00498098129404
0.00498095593341
0.00498093953453
0.00498173473294
0.00498172664793
0.00498170551124
0.00498169873802
0.00498169789606
0.00498169821834
0.00498169511909
0.0049816839137
0.00498166218805
0.00498163082112
0.00498159083403
0.00498154234563
0.00498148839919
0.00498143437806
0.00498138238528
0.00498133319674
0.00498128722078
0.00498124539415
0.00498121108591
0.00498119167473
0.00498182584138
0.00498181681986
0.00498180026975
0.00498179628545
0.00498179774552
0.00498180083557
0.00498180299588
0.00498180134424
0.0049817929799
0.00498177676618
0.0049817529843
0.00498172104502
0.0049816813346
0.00498163772573
0.00498159333667
0.00498154996705
0.00498150839702
0.00498147001617
0.00498143702408
0.00498141578722
0.00498192256436
0.00498191300204
0.00498189632221
0.0049818917566
0.0049818925474
0.0049818952479
0.00498189753496
0.00498189753684
0.00498189288373
0.00498188228016
0.00498186635409
0.00498184534343
0.00498181886554
0.00498178819856
0.00498175526362
0.00498172162394
0.00498168837084
0.00498165723771
0.00498163144003
0.0049816126296
0.00498199214369
0.00498198884754
0.00498197757241
0.00498197518331
0.00498197680111
0.00498197953566
0.00498198179089
0.0049819822011
0.0049819789533
0.00498197096678
0.00498195910107
0.00498194439183
0.00498192726057
0.00498190802427
0.00498188621695
0.00498186262876
0.00498183880483
0.00498181609282
0.00498179927016
0.00498178487793
0.00498206275167
0.00498206486256
0.00498205639939
0.00498205445237
0.00498205565104
0.00498205774628
0.0049820593031
0.00498205931266
0.00498205643536
0.00498204982907
0.00498204065288
0.00498203054604
0.00498202096201
0.00498201149196
0.00498199936128
0.00498198494085
0.00498196958591
0.00498195480673
0.00498194724747
0.00498194400079
0.00498212437323
0.00498213067005
0.00498212128552
0.00498212118779
0.00498212372369
0.00498212639689
0.00498212812709
0.00498212826792
0.00498212602521
0.00498212100669
0.00498211460167
0.00498210871401
0.00498210563561
0.00498210515786
0.00498210230335
0.00498209658422
0.0049820886193
0.00498208142838
0.00498208259824
0.00498208794383
0.00498219331334
0.00498220586018
0.00498218970797
0.00498218831734
0.00498219027033
0.00498219249504
0.00498219382059
0.00498219376989
0.0049821917108
0.00498218754781
0.00498218286425
0.00498218039762
0.00498218461149
0.00498219429201
0.00498220156182
0.00498220485695
0.00498220303301
0.0049822025024
0.00498221171177
0.00498222969967
0.00498225116048
0.00498227199843
0.0049822553474
0.0049822547491
0.00498225785729
0.00498226053622
0.00498226176861
0.00498226125688
0.0049822587468
0.0049822548449
0.00498225212448
0.00498225489814
0.00498226967767
0.00498229116909
0.00498230874082
0.00498231815516
0.00498231993351
0.00498232567237
0.00498234361169
0.00498237187017
0.00498233038879
0.00498236200045
0.00498234301581
0.00498234080433
0.00498234417861
0.00498234697252
0.00498234749624
0.00498234576233
0.00498234229247
0.00498233888459
0.00498233933278
0.00498235014963
0.00498237765412
0.00498240867433
0.00498243266567
0.00498244273023
0.0049824469991
0.00498245965203
0.00498248599983
0.00498252255911
0.00498243211855
0.00498247132254
0.00498245695909
0.00498245497446
0.00498245918655
0.00498246228666
0.0049824621173
0.00498245917629
0.00498245511952
0.00498245298552
0.00498245824027
0.00498248029411
0.00498251813998
0.00498255471784
0.00498257616905
0.00498258237913
0.00498259059767
0.00498261127433
0.00498264429704
0.00498268576102
0.00498257436516
0.0049826183867
0.00498259793274
0.00498259765253
0.00498260446041
0.0049826088783
0.0049826087899
0.004982605675
0.00498260251313
0.00498260376924
0.00498261773008
0.00498265286077
0.00498269429489
0.00498272658776
0.00498273879805
0.00498274482743
0.00498275846905
0.00498278644321
0.00498282258103
0.00498286642252
0.00498274545127
0.00498279530708
0.00498276997188
0.00498277146233
0.00498278084878
0.00498278615236
0.00498278642703
0.0049827846634
0.00498278487993
0.00498279328767
0.0049828198455
0.00498285959222
0.004982895866
0.00498291641561
0.00498292396347
0.00498293329143
0.00498295336238
0.00498298514415
0.00498302091405
0.00498306372995
0.00498292409576
0.00498299225222
0.00498296775282
0.00498297175661
0.00498298311986
0.00498298840671
0.00498299008054
0.00498299239525
0.00498299960168
0.004983018405
0.00498305257317
0.00498308867939
0.00498311577559
0.00498312969542
0.00498313949893
0.00498315126564
0.00498317586445
0.0049832065636
0.00498323961466
0.00498327899071
0.00498315616937
0.00498324654014
0.00498322189847
0.00498322400994
0.00498323152775
0.00498323331692
0.00498323554913
0.00498324237067
0.00498325754184
0.00498328405225
0.00498331616417
0.00498334461772
0.00498336504441
0.00498337565826
0.00498338292868
0.00498339741471
0.004983422187
0.00498344874598
0.00498347755953
0.00498351195385
0.00498353244703
0.00498362643311
0.00498360339757
0.00498359487581
0.00498358748642
0.00498357846499
0.00498357248577
0.00498357230535
0.00498358125836
0.00498359789033
0.00498361548416
0.0049836303651
0.00498363856868
0.00498364171841
0.00498364830217
0.00498366374186
0.00498368481412
0.00498370603761
0.00498372844816
0.004983759543
0.00498410864647
0.00498414754047
0.00498409295575
0.00498406771434
0.00498404316552
0.00498401543394
0.00498398744428
0.00498396359168
0.00498394763364
0.00498393835547
0.00498393232099
0.00498392683016
0.00498392046301
0.0049839176299
0.00498392273206
0.00498393496011
0.00498394923163
0.00498396442364
0.00498398393401
0.00498401258695
0.00498445727174
0.00498445690223
0.00498442335127
0.00498440803139
0.00498439577648
0.00498437539154
0.00498434323385
0.0049843072821
0.00498427479939
0.0049842483187
0.00498422668203
0.00498420837167
0.0049841939612
0.00498418675265
0.00498418649748
0.00498419109216
0.00498419851094
0.00498420976182
0.00498422627092
0.00498425477046
0.00498451987011
0.00498452100915
0.00498452168982
0.0049845208437
0.00498452271088
0.00498452722798
0.0049845227963
0.00498450615636
0.00498448377705
0.00498446283543
0.00498444518281
0.00498442985224
0.00498441803414
0.00498441060779
0.00498440738812
0.00498440766226
0.00498441205769
0.00498442186032
0.00498444058884
0.00498446949111
0.00498454508652
0.00498454564479
0.00498454613136
0.00498454672892
0.00498454809192
0.00498455459761
0.00498456323412
0.00498456631563
0.00498456338028
0.00498456046482
0.00498455945567
0.00498455877539
0.00498455739449
0.00498455839357
0.00498456205172
0.00498456805221
0.00498457723116
0.00498459144331
0.00498461437607
0.00498464817316
0.00498456511151
0.00498456554566
0.00498456585072
0.00498456613148
0.00498456649245
0.00498457008907
0.00498457755311
0.0049845841592
0.0049845889034
0.00498459808312
0.00498461346336
0.00498462738954
0.00498463905832
0.00498465093004
0.00498466476107
0.00498468112544
0.00498469938875
0.00498472181613
0.00498475156349
0.00498478895086
0.004984583391
0.00498458405812
0.00498458339345
0.00498458349476
0.0049845836743
0.00498458714436
0.00498459438346
0.00498460246123
0.00498461146736
0.00498462855137
0.00498465494317
0.00498467970844
0.004984697654
0.00498471813455
0.00498474030953
0.00498476387638
0.00498479063234
0.00498482006559
0.00498485434908
0.00498489598638
0.00498460860474
0.00498462362363
0.00498461134895
0.0049846087045
0.00498460912659
0.00498461280325
0.00498461930003
0.00498462642289
0.00498463578187
0.00498465904079
0.00498469473538
0.00498472237636
0.0049847480169
0.0049847734682
0.00498480107564
0.00498483119019
0.00498486185395
0.00498489619176
0.00498493351935
0.00498497612368
0.00498463708434
0.00498467189492
0.00498464057712
0.00498463283206
0.00498463414512
0.00498463867214
0.00498464417266
0.00498465044967
0.00498466674277
0.00498470568949
0.00498474564827
0.0049847760787
0.00498480248345
0.00498483192537
0.00498486291175
0.004984893929
0.00498492791128
0.00498496160613
0.00498500042118
0.00498504119108
0.00498467235245
0.00498472658862
0.00498468576559
0.00498467375531
0.00498467572668
0.0049846815725
0.00498468943425
0.00498470678903
0.00498474793554
0.00498479369024
0.00498482664009
0.00498485141962
0.00498487983373
0.00498490917811
0.00498493895721
0.00498497114452
0.00498500221201
0.00498503932164
0.00498507366193
0.00498510798343
0.00498471516012
0.00498478776955
0.00498475619625
0.0049847462404
0.00498475443319
0.00498476963826
0.00498479659929
0.00498484287336
0.00498488754109
0.00498491879826
0.0049849392435
0.0049849641976
0.00498498976168
0.00498501573845
0.00498504680678
0.00498507568516
0.00498511002904
0.00498513724274
0.00498516290279
0.0049851918649
0.00498483497556
0.00498492685573
0.00498490045217
0.00498490445862
0.00498492929631
0.00498496187144
0.00498500370461
0.00498504146357
0.00498506489162
0.00498508045765
0.00498509919684
0.00498512317836
0.00498514484403
0.0049851768233
0.0049852022921
0.00498522694502
0.00498524555002
0.00498526244238
0.00498528113261
0.0049853031427
0.00498521041721
0.00498531340831
0.00498526961976
0.00498526469342
0.00498527682477
0.00498529070251
0.00498530899165
0.00498532430592
0.00498533572293
0.00498535125277
0.00498537206707
0.00498538558793
0.00498540096887
0.00498540935357
0.004985414898
0.00498541819821
0.00498542193791
0.00498542613663
0.00498543144832
0.00498544028058
0.00498595190161
0.00498604039053
0.00498597943104
0.00498595790041
0.00498594878208
0.00498593817848
0.00498592746097
0.00498591364941
0.00498589290724
0.00498586122596
0.00498582012585
0.00498577940301
0.00498573979252
0.00498570583347
0.00498567784482
0.00498565517566
0.00498563541903
0.00498561809851
0.00498560436543
0.00498559515341
0.00498646133145
0.00498651157597
0.00498648981381
0.00498648166724
0.00498648112237
0.00498647804655
0.00498646381916
0.0049864332406
0.0049863832573
0.00498631240716
0.00498623271495
0.00498615462783
0.004986080879
0.00498601336161
0.00498595414228
0.00498590213326
0.00498585589529
0.00498581508308
0.0049857802043
0.00498575160375
0.00498646223254
0.00498646327382
0.00498646393971
0.00498646451177
0.00498646502088
0.00498646540398
0.00498646563355
0.00498646523467
0.00498646137251
0.00498644425697
0.00498640606514
0.00498635489627
0.00498629585757
0.00498623079269
0.00498616341782
0.00498609855905
0.00498603829212
0.00498598291404
0.00498593283911
0.0049858896724
0.00498647410091
0.00498647421158
0.00498647422195
0.00498647424547
0.00498647427717
0.00498647430497
0.00498647431863
0.00498647428757
0.00498647417694
0.00498647240166
0.00498645852031
0.00498643003818
0.00498639074235
0.00498634137888
0.00498628370548
0.0049862220902
0.00498616108622
0.00498610215133
0.00498604732777
0.00498599663113
0.00498648340364
0.0049864834962
0.00498648351122
0.00498648347475
0.00498648341452
0.00498648333224
0.00498648323113
0.00498648311562
0.00498648298962
0.00498648264637
0.0049864755823
0.00498645811177
0.00498643067261
0.0049863932153
0.00498634670276
0.00498629377476
0.0049862380234
0.0049861827352
0.00498612814665
0.00498607654064
0.00498649328272
0.00498649334137
0.00498649332661
0.0049864932582
0.00498649315095
0.00498649300793
0.00498649284063
0.00498649267748
0.00498649254624
0.00498649185244
0.00498648726044
0.00498647523
0.00498645435219
0.00498642393809
0.00498638503916
0.00498634019013
0.00498629198924
0.00498624137988
0.00498619124668
0.00498614029262
0.00498650382722
0.00498650386207
0.00498650381171