/*--------------------------------*- C++ -*----------------------------------*\
| =========                 |                                                 |
| \\      /  F ield         | OpenFOAM: The Open Source CFD Toolbox           |
|  \\    /   O peration     | Version:  2312                                  |
|   \\  /    A nd           | Website:  www.openfoam.com                      |
|    \\/     M anipulation  |                                                 |
\*---------------------------------------------------------------------------*/
FoamFile
{
    version     2.0;
    format      ascii;
    arch        "LSB;label=32;scalar=64";
    class       volScalarField;
    location    "0.525/water";
    object      T.gas;
}
// * * * * * * * * * * * * * * * * * * * * * * * * * * * * * * * * * * * * * //

dimensions      [0 0 0 1 0 0 0];

internalField   nonuniform List<scalar> 
1496
(
468.200396001
368.171698079
321.131523062
306.92097505
303.075376525
301.800632346
301.218335403
300.898810146
300.708472388
300.58704562
300.50222142
300.435834793
300.378081243
300.323676511
300.269719086
300.21560594
300.162494506
300.113884629
300.073679974
300.043625347
481.425857889
361.098734682
315.77915308
304.718399769
302.091080795
301.299273009
300.947555897
300.74454289
300.611298301
300.515917457
300.441807651
300.37890441
300.321274702
300.265781663
300.211518424
300.159250614
300.110956498
300.070973741
300.040564348
300.020891654
469.722748149
349.669625388
311.91787132
303.512903555
301.578074502
301.021240566
300.779611016
300.633523155
300.529156078
300.447436378
300.378751544
300.317504898
300.260353066
300.205932668
300.154555712
300.106931215
300.067232308
300.036533524
300.018171042
300.009930776
438.02560877
340.574186901
310.140837258
303.064901796
301.365779453
300.878274346
300.674408368
300.549981914
300.457377065
300.381971688
300.316650308
300.257536247
300.202652821
300.151537925
300.104102064
300.064146697
300.033122409
300.015938059
300.008953633
300.006222955
407.559418118
332.277981191
308.785145268
302.747209899
301.210986078
300.775006713
300.594670899
300.481171806
300.394257321
300.322466002
300.260069575
300.20378518
300.151997217
300.104590646
300.063607358
300.032461221
300.015504678
300.008564987
300.006118788
300.004977672
387.221116704
328.795109988
308.32075508
302.441574419
301.032123993
300.680838876
300.528769777
300.424245244
300.341416357
300.272463545
300.212339226
300.158473308
300.110263988
300.068099441
300.035733937
300.017449099
300.009458891
300.006530335
300.00534362
300.004821131
379.498579846
329.187718751
308.548971285
302.100067989
300.915882764
300.630036186
300.488836379
300.38628947
300.304299355
300.236051375
300.177455089
300.126508898
300.081933503
300.047403195
300.02518535
300.013215855
300.008127643
300.006301787
300.005574083
300.005289848
385.130492578
334.086880513
310.788788617
302.815323296
301.15370082
300.694652482
300.499159004
300.379393369
300.291164641
300.220739162
300.162436443
300.11305028
300.072398015
300.043039023
300.023739808
300.013138933
300.008627505
300.00703441
300.006431183
300.006211708
401.963293874
343.324294033
316.962373492
306.274948177
302.462565975
301.104747164
300.627553346
300.426776741
300.313915995
300.233269523
300.169873146
300.11872081
300.077619982
300.047897977
300.027652931
300.01576739
300.010401462
300.008475366
300.007775113
300.007519802
414.146991102
349.492472496
322.780195478
310.214328914
304.577654158
302.093582773
301.035484085
300.56707487
300.376351887
300.274776069
300.199826866
300.140887164
300.094612819
300.059786315
300.035936794
300.020954078
300.01351089
300.010643543
300.009578713
300.009155852
414.064317435
348.740496917
322.762843804
311.285983046
305.526279375
302.693219064
301.373338658
300.776368393
300.491395179
300.338138006
300.246674004
300.177858459
300.122490169
300.079452454
300.048280571
300.028795428
300.018264103
300.013823539
300.012045162
300.011196306
405.897352418
343.997477323
320.378179135
310.371303937
305.3536793
302.756082118
301.480484128
300.874491659
300.577294837
300.420134681
300.302910298
300.223075832
300.160432173
300.107396539
300.06591337
300.039223766
300.024808392
300.018228436
300.015468236
300.013918112
398.919466206
339.399015875
317.283286918
308.69228725
304.505210507
302.38229326
301.362759989
300.865711468
300.606592987
300.458067037
300.353137377
300.270327194
300.201980303
300.142641075
300.090541235
300.05287332
300.03298188
300.023970993
300.02006865
300.017530924
395.730390603
336.361955399
314.539350688
306.901022079
303.435512894
301.790862576
301.117366669
300.787129984
300.5966539
300.474251943
300.384892422
300.307057776
300.238347716
300.177069882
300.119498465
300.071513642
300.042974469
300.031066473
300.025906988
300.022285099
393.480592455
333.719371205
312.128890247
305.294415481
302.59586822
301.350588892
300.904405228
300.700682673
300.572204233
300.479317342
300.403751313
300.332837294
300.266797575
300.205166767
300.145498023
300.091281198
300.054887465
300.039332744
300.032908603
300.028250715
391.462938869
332.402290707
310.995854917
304.335396355
302.087122344
301.120399135
300.777312218
300.643142898
300.553357624
300.480863103
300.415729338
300.351053941
300.28824572
300.227332839
300.166742409
300.108964059
300.067033641
300.048455394
300.040893508
300.035234517
389.91126602
332.501938328
311.484474705
304.385138992
302.036224964
301.12798882
300.75736403
300.625696885
300.551639764
300.489077869
300.429117383
300.368122262
300.307265255
300.247149516
300.186131811
300.125928695
300.079634308
300.058371391
300.049726517
300.043226963
389.108093045
334.218548288
313.301203884
305.492058973
302.564123496
301.409645261
300.890244394
300.673204969
300.57860461
300.513800963
300.453156485
300.3923202
300.331435899
300.271118304
300.209297071
300.146463625
300.094741569
300.069484142
300.059524
300.052142837
389.720212956
336.28779305
315.6134284
307.07447111
303.461317996
301.872371175
301.157626589
300.826014362
300.665516468
300.572563987
300.498682232
300.430980962
300.366397979
300.303217193
300.240160502
300.174126035
300.114014419
300.082984277
300.070923011
300.062260009
391.137507531
337.669970715
316.646213102
307.870006802
303.94807598
302.174796625
301.405159163
301.025179884
300.810871391
300.675764822
300.574719529
300.490138834
300.415366642
300.345442697
300.277682461
300.20624767
300.138809439
300.100927685
300.084680927
300.073806165
393.305146111
338.257474804
316.651945113
307.615238059
303.83462628
302.205884759
301.488753982
301.124199289
300.909087274
300.761706069
300.645167908
300.54774071
300.46417054
300.387721976
300.314581836
300.238298544
300.166934438
300.123975215
300.101701512
300.087032369
399.411127681
340.329455643
316.435719111
307.023135682
303.439624881
302.036718471
301.426460939
301.111004932
300.917751757
300.781332924
300.671288704
300.575717382
300.492004297
300.415447572
300.341211047
300.262676379
300.193109662
300.148698771
300.12040399
300.101500397
402.777576965
340.406620614
315.80790516
306.372357686
302.943224003
301.750385808
301.270490036
301.022792786
300.866532711
300.751042611
300.655232714
300.570350094
300.493452869
300.421800755
300.349522466
300.276781563
300.212984591
300.167523604
300.137012066
300.114903799
403.788039805
339.49179046
314.964571231
305.731802121
302.408210774
301.425349892
301.085089774
300.909128781
300.792180673
300.699954076
300.618809263
300.544083933
300.47506363
300.410069574
300.345173975
300.280689155
300.223759068
300.181121919
300.149742633
300.12592325
403.667239285
337.918724685
313.799055371
305.151695569
301.886781149
301.182732852
300.947569761
300.815054061
300.723319342
300.645638469
300.575222802
300.509498248
300.447603803
300.38905878
300.331891766
300.276553863
300.227595415
300.188421878
300.157703201
300.13372714
401.353030426
336.38133629
312.72302956
304.676123461
301.629538511
301.031067465
300.846524122
300.740690935
300.664805413
300.59759493
300.535200318
300.4761962
300.419978721
300.366726157
300.315912152
300.268117228
300.225634287
300.190205851
300.161554325
300.138551218
396.622061035
334.514901642
311.586070587
304.157603633
301.548613678
300.937578157
300.776786106
300.688289135
300.622175716
300.56180248
300.504399187
300.449313404
300.396682211
300.347131374
300.300898661
300.258549328
300.221038025
300.1890406
300.162627998
300.141554613
393.551961431
333.134820177
310.762323289
303.727648316
301.538125064
300.916338476
300.737783171
300.657815544
300.596115888
300.538998163
300.484131186
300.431031726
300.38015727
300.332713279
300.289424079
300.250579586
300.215934729
300.186382975
300.162889523
300.14523031
391.665939318
332.50732665
310.733324932
303.627938664
301.602318414
300.957818513
300.728276765
300.646264989
300.584971892
300.528153459
300.473764749
300.421294186
300.371028288
300.324271779
300.282155348
300.244298693
300.21137436
300.184810734
300.165327054
300.151594362
390.304751673
332.624787708
311.3345212
304.008280529
301.795050101
301.05422452
300.74746872
300.651913509
300.587184292
300.528401325
300.472872475
300.419675817
300.368727645
300.321519927
300.27908047
300.241784015
300.210460522
300.187503092
300.172327489
300.162256597
389.790562965
333.890776679
313.029094911
305.049517464
302.247434544
301.246704808
300.807336438
300.676537905
300.60396932
300.540604991
300.48178112
300.42644006
300.374157837
300.325838621
300.28301777
300.246206369
300.216596796
300.196910547
300.185128056
300.177178941
390.127962466
336.191050192
315.21372838
306.549490295
302.92439671
301.537350868
300.929408583
300.729558105
300.63825023
300.567198488
300.503390192
300.444591597
300.389813943
300.339458982
300.295952047
300.259547662
300.230958541
300.2129297
300.202658519
300.195355073
392.296834303
338.329971993
316.798907717
307.410290976
303.326680018
301.739834141
301.129519123
300.83965857
300.70113574
300.613469132
300.54110389
300.47688359
300.418453878
300.364789912
300.31903778
300.281586258
300.252448581
300.23389981
300.223410012
300.21573219
402.974085715
342.677588901
317.820213516
307.634463701
303.343048969
301.842171609
301.293282841
301.005093974
300.796753615
300.679737965
300.596214779
300.524014481
300.460216639
300.402074841
300.351287406
300.310422897
300.279023988
300.258180749
300.246019752
300.237405762
410.202552607
343.816989705
317.751861102
307.601128065
303.57197614
302.031092945
301.419097811
301.106371427
300.899562824
300.757791481
300.661651549
300.583250945
300.5129553
300.450308175
300.393241363
300.345626857
300.309524378
300.284783699
300.269932149
300.260215249
412.633067473
342.80634633
316.755705785
307.267208683
303.693261254
302.171754573
301.510601587
301.172959173
300.970209497
300.826830812
300.727914809
300.647121715
300.572600798
300.504853221
300.443603928
300.389303453
300.345399988
300.31500516
300.296371686
300.284965078
413.337178092
340.673311238
315.04578841
306.470618616
303.45217894
302.140755171
301.523800804
301.19873322
301.006117903
300.876935472
300.78265011
300.704593192
300.63195752
300.56078334
300.495429143
300.436945096
300.387322896
300.350198636
300.326040905
300.311264404
300.007023338
300.005271541
300.004481203
300.004126281
300.003992779
300.003929639
300.00379511
300.003635742
300.003843091
300.005010692
300.005299193
300.005345442
300.005329231
300.005284172
300.005194524
300.004646379
300.02404293
300.013695372
300.008381079
300.005958776
300.004813133
300.004284505
300.004147843
300.004205521
300.004366138
300.004531114
300.004452335
300.00426363
300.004313753
300.005982222
300.006272783
300.006249968
300.006166932
300.006070088
300.005943764
300.005374859
300.011479558
300.007200999
300.005417572
300.004564585
300.004245608
300.004239537
300.004426506
300.004731571
300.005165674
300.005516301
300.005263252
300.004916791
300.004850946
300.006890328
300.007263379
300.007152039
300.006972201
300.006803718
300.006626164
300.005871541
300.006628763
300.005092201
300.004457651
300.004282912
300.004384423
300.004665265
300.005066039
300.005654412
300.006273909
300.006695581
300.006200231
300.005676674
300.005563453
300.007694784
300.008246372
300.008051316
300.007729145
300.007461932
300.007220926
300.006278224
300.004948199
300.004428765
300.004363006
300.004564485
300.004938029
300.005430983
300.006119438
300.006837331
300.007552683
300.007954708
300.007232097
300.006610131
300.00650622
300.008589837
300.009262806
300.008996439
300.008464748
300.008045063
300.007725689
300.006647557
300.004507904
300.004479823
300.004754136
300.005226546
300.005836973
300.006621468
300.007407423
300.008233236
300.008999063
300.009240321
300.00848992
300.0078368
300.007796362
300.009643503
300.010298641
300.009947732
300.00925933
300.008580754
300.008146427
300.007005153
300.004715642
300.004966134
300.005493637
300.006214872
300.007166927
300.008100503
300.009005442
300.009899605
300.010634549
300.010629655
300.01004136
300.009453502
300.009441638
300.01092003
300.011357212
300.01083545
300.010020049
300.009068116
300.008470141
300.007449686
300.005349033
300.005779653
300.006541002
300.007607937
300.008807512
300.009929937
300.010958
300.011876644
300.01245492
300.012282159
300.011837917
300.011355928
300.011280947
300.012316441
300.012344581
300.011532133
300.010482973
300.009369474
300.008670408
300.007984189
300.006332064
300.006906152
300.007909821
300.009318454
300.010834104
300.012197637
300.013346413
300.014167197
300.014371029
300.014270878
300.013896034
300.013427316
300.013147269
300.013591771
300.013043387
300.011865608
300.010523395
300.009416989
300.008780796
300.008084056
300.007650536
300.008314445
300.009557222
300.011364807
300.013306502
300.014993836
300.016222423
300.016654516
300.016544136
300.016648097
300.016268908
300.015635065
300.014990927
300.014503487
300.01329443
300.011788591
300.010445916
300.009530038
300.008969939
300.008334177
300.009224734
300.009957113
300.011471948
300.01377518
300.016306032
300.018445438
300.019479188
300.019416735
300.01928487
300.019421078
300.018910664
300.017927517
300.016507446
300.015066778
300.013383249
300.011772643
300.010505119
300.009662961
300.009121707
300.008363326
300.011053164
300.011799089
300.013642634
300.016641341
300.020052827
300.022535372
300.023118037
300.022849107
300.022775331
300.022695875
300.02181044
300.020214666
300.017987344
300.01586286
300.013770206
300.011940454
300.01057562
300.009644958
300.009016608
300.008148793
300.013274295
300.013895426
300.016183584
300.020126522
300.024451579
300.027040225
300.027371978
300.027067731
300.027029882
300.026595434
300.025192976
300.022923402
300.020061589
300.017293846
300.014656811
300.012401412
300.010617155
300.009256213
300.008263634
300.007420321
300.016096544
300.016370927
300.018961233
300.02378501
300.029082686
300.032022195
300.032372341
300.032075098
300.032062998
300.031220537
300.029189265
300.026282122
300.022923137
300.019556159
300.016301631
300.013428523
300.011170018
300.009208678
300.007152575
300.005421542
300.019641402
300.019106537
300.021598808
300.027172178
300.033701828
300.037580472
300.038265188
300.037975671
300.038098964
300.03687709
300.03407147
300.030369032
300.026406409
300.022363491
300.018246134
300.014407533
300.01150876
300.009043599
300.006789197
300.002822813
300.024250231
300.022318947
300.024096287
300.030043374
300.037996569
300.043554269
300.04517218
300.044885798
300.045247754
300.044039376
300.04043348
300.035396331
300.030194811
300.025207457
300.020018858
300.01509101
300.011475741
300.008711651
300.006059331
300.001720946
300.029986484
300.026431521
300.026748595
300.032289618
300.041426727
300.049374211
300.052924592
300.053057348
300.053327279
300.052274852
300.048515821
300.042154944
300.03488
300.027857885
300.021577421
300.015790686
300.01172094
300.009176687
300.004769072
300.001462392
300.036812414
300.031648561
300.030052988
300.034271287
300.043731989
300.053953064
300.06056058
300.062235418
300.062114508
300.060675681
300.057053422
300.050274675
300.040567685
300.030658189
300.022903804
300.016574059
300.012080322
300.010145152
300.00452128
300.001416048
300.044764662
300.038070085
300.03438653
300.036543655
300.045191182
300.056878469
300.066624169
300.071080648
300.071452227
300.069012705
300.064637309
300.057441756
300.046658146
300.034388539
300.024029987
300.017085616
300.012467637
300.01093106
300.004762475
300.001451858
300.053754193
300.045750618
300.040078696
300.039827493
300.046586723
300.058340681
300.070585862
300.078301551
300.080170291
300.076967849
300.071004441
300.062461736
300.050774315
300.037373078
300.02563261
300.017722308
300.012859861
300.010205259
300.005832339
300.001580704
300.063850758
300.054615415
300.047185748
300.044569636
300.048909608
300.059396783
300.07278338
300.08356539
300.087498114
300.084005182
300.076374323
300.065852977
300.053050417
300.039039133
300.026646872
300.018252591
300.013239471
300.009958123
300.006884416
300.001745059
300.07505397
300.064349955
300.055366664
300.050762113
300.052811688
300.061326476
300.074509973
300.087323845
300.093586843
300.090173752
300.080940688
300.068689669
300.054779372
300.040187111
300.027336425
300.018588043
300.013590586
300.010102772
300.007615154
300.001958285
300.086819129
300.074398322
300.064054285
300.057983412
300.058263176
300.064982706
300.077190693
300.090777223
300.098875591
300.095908126
300.085189186
300.071717176
300.056834673
300.041527819
300.028037527
300.018814539
300.013805086
300.010273175
300.007988466
300.002339135
300.097975735
300.084008659
300.072672546
300.065759536
300.064899399
300.070370899
300.08169591
300.095220187
300.104120426
300.101389411
300.089491389
300.075202032
300.059401703
300.043150957
300.028707579
300.018756764
300.013640496
300.009949573
300.007338654
300.003189126
300.107479227
300.092585792
300.080915313
300.073833195
300.072454073
300.077225699
300.087950777
300.10116323
300.109824864
300.106712267
300.094065321
300.079253114
300.062470851
300.044948604
300.029284001
300.018584823
300.013372175
300.009518911
300.006574451
300.003413305
300.114926116
300.09999832
300.088829183
300.082181786
300.080733741
300.085289946
300.095874611
300.108439333
300.116067244
300.11190067
300.098911208
300.083659391
300.065693001
300.046485907
300.0296087
300.018312226
300.013136131
300.009158635
300.005895942
300.003700254
300.120553585
300.106797961
300.0968634
300.090945771
300.089765977
300.094507036
300.105196673
300.116760375
300.122682042
300.116892889
300.1039774
300.08788731
300.068242665
300.047081842
300.029267666
300.017678301
300.012752078
300.008776327
300.005566178
300.003837239
300.125779062
300.11405744
300.105598249
300.10044177
300.099713227
300.105118017
300.115508169
300.125640715
300.129185733
300.121612225
300.108711775
300.091310151
300.06923417
300.046218678
300.027625642
300.016899359
300.012201979
300.008372697
300.005513582
300.004083774
300.13232889
300.122832025
300.115547836
300.110933484
300.110821859
300.116866982
300.126495113
300.134610611
300.135234323
300.126084124
300.112662489
300.093171493
300.068072271
300.043922553
300.025307905
300.016119867
300.011680697
300.008119503
300.005738756
300.004557364
300.141666143
300.133690833
300.126922233
300.122670698
300.12343149
300.129383462
300.137696607
300.143182799
300.140404102
300.130056962
300.115235414
300.09270336
300.064708077
300.04090762
300.023087779
300.01534996
300.011304948
300.008129431
300.006310766
300.005332403
300.154281352
300.146694002
300.139827467
300.135828923
300.136994236
300.142387763
300.148705123
300.150825136
300.144639551
300.133090545
300.116054635
300.08943786
300.060002799
300.037871291
300.021208253
300.014650981
300.011105722
300.008509442
300.007450125
300.006756413
300.169754218
300.161714468
300.154240332
300.150424089
300.151310598
300.155552747
300.159198455
300.157467718
300.148474191
300.135207357
300.114726012
300.083795101
300.055007795
300.035054822
300.019588521
300.014004813
300.0111204
300.009491209
300.009634821
300.009553329
300.18756373
300.178556323
300.170220033
300.165817046
300.166156416
300.168654322
300.169006544
300.163489028
300.152246336
300.136440547
300.110868624
300.077398799
300.050247067
300.032278798
300.018337268
300.01361995
300.011654618
300.011573561
300.013036675
300.013367807
300.207156694
300.196878036
300.187527288
300.181996502
300.181384508
300.181626734
300.178336081
300.169385276
300.156108416
300.137230865
300.105556929
300.071372304
300.046995097
300.028344576
300.016986348
300.013906613
300.01322102
300.014687042
300.017206807
300.017700009
300.228065322
300.217042146
300.205769763
300.198992964
300.197059887
300.194649046
300.188464386
300.176614725
300.16048198
300.137690091
300.101484947
300.067404264
300.045073427
300.022746218
300.016835784
300.015143829
300.016027351
300.018338879
300.021688568
300.022251249
300.250593588
300.238703263
300.225379825
300.217028394
300.213496121
300.208578555
300.199493433
300.185922423
300.166708005
300.138996076
300.100822005
300.068583665
300.035977191
300.020593584
300.018304766
300.017301632
300.019554486
300.022335125
300.026236217
300.026795763
300.275009535
300.26160553
300.246653642
300.236513416
300.23130227
300.225162162
300.213268351
300.197345644
300.175453043
300.144182465
300.105802176
300.069794897
300.027165791
300.022519761
300.020787212
300.020047402
300.023218579
300.026405497
300.030621825
300.030767513
300.299507426
300.285328237
300.269269463
300.258422499
300.253534785
300.243763737
300.230469733
300.21249972
300.187306106
300.153786435
300.110107605
300.054652546
300.029314441
300.025080503
300.023732179
300.023019945
300.026732142
300.030225729
300.034457682
300.033451063
)
;

boundaryField
{
    emptyPatch
    {
        type            empty;
    }
    minY
    {
        type            fixedValue;
        value           nonuniform List<scalar> 0();
    }
    maxY
    {
        type            inletOutlet;
        inletValue      uniform 373;
        value           nonuniform List<scalar> 
40
(
413.337176996
340.673309683
315.045787645
306.470618395
303.452178896
302.140755171
301.523800815
301.198733233
301.006117921
300.876935512
300.782650209
300.704593383
300.631957801
300.560783644
300.495429426
300.436945342
300.387323105
300.350198817
300.32604107
300.311264566
300.299507589
300.285328397
300.269269614
300.25842263
300.253534889
300.243763802
300.230469791
300.212499795
300.187306193
300.153786512
300.110107622
300.054652585
300.029314446
300.025080504
300.023732179
300.023019946
300.026732143
300.030225729
300.034457683
300.033451066
)
;
    }
    maxX
    {
        type            fixedValue;
        value           uniform 300;
    }
    water_to_heater
    {
        type            copiedFixedValue;
        sourceFieldName T.liquid;
        value           nonuniform List<scalar> 
59
(
792.90097477
792.889845835
792.908107948
792.887779043
792.86101109
792.837488062
792.822512026
792.802222791
792.81009375
792.796791188
792.800285745
792.799791581
792.792821511
792.823669944
792.826085564
792.866691878
792.866337239
792.903083657
792.901996949
792.927241048
792.926939413
792.957887456
792.957564478
792.997108311
792.996965532
793.029189705
793.028781403
793.047545065
793.046989337
793.053309433
793.054081044
793.061505486
793.061268038
793.082357905
793.081479282
793.110175517
793.110426679
793.139733181
793.139661259
793.166646247
793.166442521
793.191617722
793.192395413
793.222550954
793.222151956
793.253088723
793.253199502
793.273627373
793.273214801
793.268661618
793.269289907
793.229021585
793.227924688
793.136438791
793.137646602
793.004431407
793.004966976
792.88580872
792.885964216
)
;
    }
    procBoundary0to1
    {
        type            processor;
        value           nonuniform List<scalar> 
41
(
464.183660322
372.624537764
326.573928898
309.943019121
304.600092402
302.577756432
301.611648622
301.100464358
300.819767173
300.658336111
300.557018636
300.484483703
300.425218722
300.371837601
300.320398492
300.267968939
300.214124231
300.161464575
300.113221462
300.073545539
300.012697749
300.008656486
300.006230031
300.004870692
300.004143971
300.003686686
300.003312042
300.003106967
300.003427251
300.004131145
300.004371074
300.004463057
300.004494983
300.004489106
300.00443729
300.003934578
300.045483695
300.027506943
300.016589008
300.010455855
300.010455855
)
;
    }
}


// ************************************************************************* //
