/*--------------------------------*- C++ -*----------------------------------*\
| =========                 |                                                 |
| \\      /  F ield         | OpenFOAM: The Open Source CFD Toolbox           |
|  \\    /   O peration     | Version:  2312                                  |
|   \\  /    A nd           | Website:  www.openfoam.com                      |
|    \\/     M anipulation  |                                                 |
\*---------------------------------------------------------------------------*/
FoamFile
{
    version     2.0;
    format      ascii;
    arch        "LSB;label=32;scalar=64";
    class       volScalarField;
    location    "0.815/water";
    object      epsilon.gas;
}
// * * * * * * * * * * * * * * * * * * * * * * * * * * * * * * * * * * * * * //

dimensions      [0 2 -3 0 0 0 0];

internalField   nonuniform List<scalar> 
1504
(
2933.63996591
826.478125225
255.185014226
89.9754950311
37.0215459575
16.4285278582
7.31845719787
3.36974024521
1.68161658481
0.958467427643
0.635312469903
0.472424770716
0.384285911651
0.349935867995
0.366021956496
0.431555314645
0.452560636147
0.376234630691
0.24412625768
0.0586360195638
2885.30748754
817.275160317
252.263674909
88.6427364051
36.0996758482
15.8324941453
7.13817913549
3.37745205721
1.73665812435
1.01519383551
0.678176175869
0.504362855524
0.412667138462
0.375728403305
0.390348275817
0.457579002587
0.485973203324
0.419080963013
0.292990436641
0.0957137288711
2876.70042755
813.484924807
251.052741337
87.5443967721
34.8841768554
15.0511208355
6.8795063523
3.3459366932
1.77515318837
1.06353104196
0.715646402133
0.535861446422
0.444555893457
0.407641128933
0.421791461745
0.490214732737
0.525969263832
0.474722916865
0.353026527995
0.142892969804
2882.71979737
816.724374171
251.966562499
86.8114904875
33.6800913484
14.409958592
6.67611963547
3.31856435564
1.80934548098
1.10257971251
0.746167548932
0.566719442765
0.479661699115
0.444569017763
0.459283091787
0.5280403129
0.572800040704
0.544489194606
0.423150896468
0.200815349906
2971.17751369
830.206080837
253.558189964
85.9108467237
32.7969582996
14.0303037103
6.54867764739
3.30230832304
1.83610978872
1.12694346643
0.769066498913
0.59693496876
0.517207906451
0.484881597602
0.500120883215
0.56776902031
0.624490761894
0.623440481235
0.496679106774
0.268340207757
3106.66854618
858.933769529
258.578458565
86.2531167882
32.6282348375
13.8970800153
6.47281281887
3.29221427272
1.84371681912
1.1326503507
0.785441776175
0.626588305442
0.555902026741
0.525786813396
0.540607503306
0.604688112794
0.675636524773
0.699695070431
0.575104032538
0.342117294403
3278.49387743
893.918085361
266.318655717
87.9214608024
32.9522085004
13.8722593356
6.4141003038
3.26853803927
1.82120005966
1.12313085701
0.798160035629
0.655584621188
0.593577431949
0.564398535004
0.577317458034
0.635223038454
0.722234134729
0.77175564524
0.660674707253
0.420224266513
3416.96450095
926.035854239
274.577975472
90.1360680515
33.4255000289
13.8566861593
6.35214269925
3.20820456122
1.77085392493
1.10837877326
0.810932107907
0.682610964926
0.627319440429
0.59774756724
0.605487446221
0.658622502906
0.764151432636
0.840168752196
0.755146485868
0.504081828982
3533.37998772
946.911504313
279.982174268
91.6874069832
33.6828372777
13.758991339
6.23620520579
3.1008691682
1.71341199363
1.10046156362
0.825319206227
0.703927545035
0.652228331442
0.623018270292
0.623138931898
0.67243062162
0.796371250332
0.901748393022
0.857103153895
0.586563088485
3605.04557664
954.037149528
281.458718511
92.0908094552
33.51220989
13.4858318922
6.02334316127
2.9692786883
1.67450272151
1.10830651712
0.83831148134
0.712233078241
0.660967320497
0.634174665025
0.628640766342
0.671273189935
0.807632077616
0.946255415862
0.956028436386
0.688513996137
3599.68827978
944.472828526
279.307679817
91.6404422128
33.0427915767
13.0872497675
5.77666480692
2.88222806157
1.68666584918
1.13777976971
0.84354929139
0.699460509688
0.644301722511
0.622735275521
0.61505357859
0.65012725283
0.783385993249
0.955306941245
1.03136844216
0.80162414718
3295.67107597
892.855365312
271.215839683
90.4288534059
32.5491997243
12.743297804
5.64151468205
2.92741638044
1.78319396452
1.19088530838
0.835239368928
0.660859675885
0.598252715005
0.581012159612
0.571221577559
0.603847836281
0.718506567217
0.910957287641
1.05627480256
0.887215268787
2824.12289169
824.680970724
264.161622348
90.7679165956
32.7111597372
12.7477157329
5.84139704886
3.21340295856
1.98713466881
1.25295190838
0.80291609554
0.597085810555
0.528662281271
0.511868102755
0.504311120866
0.525613445983
0.624191348295
0.810620828654
1.02111246342
0.932771799881
2568.26098943
803.757411076
268.450553233
93.3845048144
33.578255146
13.5315000294
6.55467398502
3.71997097872
2.24317942155
1.31237276866
0.771943620935
0.534909815508
0.454341859395
0.433395734563
0.42883598569
0.439469899094
0.513312775352
0.67596496498
0.926813023232
0.927037339952
2641.9988703
836.699235146
275.64187451
94.8534435975
34.9119707916
14.8257051466
7.54897275462
4.35592126916
2.5695960487
1.42967530565
0.782810218009
0.498352732528
0.396693865093
0.365594068809
0.359788594919
0.365422521785
0.40947297261
0.542469030135
0.791552219422
0.88070155378
3000.91170169
899.891669242
279.797727711
94.9101136997
36.7133878587
16.5360052449
8.79043733794
5.17589501253
3.03830759162
1.64145515782
0.849768407436
0.498211425555
0.367093861149
0.321154604936
0.308996978108
0.310837286979
0.334145025036
0.432616091879
0.651950759209
0.816042842552
3557.25836945
968.304471991
286.487580154
96.8420928825
39.0548949136
18.7256990863
10.3769764614
6.21800627121
3.65129753792
1.93903516826
0.967911028094
0.532977410708
0.365821205817
0.302515247682
0.280677998903
0.277051355646
0.28692519232
0.349870531435
0.537843766935
0.751373212841
3740.54096548
1003.71117273
295.633582061
100.575170521
41.5579514345
20.7364850579
11.9425732894
7.33972597818
4.34474171966
2.29852283323
1.12717276572
0.59580633324
0.386979924978
0.304783574857
0.272434990805
0.261843353096
0.262015642676
0.299820665726
0.460127137187
0.696151147061
3703.98083471
1003.2091217
298.068577509
102.505436159
43.1056446745
22.153740285
13.1704523616
8.27731848743
4.95866168731
2.6472498016
1.30351026325
0.676264491853
0.422946474527
0.321438999619
0.279492307359
0.261388684479
0.252159066525
0.271869719069
0.406447043132
0.655616373349
3642.57793039
981.483855846
292.831529562
101.572314813
43.3121105591
22.7802725668
13.9015820359
8.91013578351
5.39824840523
2.9130311276
1.45072919746
0.751998451361
0.462776868377
0.345841932266
0.29679524058
0.271672323526
0.253041209106
0.259662209676
0.372722296029
0.630898534996
3559.85637768
960.715443235
286.922054989
99.6280749087
42.6435871766
22.7014336298
14.104140498
9.1767463292
5.60585516563
3.05405632543
1.54292307986
0.809264394471
0.499749119333
0.373941558841
0.320351388265
0.288745280694
0.260886218295
0.258884409695
0.356968009942
0.620004415321
3503.21060408
943.434949403
281.847931307
97.3313027971
41.3561487479
22.0070006027
13.7912499444
9.04728100232
5.54832999071
3.04666098617
1.56593452474
0.840638775404
0.530086093858
0.402875142446
0.346582950662
0.308854332419
0.272759574351
0.265782510513
0.354898417712
0.621657862337
3443.89520247
932.889800542
278.845176697
95.3372900463
39.7865922208
20.8782920978
13.0328727772
8.53853098608
5.22880965879
2.89164749142
1.52022121206
0.845352635258
0.552076047549
0.429947664807
0.372095441039
0.329598057315
0.28748850546
0.278784564582
0.361838755966
0.634466104659
3450.55774562
932.462867476
278.491470438
93.9728973986
38.2459634857
19.549209635
11.9744976615
7.73802720599
4.70541571613
2.62643626518
1.42327244376
0.828541771834
0.565175304297
0.452682401846
0.394824649913
0.350589225549
0.304782914276
0.296748006176
0.375178589332
0.655293976004
3514.92772099
944.918572233
280.209464755
93.0161960307
36.8668887901
18.2319690343
10.8095221926
6.80136000659
4.08937351492
2.31180066429
1.30016321576
0.797553438024
0.569474373692
0.469775882472
0.415972290326
0.372136912688
0.323672946696
0.31836640464
0.392440973165
0.679148516742
3681.23628146
977.466036757
286.078550546
93.3194882361
36.1226144823
17.2444137144
9.77797359111
5.91720434252
3.50260943254
2.00790404586
1.17554657556
0.759303494971
0.565444463226
0.481085654126
0.435301238528
0.391925806259
0.343159268945
0.34173494565
0.411415460105
0.699263171744
3856.84816981
1016.51824514
293.898212928
94.8857298843
36.3134635516
16.8362145448
9.07564540666
5.23508558637
3.03392461945
1.758776667
1.06775948185
0.717441811172
0.553245248264
0.48550606937
0.449965006153
0.408232635806
0.362821662092
0.364389570013
0.42802971692
0.707518363265
4015.94682491
1048.60972945
301.57117231
97.9055397838
37.7639161563
17.2155932438
8.84363102078
4.844905635
2.73170228125
1.58951811981
0.985919075924
0.67728922916
0.533593119751
0.480184713988
0.454190169402
0.419397704213
0.381858597565
0.383243631545
0.438480966648
0.697928689444
4082.24624006
1061.05214219
307.074599848
102.320672562
40.5616676596
18.460140326
9.13888794468
4.7774619568
2.61219574301
1.50929552409
0.935822370185
0.645805610281
0.510189075082
0.464035241637
0.446533530661
0.423464864828
0.396899785705
0.395024817428
0.43973858074
0.666589485547
4051.68700415
1051.69828855
310.394862668
107.807046124
44.4483999374
20.4324479818
9.91019262117
5.01525057563
2.670296797
1.51539561427
0.928606193854
0.630559647896
0.490382437858
0.442442019484
0.430102784004
0.418606492217
0.402563138956
0.397538599359
0.431073148066
0.614660660877
3835.71987494
1021.35757041
311.947452304
114.251659955
49.1659057151
22.9000797737
11.0471556767
5.5186470077
2.89345871255
1.61062211695
0.966197032107
0.636951728922
0.481251962629
0.424413614924
0.410700977306
0.40484952521
0.396334087596
0.390982309824
0.414924134017
0.551257080314
3511.35563031
977.265508744
313.118774064
121.215800438
53.8543715797
25.4060308672
12.3872336286
6.24110495529
3.272379004
1.79911738678
1.05224362142
0.668595381067
0.485427780332
0.413155426197
0.391768606778
0.385052398893
0.380617051494
0.377355848869
0.394722444969
0.489350676392
3324.04753932
955.920816919
317.833478834
126.03040923
57.0038959289
27.6669234591
13.9388127814
7.21212474931
3.83150101471
2.0988387107
1.20027095293
0.733831007483
0.507536741515
0.41175976041
0.377611717484
0.365794901637
0.361714996746
0.361056167575
0.374281250431
0.437584750239
3511.18687542
988.90050433
321.521452716
125.433457783
58.472056759
29.9010976643
15.800684976
8.46836862015
4.59129270186
2.52633357583
1.42467020134
0.842565942205
0.554774135096
0.426762441853
0.375463889482
0.355142787765
0.348024186063
0.347988207526
0.358671589192
0.399928777809
4292.35820922
1064.81447651
322.391957672
124.150837282
59.8023470965
31.9821786377
17.6386014016
9.79019943437
5.44051834024
3.03546874532
1.71067511109
0.992330043789
0.628846153355
0.461680523552
0.3902003897
0.359051838642
0.345893665202
0.343376330088
0.350645494261
0.376316865366
4430.02473787
1092.84682086
326.740102731
125.365901552
60.7622668308
33.2048482939
18.8534965107
10.7718838265
6.13934826405
3.49827035459
1.99663518598
1.15603793703
0.718937903315
0.512473461428
0.420703346588
0.378151768282
0.357180811695
0.349228590078
0.351337830142
0.365899139009
4356.28628866
1066.76393895
319.322262179
122.371088951
59.2818453134
32.7863235456
18.9869053547
11.0900884419
6.46800014956
3.77533377361
2.20081891269
1.28999796284
0.80353097672
0.567972220734
0.46001421955
0.407525514032
0.378739985219
0.363646525459
0.3588609547
0.363653267944
4423.23373078
1034.46001765
303.300442686
114.454183662
55.0244223672
30.5793809532
17.9344423187
0.00125251616672
0.00163924745441
0.00254848385701
0.00457247444388
0.00906410546718
0.0185524848428
0.0361291664057
0.0626471288897
0.0952550781355
0.130381630395
0.166583044578
0.205467757433
0.253014744781
0.324451090918
0.461263595054
0.789584988753
1.69157160842
0.00431648840273
0.0023562158053
0.00138303157915
0.00140645324552
0.00188088288571
0.0030134655489
0.0055268476407
0.010983132455
0.0220132106442
0.0411681192109
0.0681809317916
0.0997739895494
0.132801756216
0.166287298677
0.202030670751
0.245850325229
0.312209612401
0.440576597705
0.753164974153
1.62733116258
0.00703316104331
0.00288682020928
0.00160267448593
0.00159694659522
0.00218530644746
0.00360366117318
0.00671979752014
0.0132912766696
0.0259184657864
0.0464173135415
0.073532436378
0.103852371889
0.134704631084
0.165514829147
0.198228123834
0.238494539839
0.300032665996
0.420270144664
0.717431336902
1.56759186336
0.0140504894806
0.00347054992779
0.00189416824394
0.00183369404701
0.00256814091083
0.00434693856366
0.00819016667324
0.0160114261549
0.0302148350037
0.0517543072856
0.078602309768
0.107442346329
0.136075047048
0.164265473237
0.194064168001
0.230948713586
0.287918839911
0.400343767516
0.682199731674
1.51032752961
0.028498019964
0.00414768059906
0.00229100582018
0.00213016014578
0.00304917680838
0.00527535824253
0.00997599708166
0.0191501226156
0.0348268388261
0.0570630407463
0.0833149390028
0.110517117446
0.13691459177
0.162553612721
0.189556823504
0.223228494499
0.275880201929
0.380814935644
0.647339540154
1.4533550063
0.0465777118643
0.00505644752276
0.00284734337409
0.00250553000938
0.00365398016919
0.00642641722813
0.0121139501166
0.0226975317582
0.0396672638579
0.0622432107049
0.0876174364041
0.113066228505
0.137235757633
0.160401844594
0.184731689515
0.215357315758
0.263937773559
0.361719823339
0.612832774187
1.3948189533
0.0756278799124
0.00664058748176
0.00366298376706
0.00298714320615
0.00441408011418
0.00784137334147
0.0146337353965
0.0266224775155
0.0446387290504
0.0672052249771
0.0914673766594
0.115082966803
0.137050707644
0.157831116216
0.179612895175
0.207357980046
0.252111976877
0.343102510457
0.578753805525
1.33325856958
0.1206261367
0.0101700889329
0.00491010907953
0.00361151682756
0.00536395685448
0.00955805387929
0.0175455739197
0.0308625537853
0.0496289019396
0.0718600126554
0.0948212766802
0.116555833642
0.136365669865
0.154856922642
0.174220008525
0.199248980857
0.240418562325
0.325006488788
0.545261007202
1.26773439168
0.176896361678
0.0183786113412
0.00681357221713
0.0044245234067
0.00653524692047
0.0115998179338
0.0208265973221
0.0353191098729
0.0545117171687
0.0761182766861
0.0976357154163
0.117472620081
0.135186589729
0.151495171572
0.168573173992
0.1910488401
0.228870577691
0.307474016637
0.512598793217
1.19804126632
0.244357132143
0.0361001467436
0.00951232898134
0.00549052517003
0.0079522959289
0.0139674887218
0.0244175111545
0.0398681668009
0.0591632396743
0.079904495124
0.0998816279942
0.117834550763
0.133531970969
0.147773142823
0.162702324111
0.182783876996
0.217486221872
0.290550055372
0.481093516311
1.12491011475
0.322080532072
0.0672847012308
0.0127657532653
0.00692597131519
0.00963376430222
0.0166407878153
0.0282356236103
0.0443867120584
0.0634867174704
0.0831767066435
0.101560742905
0.117669510258
0.131442967561
0.143737030964
0.156653141023
0.174494097717
0.206294740191
0.274285581409
0.451131018003
1.05004988813
0.412203367947
0.0932866768695
0.0157918421583
0.00896425592282
0.0116035657769
0.0195913384943
0.0322006605875
0.0487834148349
0.0674342936244
0.0859396707241
0.102713285798
0.117035777889
0.128984340035
0.139451332123
0.150486081882
0.166232794308
0.195337876617
0.258734508768
0.423107379047
0.975941131541
0.498725816482
0.144416503566
0.0190343712296
0.0119695216233
0.0139231613115
0.0228101168016
0.0362655426017
0.0530207177178
0.0710138312811
0.0882421403351
0.103410478354
0.116012295712
0.12623406958
0.134988852647
0.144267466551
0.158059326921
0.184664150706
0.243945165924
0.397366508685
0.905406714756
0.557705427719
0.208796748513
0.0289118675298
0.015692903639
0.0167271507447
0.0263208195166
0.0404190645599
0.0571018630672
0.0742642113652
0.0901491341056
0.103728235151
0.114675376538
0.123263426933
0.130413918262
0.138055258533
0.150026651978
0.174317868843
0.229947325607
0.374141714945
0.84111869112
0.608522305027
0.271420363236
0.0524775139459
0.0173108833494
0.0202193404134
0.0301619920069
0.044653129928
0.0610305288172
0.0772158249128
0.0917090579777
0.10372182607
0.113079861009
0.12012311598
0.12577197433
0.131890651588
0.142173544422
0.164331128065
0.216745283694
0.353533156937
0.785285969189
0.648805299082
0.328150555453
0.0697873304773
0.0153776923149
0.0244202786306
0.0343886049708
0.0489479627011
0.0647954935691
0.0798809548783
0.0929507951158
0.103427850586
0.111263867646
0.116849193225
0.121095643987
0.12580375589
0.134529888401
0.154730107635
0.204328908763
0.335532147041
0.739610818144
0.679431685318
0.37937551568
0.109971413869
0.0167818341835
0.0277489420061
0.0391125295299
0.0532970414488
0.0683911688394
0.0822750494959
0.0939050207714
0.102883797884
0.109265470783
0.113476630898
0.116415795191
0.119823680595
0.127129457781
0.145557276239
0.192719141335
0.32006902171
0.705307304936
0.703536057656
0.427775412233
0.161763586439
0.027384113033
0.025947223548
0.0444172557373
0.0577550245479
0.0718475260317
0.0844389235036
0.0946204108483
0.102138595808
0.107128251442
0.1100410789
0.11176096414
0.113976961904
0.120004910554
0.136858527188
0.181938825991
0.307011095983
0.683091326278
0.721661146943
0.488144068111
0.225137241881
0.0408429535069
0.0197231546753
0.049421790129
0.0624876203389
0.075248040797
0.0864433836246
0.0951608248872
0.101244883716
0.104890367175
0.10656610703
0.107143869574
0.108271523997
0.113167166502
0.128650675855
0.171975546794
0.296126460477
0.67306353731
0.739084287954
0.557890240198
0.299057423252
0.0644205853414
0.0184308061416
0.0490726433032
0.0677367337024
0.0787404437175
0.088384217185
0.0955945604444
0.100246398118
0.102571501486
0.103049794261
0.102545104748
0.102674931011
0.106578039183
0.120889689092
0.162740980259
0.286984252205
0.674440730136
0.758251665522
0.627708917501
0.370036149526
0.103264271899
0.0260939829648
0.0376999905275
0.0731165666922
0.0825518298099
0.0903833737876
0.0959926865892
0.0991777678243
0.100175601591
0.0994706587536
0.0979220661673
0.0971301823773
0.100163308399
0.113449619444
0.153954328819
0.278833082432
0.685431966148
0.782016113543
0.700853765276
0.431825119602
0.150327391859
0.0345865265972
0.0258971742921
0.0751414880589
0.0869707847631
0.092593045736
0.0964367912495
0.0980794477735
0.0977150277762
0.095822492256
0.0932591839236
0.0916169641958
0.0938691736801
0.106186560383
0.1453094151
0.270746302706
0.703034415331
0.815667038054
0.774889816903
0.495966712934
0.20257034139
0.046752714329
0.0240058254794
0.0669123829937
0.0920220559794
0.0952128508324
0.0970469708925
0.0970383064366
0.0952650002052
0.0921827079755
0.0886449815708
0.0862144961652
0.0877282487209
0.0990566942118
0.136551663986
0.261616104853
0.722232007625
0.85950307552
0.852651164182
0.567422286362
0.26038692972
0.0694000865643
0.0298308318969
0.0513662459714
0.0965773277546
0.0985452137079
0.0980407953726
0.0962549845608
0.0930421766537
0.0887987352868
0.0843512444256
0.081168266586
0.0818936032383
0.092008852833
0.127188876041
0.249608442167
0.735286048915
0.911631058837
0.937855186558
0.65097299052
0.32656823089
0.100385921909
0.040836057067
0.0398482831377
0.0977956549071
0.103006128995
0.0997903609233
0.0961076941928
0.0914781812316
0.0861663564264
0.0809092799153
0.0770188541574
0.0768335795212
0.0853208906337
0.117112439004
0.233238609316
0.732562230529
0.968922869344
1.0305622284
0.749200681853
0.404399712508
0.142465293823
0.0524943248324
0.0361842931359
0.0924436372081
0.108956019124
0.102900478948
0.0972538822929
0.0913481348753
0.0851904737905
0.0793423770442
0.0748894044383
0.0738250658241
0.0805177181537
0.108127047126
0.213884964764
0.705602326113
1.0243160419
1.12586957255
0.861100683731
0.4914184835
0.1977674747
0.0655556940325
0.03953297523
0.0806461393397
0.116291222804
0.108536331991
0.101071334436
0.0943526361678
0.087933669816
0.0821062732442
0.0776986409878
0.076381968031
0.0820402157145
0.106597919686
0.201759952869
0.655437819184
1.0661085224
1.21450792258
0.981804441884
0.58596529413
0.267963254999
0.094995373603
0.0505456093447
0.0678943262695
0.124122706076
0.119285290675
0.110834311706
0.104642142112
0.099548122557
0.0954557963678
0.0929533855138
0.0935124839774
0.100736644664
0.125625735386
0.212952089017
0.593427726212
1.08035890727
1.28509770931
1.10391894714
0.694120445446
0.356351485375
0.142608670761
0.0724607948766
0.0606595253019
0.129930708285
0.139655821228
0.132511573037
0.129654177192
0.129234570334
0.13061506419
0.13415818549
0.140919661594
0.152923437536
0.177801298835
0.249632202316
0.509996403692
1.0561307453
1.32466329775
1.21643317144
0.822180848979
0.469251647101
0.214244784035
0.102403792557
0.0639151617509
0.127949578879
0.172541456055
0.171799045705
0.176059196001
0.185517402995
0.199115518921
0.217265664948
0.23980216288
0.262840025066
0.280411880514
0.304642853541
0.383674212225
0.990626642003
1.31647369154
1.30630423322
0.969642421108
0.621196757623
0.321612738685
0.142664655133
0.0875023511215
0.113203084043
0.208538698051
0.229196899033
0.243729532253
0.268719975901
0.303383105633
0.34926370024
0.409158732356
0.473392716323
0.506831249995
0.438059978019
0.277780578643
0.889066947187
1.2470695914
1.35095087523
1.1217093622
0.794268691734
0.482045579496
0.251259069559
0.153427004858
0.104606411344
0.206568526946
0.29832860655
0.333454808018
0.380668513343
0.447852641229
0.538438367023
0.645294321168
0.776976793509
0.93742158665
1.08070073835
1.08673401721
0.768326267918
1.11882710504
1.31691870108
1.22783560228
0.981210862822
0.712727312063
0.43754560928
0.244190123873
0.175493951829
0.151622206599
0.305593395685
0.453833870034
0.554641398095
0.680854796233
0.831087114621
0.997779457119
1.18398476739
1.44260395726
1.91184034458
2.63753850632
0.647407229289
0.956809851531
1.19935301168
1.23617786613
1.10075603614
0.904658960538
0.706466103712
0.500847090493
0.3294028413
0.271672927355
0.207820014602
0.322833096325
0.643740855265
0.922712496121
1.07027068221
1.11366957371
1.2209448598
1.96044622725
2.78216254735
4.71571068311
0.542786081805
0.798330397752
1.03760954937
1.15126448578
1.11779649695
1.00107870694
0.87016457173
0.763601522005
0.658622931267
0.559395924141
0.45751142408
0.375467476141
0.37219476423
0.364679483526
0.547656620763
0.615629194724
0.640084370104
0.587573301934
3.52217309698
6.84931699347
0.46657199261
0.665077302238
0.872841135832
1.01044596742
1.04151394023
0.995362349838
0.928249272299
0.88560247922
0.871563338893
0.858030668174
0.814529098207
0.742732708984
0.657632268764
0.579786044837
0.595636890246
0.891360217251
1.06207688941
0.496522449169
3.38186525189
8.24780352689
0.418310908487
0.54936153348
0.724137249086
0.852179250106
0.906208877658
0.904112107318
0.889997820575
0.895891597124
0.914550772094
0.911760333211
0.874694189008
0.818449438386
0.76432562674
0.78371636306
1.09786657913
2.1356281295
2.18104102344
0.615117064385
1.29513293067
8.35285674297
0.390023053939
0.466719238237
0.594893856265
0.700694387007
0.754283319202
0.773512495665
0.789463802729
0.819481966236
0.859823671922
0.88696874646
0.89071675292
0.887993248649
0.923828998212
1.15811799431
2.28712229489
8.15755717723
2.86832278778
0.528110115405
2.43274433859
7.98272640092
)
;

boundaryField
{
    emptyPatch
    {
        type            empty;
    }
    minY
    {
        type            fixedValue;
        value           nonuniform List<scalar> 0();
    }
    maxY
    {
        type            inletOutlet;
        inletValue      nonuniform List<scalar> 0();
        value           nonuniform List<scalar> 0();
    }
    water_to_cooler
    {
        type            epsilonWallFunction;
        blending        stepwise;
        value           nonuniform List<scalar> 
38
(
17.1876411235
16.4142486206
15.6670697732
14.9386371264
14.2229870132
13.5160496998
12.8155165745
12.1211014508
11.4350754481
10.7626699812
10.111856756
9.49232224116
8.91390008552
8.38500675649
7.91198889265
7.49924090893
7.14928938971
6.86366776644
6.64123357817
6.47415771667
6.34702534794
6.23943642596
6.12044528787
5.93597947749
5.63756155573
5.24253275655
4.9678317922
5.2998847435
6.7571443369
9.81965569977
15.0675538276
26.356829785
41.417941948
57.6860994575
71.6786441495
79.3178255058
79.1583441763
77.7106452225
)
;
    }
    water_to_heater
    {
        type            epsilonWallFunction;
        blending        stepwise;
        value           nonuniform List<scalar> 
60
(
8983.25446474
8983.25446474
8885.13450323
8837.87996791
8891.44473834
8891.44473834
9064.12017468
9064.12017468
9414.16296523
9414.16296523
9787.9631422
10106.250788
10262.7693188
10262.7693188
10267.111161
10267.111161
9927.37109473
9927.37109473
8872.5834789
7748.84796914
7450.63268598
7450.63268598
8079.40834311
8079.40834311
9462.58221878
9462.58221878
10916.3858521
11270.902126
11137.8805584
11137.8805584
10824.2180203
10824.2180203
10548.8808072
10548.8808072
10290.848565
10143.0350215
10099.0683749
10099.0683749
10279.2201579
10279.2201579
10658.9560887
10658.9560887
11121.1056917
11442.6345068
11464.3214695
11464.3214695
11134.420109
11134.420109
10441.0849946
10441.0849946
9707.55013913
9474.36273475
10305.4274704
10305.4274704
12291.3940989
12291.3940989
12657.7402568
12657.7402568
12297.9102954
12153.0757979
)
;
    }
    procBoundary3to1
    {
        type            processor;
        value           nonuniform List<scalar> 
41
(
10.6483719278
6.34311341931
3.79905137187
2.26992635544
1.35819449342
0.86112911238
0.614559349967
0.497714067575
0.438345500367
0.403126656665
0.380933292609
0.36823644801
0.363474148888
4902.6685243
1059.72617037
293.932780663
105.787235513
49.5253861673
27.3094585413
10.6483719278
16.0746231675
0.372250750309
0.410298982446
0.482383364549
0.562692162034
0.609794079862
0.636527021758
0.664061838757
0.705097907641
0.763215163313
0.824940339951
0.881114174257
0.981948152966
1.28899139381
2.36540333029
7.48504646642
67.4105548088
2.74620580088
0.620703846021
3.86131178193
8.40859404361
)
;
    }
    procBoundary3to2
    {
        type            processor;
        value           nonuniform List<scalar> 
41
(
2970.99309393
837.289425638
258.190041877
90.8256139904
37.294477406
16.5003921835
7.24448317156
3.25856549988
1.59021223819
0.89111660012
0.588861796792
0.440949613738
0.360086465679
0.331087665434
0.349806833507
0.412742314301
0.424839760604
0.342697267663
0.200080488767
0.0326222947708
0.00112799771409
0.00144760102384
0.00218393720684
0.00381722099551
0.0074958423974
0.0155571500039
0.0314098374975
0.0570427004345
0.090357803339
0.127471624671
0.166413700351
0.208547216399
0.259999269764
0.336774270717
0.482366096624
0.827077475683
1.76438280653
0.00358376454849
0.00189350864696
0.00121305846354
0.00121305846354
)
;
    }
}


// ************************************************************************* //
