/*--------------------------------*- C++ -*----------------------------------*\
| =========                 |                                                 |
| \\      /  F ield         | OpenFOAM: The Open Source CFD Toolbox           |
|  \\    /   O peration     | Version:  2312                                  |
|   \\  /    A nd           | Website:  www.openfoam.com                      |
|    \\/     M anipulation  |                                                 |
\*---------------------------------------------------------------------------*/
FoamFile
{
    version     2.0;
    format      ascii;
    arch        "LSB;label=32;scalar=64";
    class       volScalarField;
    location    "0.21/water";
    object      epsilon.gas;
}
// * * * * * * * * * * * * * * * * * * * * * * * * * * * * * * * * * * * * * //

dimensions      [0 2 -3 0 0 0 0];

internalField   nonuniform List<scalar> 
1503
(
17.8159133964
2.8399739699
0.528024176517
0.125703463685
0.0391178103062
0.00757299329995
0.00199877826323
0.000911580087049
0.000608036893196
0.000499800019515
0.000454625229124
0.000433711854686
0.000423196851637
0.000417456890798
0.000414060913236
0.000411914669412
0.000410500502752
0.000409553925435
0.000408926871561
0.000408530523084
563.321767209
108.877425066
18.517368029
3.8582057856
0.723051147798
0.200206069234
0.044056407971
0.00806776937386
0.00201388459614
0.000895290330843
0.000600100593366
0.000496045370599
0.000452594820283
0.000432461687877
0.000422272539509
0.000416615892333
0.000413183898057
0.000410962436395
0.000409485487569
0.000408522176576
792.186948671
185.922226569
41.759816277
8.94790425844
2.1296619809
0.484045549806
0.134452967414
0.0303039001256
0.00624955505632
0.00183758949564
0.000893849101617
0.000613610374422
0.000506901452127
0.000460039440415
0.000437581175632
0.0004259630379
0.000419414615749
0.000415391601243
0.000412765088781
0.00041102634279
1009.96228672
251.435593576
62.7385096194
15.3437382589
4.18849322042
0.92376301406
0.244005419754
0.0696315702543
0.0155714688711
0.00370000798394
0.00138297681533
0.000790765225493
0.000585617201306
0.00049927963497
0.00045880569207
0.000438455308994
0.00042749650263
0.000421099733644
0.000417064780165
0.000414404667614
1099.25796078
289.886866433
77.5734593299
20.9351899756
5.40773092113
1.64138609243
0.354517420901
0.109429548511
0.0316444420898
0.00710837031751
0.00214925595487
0.00103574716266
0.000688483498554
0.000549609382151
0.000485701258467
0.000453898046936
0.000437122619034
0.000427675094998
0.000421936094508
0.000418228571371
1083.85717299
302.965081798
86.6326719057
25.2450212283
7.26073713718
1.93547106244
0.595495938232
0.135341939432
0.0496318502706
0.0131416951199
0.00336917139413
0.00136885900277
0.000816970061342
0.00061045025495
0.000517793076242
0.000471995643435
0.000448002151962
0.000434743537269
0.000426929239418
0.000422017623704
1037.69742921
300.281568105
90.2024012636
27.9726075136
8.73570444119
2.62235443019
0.697401708345
0.205147467434
0.055220089147
0.0213048085779
0.00534739007711
0.00182678634361
0.000974537669155
0.000681453403705
0.000554523114603
0.000492408261882
0.000459934740951
0.00044213018074
0.000431844634375
0.000425550577153
1018.29786626
295.530739587
91.0232121073
29.5339861598
9.80100639402
3.18841937929
0.957186308838
0.258799473913
0.0716212849724
0.0252625234749
0.00829416874959
0.00246986316643
0.00116713190051
0.000762455954504
0.000595174648078
0.000514614887252
0.000472626548534
0.000449673725985
0.00043657069065
0.000428742619349
990.03353259
289.131887825
90.7825900127
30.4444830826
10.5150245308
3.60371849497
1.17709624654
0.350403766848
0.115506223662
0.0295851910285
0.0114158745232
0.00342210293226
0.00141329322227
0.000855913240646
0.000639737391881
0.000538303442444
0.00048585369931
0.000457288272512
0.000441130896868
0.000431654763323
941.713598551
281.214447669
90.390692063
30.9709903516
10.9065089972
3.83732168514
1.33292377875
0.452233185784
0.144571008499
0.0530909793728
0.0138674708889
0.00489688988884
0.00178154307313
0.000975559861609
0.000691484562857
0.000564406871822
0.000500050148743
0.000465279107815
0.000445747863401
0.000434466308513
909.73468517
279.712835319
91.5047969582
31.4537473176
11.0621102941
3.94225627196
1.44705383195
0.548720640412
0.21201046827
0.0865106868277
0.0241766930504
0.00787980278077
0.00256654232498
0.00116921013936
0.000760494453813
0.000595709679144
0.000516205840473
0.0004741492776
0.00045078947732
0.000437470907163
960.870972977
297.319131254
96.1735958394
32.2533935395
11.1928985681
4.06251302285
1.57388524479
0.65714658203
0.291879809462
0.132852316509
0.05847054355
0.0139419735394
0.00448570494442
0.00154394578948
0.000865330537521
0.000636902338831
0.000536008317553
0.000484737965406
0.000456772250375
0.000441020441637
1144.86455052
339.99006124
104.312851952
33.6962095714
11.6601462094
4.35712343505
1.76948222196
0.792994078532
0.387347787452
0.205011028413
0.0963437770801
0.0294903818778
0.0084854579114
0.00239768827511
0.00104723267885
0.000696393392618
0.000562029293708
0.00049811781536
0.00046424386552
0.000445428403802
1409.17247261
386.23600448
113.564713146
36.2332069735
12.6307043519
4.82767631811
2.02506369616
0.942717475713
0.492795084822
0.286243614116
0.166731606716
0.0754235632195
0.0136545355927
0.00428369756206
0.00139418105091
0.000787808613648
0.000597638082871
0.000515446588699
0.000473673707165
0.000450901736569
1478.43054334
407.683684908
120.402433812
38.5698181539
13.5593151318
5.27067863778
2.26818961351
1.08806696076
0.591925784073
0.366405151133
0.24728933018
0.124868553405
0.0327833342448
0.00664363927904
0.00208934429516
0.000934220607731
0.00064728278767
0.000538016001916
0.000485485683013
0.000457578144664
1491.30300051
415.092356258
123.6108924
39.9402163454
14.1896189273
5.59537288484
2.45590526608
1.20952244537
0.677992496497
0.440028328208
0.321723297879
0.204576447705
0.0669453276985
0.00910771760354
0.00319772575476
0.00116837463112
0.000716711991808
0.000567490755269
0.000500225195339
0.000465647262153
1490.57594574
416.772233439
125.132227711
40.7830158049
14.6042265264
5.81046938922
2.58757613734
1.30397305523
0.751918269657
0.501559814264
0.386975745193
0.278481880336
0.123668592706
0.0205404118703
0.00415532275025
0.00153923861704
0.00081554411544
0.000606482581696
0.000518752971607
0.000475457145471
1492.68662425
418.31333077
126.094912132
41.2432149628
14.8135351413
5.92435103363
2.67047243562
1.37615417246
0.816399315887
0.55762869956
0.44294661148
0.341775485038
0.18569945
0.0407613212467
0.00451517500688
0.00205816438909
0.000960046157823
0.000659086456643
0.000542335058164
0.000487534930446
1527.12276207
425.238061593
127.554219338
41.6223404728
14.9506562534
6.00136671884
2.7336739232
1.43875883971
0.873038903226
0.611838673128
0.496384404599
0.399858769996
0.242758612283
0.0674075133167
0.00653732156838
0.00284786993282
0.00118924990562
0.000732277739857
0.000572736217356
0.000502539117313
1576.27982845
437.425939592
130.313602964
42.3358906145
15.1925721446
6.11208804876
2.80842221693
1.49419989904
0.921078697027
0.668163368512
0.555460026363
0.46089008709
0.298362131029
0.109579121123
0.015105497834
0.00444706154473
0.00158284959165
0.00083736909873
0.000612304808257
0.00052117427983
1640.71469782
452.781040798
134.351267277
43.6057273559
15.6591593934
6.30069873037
2.88951343914
1.53647448949
0.967915430516
0.729337601088
0.619642274968
0.525303728761
0.363279202472
0.16358686323
0.0372560660421
0.00773211031764
0.00232091698789
0.000995308861133
0.000664420816817
0.000544149802556
1695.32890603
466.247637624
138.420607915
45.1774727723
16.2892279673
6.52591053298
2.9581253189
1.57117809196
1.01337564217
0.781701456002
0.672695839851
0.588436002364
0.452169096152
0.240088772386
0.0814416109081
0.0143621751234
0.00388429771934
0.00125051190541
0.000734650465091
0.000572315446351
1736.53497245
475.108789403
142.304578513
47.0356401656
17.0070251886
6.71463578608
2.9795537056
1.57757237662
1.03021884821
0.796253999874
0.69227978454
0.630312460869
0.533942455622
0.344741663011
0.125722947586
0.0260778028941
0.00715245248686
0.00169236572631
0.000832283463876
0.00060697647772
1689.9908967
473.484422585
146.170188668
49.2990699036
17.6850298269
6.73710886113
2.8946638479
1.52527239667
0.999040417899
0.769330581649
0.670374716413
0.629769291423
0.563533324663
0.441976584831
0.21856723639
0.0584751870401
0.0116588333287
0.00250959969027
0.000973767663883
0.000650349455188
1563.48334481
468.756785551
151.765096686
51.6849204092
17.8864255367
6.45980317633
2.74730676174
1.45831402525
0.945862163747
0.71526637399
0.615742763325
0.586849896618
0.551895961419
0.464469029575
0.3078212439
0.0949898636914
0.0139876419331
0.00400866379867
0.00118869614685
0.000706001922755
1544.43882181
486.772583256
160.904416084
53.7456214188
17.6315802369
6.33801233073
2.71039177847
1.42149527098
0.895087494381
0.655736638233
0.553053531737
0.524036811643
0.510607893069
0.454254150047
0.344152773492
0.159882249331
0.025446213896
0.00579187415134
0.00152671446433
0.000779439588478
1659.6663852
529.30881641
171.884698766
55.7869260576
18.1435084256
6.60452014249
2.82442106905
1.44347414822
0.871172942065
0.615773936468
0.506429082982
0.466452245265
0.459484220483
0.428498433798
0.34807962714
0.214065112978
0.048075938745
0.00606309944085
0.00205031386529
0.000878975585835
1931.36396504
592.023269549
183.714658247
58.7182866838
19.7114145409
7.2789577107
3.10087524987
1.53648628968
0.888485589229
0.608171995435
0.486359846115
0.429663382372
0.415936083501
0.401547783799
0.348841465892
0.254751446589
0.0843591336074
0.00741977389184
0.00274546575682
0.00101864535511
2277.93016881
662.004563745
197.482387715
62.8475589193
21.8100987297
8.31057659436
3.53098035891
1.70084659624
0.949911877185
0.632861171322
0.491138384913
0.417335700552
0.390923604635
0.384900453667
0.357478684973
0.292620515838
0.134061578901
0.0158227824693
0.00339653214635
0.00122433175104
2598.33637878
722.820561406
210.464031126
67.1137048854
23.8464368923
9.31944438986
3.99938455423
1.90822652542
1.04551909795
0.681780272163
0.514268887727
0.425572830791
0.387091304415
0.383776560393
0.378473228036
0.330899783534
0.190591763547
0.0343484743603
0.00382359095611
0.00153338092367
2883.74895139
771.100848078
221.611181071
70.921799566
25.5071817033
10.121409108
4.39468458791
2.10322259118
1.15004288752
0.741369299803
0.547537913127
0.446948912304
0.400843001908
0.397787248151
0.411683433138
0.376134722113
0.254172802165
0.0637759303899
0.00470598730429
0.00198010146418
3049.06166041
802.636972905
230.358733394
73.810975782
26.608908729
10.6553792652
4.68243341008
2.26621503441
1.25087030624
0.80313220793
0.585649050657
0.476034236508
0.425855565507
0.424020345459
0.453827358771
0.429216188509
0.322372528647
0.115291001137
0.00849289379707
0.00255985267726
3144.15809189
818.345481923
233.69900945
74.6864784232
26.9849783545
10.9217028195
4.86888790452
2.39503045491
1.34059945228
0.8600638041
0.624138085744
0.509496480984
0.458014322625
0.459079206895
0.501233382242
0.483680055297
0.375411268428
0.175882524479
0.0212750327603
0.00313521684022
3258.8717705
836.354281808
236.46653541
75.0690896586
27.1540841643
11.0875314671
5.00204751778
2.49780488605
1.41514725778
0.907164002572
0.660047465322
0.545497031281
0.495454016073
0.501070183693
0.551339982999
0.536400264922
0.42235378722
0.237594398755
0.042430135673
0.00361608044803
3375.34486702
856.604198882
239.91630514
75.7360347554
27.404725325
11.2388160322
5.10435577716
2.57825166713
1.4702628053
0.94159898445
0.692229404272
0.583340103798
0.538089361125
0.550168536155
0.602748165467
0.587692203171
0.471675317814
0.296918368152
0.0729909782753
0.00471861385853
3502.73914083
878.436311084
244.651432174
77.0261476089
27.854544682
11.4162438698
5.19337998835
2.64015810497
1.50297121133
0.963385659481
0.721032733215
0.622909194142
0.586339334165
0.606210340623
0.65281798496
0.637887015404
0.527393019277
0.357324756517
0.119055980835
0.0086672310056
3595.32939373
897.395606376
249.507457672
78.7415989112
28.4854589002
11.6323892753
5.28280845336
2.68067620046
1.51146348488
0.974549604578
0.747140967335
0.663449340842
0.638991828136
0.665482738282
0.698864292656
0.68910286477
0.595556176553
0.426955001163
0.175639637907
0.0205205140944
3712.79515272
912.642112567
253.667830655
80.4639431738
29.132126213
11.8373593297
5.3520472971
2.68044807717
1.494306625
0.97660437873
0.769897476134
0.702158986635
0.690627525427
0.7184962589
0.740017160771
0.744912295572
0.684851017345
0.523307999438
0.24658139008
0.0468506842083
0.000408313838906
0.00040823576073
0.000408262060645
0.000408376866527
0.000408581214104
0.000408893513907
0.000409359620061
0.000410081653875
0.000411288213524
0.000413497360376
0.000417888819537
0.000427165314036
0.000447677459898
0.000495465503283
0.000617998235265
0.00100258263015
0.00279431462346
0.0181886598169
0.23966203523
4.15361542486
0.000407958132174
0.000407708338226
0.000407699088503
0.000407893854713
0.000408299809827
0.000408981890075
0.000410110691712
0.000412076269834
0.000415730605594
0.000422885304002
0.000437351138082
0.000467309144108
0.000531685788758
0.000681518290904
0.00109303303992
0.00262040342725
0.0112915325311
0.0801133704366
0.754420916869
7.24433264392
0.000409957702969
0.000409423767476
0.000409308211941
0.000409554225336
0.000410193478975
0.000411391849168
0.000413563117737
0.000417602614927
0.000425333117631
0.000440360293267
0.000469863731007
0.000528987238775
0.000653851827574
0.000949009406413
0.0018077542093
0.00524520576472
0.0245516470674
0.158372182134
1.24000239023
8.20348012261
0.000412721216014
0.000411811009857
0.000411520570995
0.000411789923049
0.000412714874908
0.000414637431255
0.000418336921476
0.000425381595252
0.000438759519048
0.000464095147465
0.000512366063858
0.000607097131361
0.000806974522424
0.00129212442957
0.002778059198
0.00898115363385
0.0426748862803
0.262947176204
1.68544229884
8.20182811495
0.000415865754075
0.000414538126307
0.000414055097363
0.000414379625206
0.000415721359994
0.000418671951231
0.000424466310469
0.000435432433779
0.000455796703918
0.000493327015896
0.000563268173971
0.000699295297733
0.000989204416143
0.00171578533461
0.00404765365515
0.0140429086641
0.067294359606
0.393886818655
2.03067305793
7.89994513091
0.000418921074435
0.000417174030672
0.000416533272366
0.000417011159423
0.000418976437137
0.000423324641902
0.00043179301255
0.000447496014517
0.000475928647776
0.000527156722782
0.000621324903205
0.000804468967572
0.00120159077388
0.00223291917063
0.00569273038544
0.0208476779911
0.101116946591
0.53951642557
2.25650450033
7.54851106117
0.000421676502482
0.000419535433113
0.000418814308694
0.000419594136865
0.000422435590429
0.000428568232377
0.000440245592775
0.000461371905909
0.000498756173489
0.000564998762618
0.000685973537113
0.000922845252417
0.00144824199816
0.00286672616917
0.00783591661422
0.0300475118716
0.145594734042
0.679988605243
2.37623361517
7.21008409822
0.000424069788459
0.000421581010401
0.000420886767541
0.000422146641958
0.000426132072762
0.000434417483048
0.000449771253595
0.000476895795775
0.000524001571008
0.000606557519768
0.000757225289925
0.00105583589971
0.00173652718123
0.00365309135758
0.010655163091
0.0424522444828
0.199226355572
0.798186174826
2.42009223809
6.89440533075
0.000426158397002
0.000423377628736
0.000422829060041
0.000424753911428
0.000430141144622
0.000440909439822
0.000460339708119
0.000493961414929
0.000551524903929
0.000651808037528
0.000835606286489
0.0012060317582
0.00207759973039
0.00464342306135
0.014386691281
0.0587985420013
0.257660296617
0.88613335846
2.41600138704
6.59987713491
0.000428102823345
0.000425069323229
0.000424772367707
0.000427531110748
0.000434549520853
0.000448085267368
0.000471937311826
0.000512517554574
0.000581308749204
0.00070096038303
0.000922124960245
0.00137730517036
0.00248720802925
0.00590755970974
0.0193154760192
0.0793812557051
0.315285397167
0.944562735287
2.38342049449
6.32406497843
0.000430135834156
0.000426841607638
0.000426865607961
0.000430593449563
0.000439434263839
0.000455979074788
0.000484562306446
0.000532562144694
0.000613444933109
0.0007544447934
0.00101829825492
0.00157505958281
0.00298688296826
0.00753657731211
0.0257502028322
0.103768441524
0.367200416554
0.978831616284
2.33439612073
6.06506047139
0.000432505532549
0.000428872606707
0.000429237342949
0.000434029576471
0.000444847385852
0.000464611620373
0.000498223338436
0.000554141225618
0.00064813457532
0.000812928424063
0.00112624882059
0.00180666113346
0.0036055551661
0.00964460143747
0.0339747972862
0.13079061579
0.410468788904
0.995217113772
2.27618331571
5.82143234102
0.000435403765323
0.000431284904804
0.000431966799314
0.00043788765108
0.000450813325383
0.000473995395522
0.000512948495762
0.000577360560139
0.000685707691745
0.000877367042115
0.00124887803842
0.00208207409369
0.00438153135445
0.0123678805941
0.0441736981219
0.158812820486
0.444270836735
0.999058389472
2.21318518365
5.59199118138
0.000438930414108
0.000434132687976
0.000435086264102
0.000442187644867
0.000457347222561
0.000484155692945
0.000528807142715
0.000602409225489
0.000726657055298
0.000949080363168
0.00139009911523
0.00241467432624
0.0053645247453
0.0158589819822
0.0563502582356
0.18614628773
0.469292761348
0.994327481035
2.14808505665
5.37555399799
0.000443134911222
0.000437443925456
0.000438621705823
0.00044695935661
0.000464489492323
0.000495160862346
0.000545935644043
0.000629582990926
0.000771668582876
0.00102982432255
0.00155508649416
0.00282211630296
0.00661693621006
0.02027296423
0.0702729558878
0.211412491908
0.48692872933
0.983816301738
2.08248617298
5.17075214856
0.00044810731595
0.000441289372794
0.000442645545457
0.000452283028937
0.000472336445315
0.000507143673092
0.00056454975935
0.000659289144851
0.000821625685777
0.00112182695328
0.00175047394047
0.00332699221742
0.008212962886
0.0257419043235
0.0854769905296
0.233733067582
0.498680155692
0.969442120667
2.01729800597
4.97594391697
0.000454046248528
0.000445825671127
0.000447303124104
0.000458303950372
0.000481045024217
0.000520296258805
0.000584928710499
0.000692018294376
0.000877570348465
0.00122775881093
0.00198441876321
0.00395689111464
0.0102339117537
0.0323382852562
0.101327470647
0.252729003248
0.505848567217
0.952501307042
1.95299230654
4.78927022802
0.000461258240863
0.000451283203474
0.000452793646268
0.000465207960521
0.000490802367531
0.000534831869903
0.000607365892773
0.000728279094236
0.000940615725627
0.0013506216382
0.00226644972866
0.00474342989587
0.0127588389849
0.0400370812399
0.117126580427
0.26839818137
0.509449707176
0.933856074255
1.88978898439
4.60885241852
0.000470094966116
0.00045790480094
0.000459311355181
0.00047316301574
0.00050176513648
0.000550918857183
0.000632093063831
0.000768505118168
0.00101182187493
0.00149356236729
0.0026070530802
0.00572002760262
0.015851394575
0.0486938089512
0.132230468608
0.280962539042
0.510242164911
0.914074661964
1.82779744658
4.4330858176
0.000480857741647
0.000465860388653
0.000466967885597
0.000482245383377
0.000513986759106
0.000568606399975
0.000659200758797
0.000812962354388
0.00109207240312
0.00165966297569
0.00301706156142
0.00691873875836
0.0195460889927
0.0580531270576
0.146140662999
0.290747250646
0.508794557158
0.893540230259
1.76712043473
4.26094437508
0.000493718527828
0.000475177171236
0.000475730883019
0.000492384422961
0.000527367522027
0.000587779329665
0.000688596458241
0.000861706348417
0.0011820162974
0.00185180713089
0.00350707493238
0.00836713861547
0.0238388038399
0.0677891944426
0.158549019633
0.298110256685
0.505551998697
0.87253294322
1.70791639732
4.09219298054
0.000508740473942
0.000485744071135
0.000485428453562
0.000503372556709
0.000541672855728
0.000608186556886
0.000720044867683
0.000914635901833
0.00128213383789
0.00207272876474
0.00408721511135
0.0100864213906
0.0286852792029
0.0775631768469
0.169334531911
0.303409690778
0.500885255651
0.851284273073
1.65041577682
3.92742103346
0.000526034994117
0.000497424681476
0.000495850054531
0.000514966288509
0.00055663923852
0.000629554616255
0.000753292613335
0.000971635623341
0.00139291103493
0.00232523578374
0.00476729069528
0.0120909360577
0.0340069870274
0.0870754107739
0.178524302529
0.306987522617
0.495116869917
0.830002135828
1.59489293865
3.76786911472
0.000545974836322
0.000510222877153
0.000506897503281
0.000527030608253
0.000572113528687
0.000651722426641
0.000788199860454
0.00103270902739
0.00151498744748
0.00261239407895
0.00555691838092
0.0143877520704
0.0396994086259
0.0960947841267
0.186236966541
0.30915477724
0.488526252504
0.808870829111
1.54160855948
3.61510239448
0.000569319752986
0.000524376516776
0.000518669863048
0.000539614089562
0.000588114488706
0.000674685015398
0.000824760520046
0.00109796557417
0.00164908941437
0.00293733022377
0.00646476581435
0.0169741204174
0.0456378199551
0.104461799813
0.192626879589
0.310176083803
0.481342614607
0.788036911588
1.49074748554
3.47064566052
0.000597221832136
0.000540307452132
0.000531404029568
0.000552880702491
0.000604750510032
0.000698488634665
0.000862959425706
0.00116740748178
0.0017956646548
0.00330245099267
0.00749638230925
0.019832164102
0.0516805429696
0.112074737138
0.19784315847
0.310259478234
0.473737895694
0.76759571711
1.44237696384
3.33569622843
0.000631103239137
0.000558446528173
0.0005453020971
0.000566937820722
0.000622041341885
0.000723034818429
0.000902536583618
0.00124060352093
0.00195432947966
0.00370823668903
0.00865103177668
0.0229229900449
0.0576740582266
0.118872523041
0.202009861306
0.309557144325
0.465828611433
0.747589081688
1.3964368948
3.21097329623
0.000672847640831
0.000579131018919
0.000560392226457
0.000581691599937
0.000639769430064
0.000747920381655
0.00094279703926
0.00131642032088
0.0021233819517
0.00415210325422
0.00991887737777
0.0261842555872
0.0634638097264
0.124823398053
0.205224948666
0.308177024697
0.457688034484
0.728015807679
1.35275625869
3.09668771468
0.000725504133417
0.000602690205982
0.000576529743675
0.000596828626948
0.00065745430945
0.000772406576125
0.000982570133362
0.00139295119424
0.00229962809884
0.00462790355754
0.0112800466279
0.0295342120222
0.0689098141565
0.129920849712
0.207569924326
0.306199804693
0.449363685806
0.708849019166
1.31107969987
2.99256860167
0.000793568584956
0.000629561597539
0.000593510366337
0.000611921986729
0.000674455116763
0.000795526347443
0.0010203348238
0.00146768250967
0.00247863385771
0.00512639072554
0.0127063284706
0.032881889592
0.0739019148377
0.134183066058
0.209121066756
0.303694110343
0.440892756738
0.690051870416
1.27108877354
2.89788064741
0.000883963872377
0.000660506683809
0.000611236401319
0.000626594078301
0.000690137428486
0.000816267255533
0.00105444543307
0.00153782314212
0.00265530947099
0.00563648172511
0.0141648979333
0.0361396657079
0.0783688933782
0.137651171152
0.209955994467
0.300724954289
0.432310147372
0.671585783934
1.23241200586
2.81139799266
0.00101034027994
0.000697095600787
0.000629841174802
0.000640613109953
0.000703981342967
0.000833704101093
0.00108331463991
0.00160060255319
0.00282449054764
0.006146588833
0.0156221971584
0.0392331256935
0.0822783582705
0.140383525167
0.210153438363
0.297354074328
0.423647342837
0.653409020158
1.19462714203
2.73135052046
0.00119340113679
0.000741443550369
0.000649507949163
0.000653782240979
0.000715512368103
0.000846963128194
0.00110541642012
0.0016533359318
0.00298112937675
0.00664516659393
0.0170461401152
0.0421052281938
0.0856289700351
0.142447206877
0.209788605743
0.29363521715
0.414925381245
0.635469209375
1.15726730926
2.65540327755
0.00145176449694
0.000795116045286
0.000669993472407
0.000665631185651
0.000724065898223
0.000855031095248
0.00111912279424
0.0016932593305
0.00312005680425
0.00712038381226
0.0184066507996
0.0447160815287
0.088440454784
0.143910781856
0.208929064902
0.289609832706
0.406148128751
0.617696649495
1.11984196112
2.58073914806
0.00182761093266
0.000861236063829
0.00069044512711
0.000675099616411
0.000728524235317
0.000856552984465
0.00112254737762
0.00171738014454
0.00323575034182
0.00755988508931
0.0196765463806
0.0470423944483
0.0907471374352
0.144842158799
0.207635181812
0.2853076938
0.397301591114
0.600005163025
1.08187657373
2.50427644066
0.00245449746631
0.000947961648699
0.000709437666085
0.000680437657532
0.000727263733606
0.000849849624281
0.00111365487392
0.00172271408925
0.00332280647612
0.00795209543963
0.0208351184355
0.049079845405
0.0925973611827
0.145311980292
0.205965380297
0.280752917458
0.388360395207
0.582301311256
1.04296221427
2.42298687779
0.00343782378835
0.00106153906404
0.000724439747597
0.000679455632819
0.000718500739156
0.000833324672597
0.00109080702339
0.00170714812185
0.00337757869266
0.00828985050628
0.0218748441176
0.0508479473392
0.0940563123203
0.145398814063
0.203982374145
0.275971579796
0.379297689075
0.564497448933
1.00280145397
2.33433159304
0.0048039951222
0.00121464518335
0.00073310222271
)
;

boundaryField
{
    emptyPatch
    {
        type            empty;
    }
    minY
    {
        type            fixedValue;
        value           uniform 4.5592e-05;
    }
    maxY
    {
        type            inletOutlet;
        inletValue      nonuniform List<scalar> 0();
        value           nonuniform List<scalar> 0();
    }
    maxX
    {
        type            epsilonWallFunction;
        blending        stepwise;
        value           nonuniform List<scalar> 
37
(
11.7076355742
29.7399274186
43.3802976683
51.5209623766
55.5832419951
57.2228669
57.4841468068
56.9377146884
55.9052482484
54.5836034953
53.0981342048
51.5297320102
49.9303588005
48.3324045053
46.7546327529
45.2064255005
43.6912165566
42.2094574749
40.7611091983
39.3474543095
37.971982724
36.6402373482
35.3587818747
34.1337437078
32.969506477
31.8679700599
30.8284547288
29.8480131526
28.9218025075
28.0432650292
27.2040773262
26.3940426419
25.6012336617
24.8126306088
24.015259659
23.197529447
22.3499567117
)
;
    }
    water_to_heater
    {
        type            epsilonWallFunction;
        blending        stepwise;
        value           nonuniform List<scalar> 
61
(
22.8033838643
1127.54960593
1127.54960593
1873.93516657
1873.93516657
2542.75381008
2542.75381008
2909.07557793
2968.67832321
2882.01476219
2882.01476219
2806.84753204
2806.84753204
2705.54531323
2705.54531323
2578.44855628
2538.61958528
2754.50974499
2754.50974499
3333.28180744
3333.28180744
3963.23820543
3963.23820543
4146.30344612
4192.2455861
4168.83379381
4168.83379381
4165.81661789
4165.81661789
4227.54919298
4227.54919298
4357.64127738
4509.13093534
4636.68304193
4636.68304193
4686.99334274
4686.99334274
4537.42421557
4537.42421557
4354.97364829
4546.05878795
5127.81845213
5127.81845213
6090.40515355
6090.40515355
7165.09282752
7165.09282752
8067.41235054
8748.00130438
9066.96355532
9066.96355532
9242.87368418
9242.87368418
9469.198655
9469.198655
9737.76291345
9967.02505258
10164.8485763
10164.8485763
10302.3393426
10302.3393426
)
;
    }
    procBoundary2to3
    {
        type            processor;
        value           nonuniform List<scalar> 
41
(
3778.54883782
928.416553395
258.390451676
82.3324244359
29.7762988597
12.027135562
5.37565691938
2.62928000365
1.45663386143
0.971373332566
0.786967339692
0.734090750894
0.732496509616
0.755029852926
0.775673637085
0.808549316853
0.798183825005
0.640143687599
0.339251766376
0.0882806277608
0.000670195053346
0.000700879512293
0.000806084474863
0.00105354000875
0.00167065077878
0.00340050603407
0.00857515845298
0.0228082206449
0.0523928698651
0.0952063799764
0.145190452859
0.201755957112
0.270999650678
0.37010740127
0.54656564383
0.961298378363
2.23572722612
0.00745823937129
0.00148316221286
0.000670195053346
0.000736692493418
)
;
    }
}


// ************************************************************************* //
