/*--------------------------------*- C++ -*----------------------------------*\
| =========                 |                                                 |
| \\      /  F ield         | OpenFOAM: The Open Source CFD Toolbox           |
|  \\    /   O peration     | Version:  2312                                  |
|   \\  /    A nd           | Website:  www.openfoam.com                      |
|    \\/     M anipulation  |                                                 |
\*---------------------------------------------------------------------------*/
FoamFile
{
    version     2.0;
    format      ascii;
    arch        "LSB;label=32;scalar=64";
    class       volScalarField;
    location    "0.66/water";
    object      alpha.gas;
}
// * * * * * * * * * * * * * * * * * * * * * * * * * * * * * * * * * * * * * //

dimensions      [0 0 0 0 0 0 0];

internalField   nonuniform List<scalar> 
1503
(
0.169772599847
0.102124950941
0.0288975903352
0.00737721715564
0.00143392890279
0.000229826102278
2.96014107218e-05
2.17149981049e-06
3.93466457009e-08
2.94508077094e-10
1.25565618088e-12
4.66225188549e-15
1e-15
1e-15
1e-15
1e-15
1e-15
1e-15
1e-15
1e-15
0.61122628816
0.257083000805
0.106600043868
0.0364954598226
0.0117288997479
0.00319361972188
0.000729159604419
0.000128318319388
1.2566747598e-05
2.45088468532e-07
6.55678938133e-10
9.83608886388e-13
1.99629253802e-15
1e-15
1e-15
1e-15
1e-15
1e-15
1e-15
1e-15
0.613294019074
0.342689044149
0.168339381175
0.0716990271177
0.0277992860457
0.00940505954748
0.00266200959122
0.000598961677711
8.8535794712e-05
4.61100807102e-06
1.5181840556e-08
1.85536114336e-11
2.0189910716e-14
1e-15
1e-15
1e-15
1e-15
1e-15
1e-15
1e-15
0.613295062351
0.421155180492
0.2451469398
0.124503181339
0.0559375062962
0.0216732561019
0.00699426881739
0.00180995513851
0.00033552888284
3.10453034966e-05
4.07404192654e-07
4.20958295136e-10
3.00174459401e-13
1.14276138016e-15
1e-15
1e-15
1e-15
1e-15
1e-15
1e-15
0.598484394033
0.466765060731
0.323231124093
0.196702484207
0.104268007424
0.0466333555494
0.0169744106526
0.00484049670515
0.00101316408402
0.000124852275972
4.43693330214e-06
6.02428886558e-09
3.64480944402e-12
2.90999647765e-15
1e-15
1e-15
1e-15
1e-15
1e-15
1e-15
0.568531163608
0.481304641176
0.381352060916
0.272585741021
0.171066530588
0.090777739864
0.0388557135002
0.0126556202087
0.00293419658969
0.000421675510589
2.49400868698e-05
1.10797799055e-07
5.94483360155e-11
2.62594026587e-14
1.00538815188e-15
1e-15
1e-15
1e-15
1e-15
1e-15
0.544069484323
0.484585390002
0.417090131334
0.33405509089
0.240771393267
0.150406176324
0.0775208752584
0.0306005042463
0.00838537819548
0.00140079427448
0.000109899508844
1.78727911453e-06
8.7269911077e-10
2.95415761786e-13
1.09335137819e-15
1e-15
1e-15
1e-15
1e-15
1e-15
0.543410700137
0.491481250413
0.436855604048
0.374021708984
0.296977543855
0.211835947981
0.129602799406
0.0631886761409
0.0218464014025
0.00457440819637
0.000465961387713
1.50644068789e-05
1.30330270811e-08
4.71899308561e-12
2.42588662834e-15
1.00050450285e-15
1.00028258011e-15
1.00010628004e-15
1e-15
1e-15
0.550472226978
0.501469941342
0.454893998969
0.403840934456
0.340675167821
0.266041637086
0.185776560524
0.109208679014
0.0482952999758
0.0135134528606
0.00191434509828
0.000101245537414
9.09822742632e-07
1.73305514408e-10
4.18000823653e-14
1.00999415962e-15
1.00089364127e-15
1.00088317356e-15
1.00081037222e-15
1.00033205799e-15
0.574483392626
0.512457584026
0.472109586235
0.431147715535
0.378344062329
0.312543511769
0.238830591802
0.161722667329
0.0888490703352
0.0336784503171
0.00699277007009
0.00060284093778
1.44729887064e-05
8.26843068485e-09
2.19472984302e-12
1.53598809169e-15
1.00117345713e-15
1.00117729915e-15
1.00115329411e-15
1.0008294688e-15
0.58031381352
0.516635678836
0.486632282883
0.456235629866
0.412515339468
0.353583531164
0.285564274905
0.212860187096
0.138586858528
0.0691325811998
0.0211513342083
0.00297982332533
0.000138108120495
1.13307788223e-06
1.65804246319e-10
4.77315112029e-14
1.0131174317e-15
1.00204139278e-15
1.00188327675e-15
1.00134770943e-15
0.578308567887
0.516332827227
0.492855045891
0.470707533414
0.436230377817
0.385017581403
0.323016669388
0.257211649194
0.189457916269
0.117848357622
0.0508393448101
0.0113243092038
0.000932598952526
1.93108941139e-05
1.34006274503e-08
3.22496170359e-12
1.99109107976e-15
1.004259965e-15
1.00394498789e-15
1.00292329178e-15
0.581791513378
0.51299133592
0.49093008486
0.469605580858
0.437473486761
0.39428263958
0.343889864049
0.28955634048
0.233660456399
0.170511703612
0.0958772804281
0.031510307958
0.00426206389034
0.000163701487356
1.04161397892e-06
1.26622192804e-10
4.95354181185e-14
1.02448515141e-15
1.00797370636e-15
1.00613222485e-15
0.578308567887
0.505157380404
0.487486710022
0.464484928668
0.432402822839
0.3909055708
0.348691899087
0.30828209066
0.266831839693
0.216085912243
0.145102804987
0.0641033916916
0.0131742051805
0.000848642134971
1.15110065812e-05
3.55731513227e-09
1.15320443943e-12
1.49434868273e-15
1.01293761059e-15
1.01052356268e-15
0.581775389506
0.492674486109
0.479069673881
0.452837448079
0.4182038362
0.379401149727
0.345180738793
0.317442141146
0.288585332742
0.248000168515
0.184662467112
0.0998660674873
0.0285489143905
0.00281094972959
6.24654605309e-05
1.51830340126e-07
2.60417700359e-11
7.6682236787e-15
1.0183312341e-15
1.01368594698e-15
0.577882330887
0.478111138212
0.46331853615
0.433778951155
0.397073251217
0.362603581194
0.339006196947
0.322264561975
0.301656746706
0.267217435887
0.21076377798
0.1296784143
0.0469845098064
0.00647707567951
0.000214999505635
1.1377479008e-06
3.04880470725e-10
7.26220947476e-14
1.04046351645e-15
1.01421746446e-15
0.579736022527
0.465024236693
0.443363417896
0.413171932144
0.379915455361
0.352845420842
0.337514870239
0.326733631108
0.310548850728
0.280086269475
0.230052924075
0.154473041479
0.0660878742517
0.0119239409241
0.000565707317336
4.96382258727e-06
1.43100028653e-09
2.73661902495e-13
1.04931585479e-15
1.01290271563e-15
0.57756296
0.457802484124
0.427686320668
0.401364890805
0.375487477039
0.353236890973
0.340891316796
0.333717141382
0.31996116977
0.293878775124
0.251748907488
0.182256174428
0.0895549713594
0.0206839739646
0.00144572464041
2.17426117787e-05
1.26240493505e-08
4.92331508799e-13
1.04077614791e-15
1.00852196553e-15
0.572875081178
0.457576200207
0.430246077046
0.406046113769
0.38243455685
0.363221185965
0.353308796092
0.346079995301
0.333905034947
0.314595907075
0.282446821787
0.222269407497
0.12778970764
0.0391804919161
0.00430694377115
0.00012053714949
4.94717384908e-07
1.82340109726e-12
1.22213885735e-15
1.00238430518e-15
0.551050400146
0.466832287696
0.454044684689
0.436056098594
0.412333987724
0.389892562944
0.374761863546
0.362988593735
0.350854004389
0.336606804296
0.31659477173
0.277027385483
0.194079724366
0.0826772643359
0.0146703547235
0.000762655358573
8.41405168098e-06
1.66714067434e-09
3.50358975385e-14
1.0076546485e-15
0.546336444598
0.50548428341
0.510731960192
0.498368406993
0.465172186176
0.427391773912
0.399126640211
0.378483312581
0.358816322646
0.33965013206
0.33016192436
0.323969528052
0.276534194824
0.163330567451
0.0467093048678
0.00437634334611
0.000101052448465
2.75259398202e-07
2.43827128878e-12
1.87695390748e-15
0.574124839634
0.564567641972
0.572736362906
0.560809930966
0.519242097339
0.465559431026
0.421698476941
0.388644297101
0.358336823319
0.335376007074
0.32871414902
0.32858774321
0.326743945844
0.253186233941
0.111658300209
0.0184885315268
0.000839241367048
7.91639910101e-06
5.65299649593e-10
4.49696693089e-14
0.626785106882
0.603084202257
0.604741803232
0.59288293198
0.554477360631
0.495585075779
0.439535081601
0.39335754629
0.353751593217
0.322169910244
0.31894636854
0.327841744765
0.327725612592
0.302431835935
0.185751513414
0.0507214096261
0.00419584604559
7.95953194249e-05
1.1912082126e-07
5.53557570073e-12
0.644761990126
0.611842226668
0.61209915452
0.604161051416
0.571221666399
0.511848149458
0.448623243224
0.393078038131
0.343156142524
0.303493803039
0.301958304569
0.317663809124
0.327610018021
0.317113522129
0.232627523357
0.0920480699913
0.0126837279517
0.00042166279252
2.44905264508e-06
1.70227470564e-10
0.648689572579
0.612478203578
0.612288034934
0.6086640265
0.577877848534
0.516959524886
0.449234270625
0.386483214718
0.325617077663
0.29636519062
0.296408040754
0.301023473254
0.320537726404
0.3152386835
0.253700149057
0.126223779414
0.0253311944756
0.00133047118239
1.37392378743e-05
2.67343235757e-09
0.645354709188
0.610525486171
0.61209915452
0.609518724284
0.578365074225
0.515954396757
0.443678583084
0.369725394659
0.30508972152
0.296408040754
0.29599157782
0.296408040754
0.302545060594
0.308324929387
0.265375014923
0.150930118192
0.0388002566158
0.00285546154923
4.273500839e-05
5.35702954641e-08
0.650220895002
0.604230171595
0.61173421743
0.606715281582
0.572917505693
0.506494234409
0.426069591494
0.344455758932
0.296408040754
0.296064202851
0.296408040754
0.295707759746
0.296408040754
0.302419899784
0.277117322854
0.173147054525
0.0526444061605
0.00500908963531
0.000100316721427
2.99915855463e-07
0.646185417898
0.594261241593
0.604238228756
0.594887909222
0.55540051656
0.483859284452
0.397707459034
0.316608894891
0.29622475143
0.296408040754
0.295397224554
0.296408040754
0.295523544406
0.307208098914
0.297196096146
0.199619746633
0.0699089395459
0.00849474833434
0.000226891068887
1.0964601934e-06
0.650707277851
0.580791086032
0.590265655634
0.57443479592
0.527458823013
0.45131024336
0.365144270172
0.298864310495
0.296408040754
0.295494647429
0.296408040754
0.294860168421
0.296408040754
0.32839498558
0.328178519017
0.23535894963
0.0963110092164
0.0151440431974
0.000543155731918
3.5350074498e-06
0.646120273035
0.565378299416
0.572326387053
0.548859287425
0.493585957489
0.414311214625
0.332925115429
0.296408040754
0.295778586931
0.296408040754
0.294762050984
0.296408040754
0.294786201785
0.356590428213
0.358838317291
0.279489126733
0.134456407897
0.027109449297
0.00131594842684
1.10270597428e-05
0.650296352009
0.547854487572
0.549423614547
0.518116990206
0.456447336188
0.378034018024
0.306858051554
0.296058797393
0.296408040754
0.294909416875
0.296408040754
0.294492152984
0.327797854999
0.358838317291
0.359224966938
0.311675045599
0.176389209292
0.0449664629493
0.00297079267712
3.24876371031e-05
0.645637947306
0.526930472907
0.516872669787
0.478882467043
0.41794843612
0.347918435323
0.296559111451
0.296408040754
0.295224825005
0.296408040754
0.294486265759
0.296408040754
0.357037514329
0.35957128851
0.358838317291
0.330215711377
0.21164263874
0.0666135720807
0.00600431805828
8.97401607765e-05
0.648214609512
0.496590854929
0.472204005452
0.431862810143
0.380984343191
0.327084898365
0.296408040754
0.295622285906
0.296408040754
0.294488535618
0.296408040754
0.330698229578
0.359509583943
0.358838317291
0.359156747857
0.340759426412
0.239412239449
0.0905867796218
0.0110462547994
0.000233397305688
0.64501743376
0.455223681171
0.427966485913
0.393083463764
0.357856725244
0.319962780344
0.296082337122
0.296408040754
0.294862048848
0.296408040754
0.308253815398
0.358643185068
0.358838317291
0.359316864131
0.358838317291
0.347705408096
0.263644443699
0.118666575306
0.0193354057931
0.00058422279375
0.623416843576
0.411190683713
0.402504810827
0.383417331494
0.355778041782
0.321892384292
0.30005452156
0.300767354615
0.305689784847
0.313268192037
0.330792571294
0.348634336008
0.355828530672
0.358838317291
0.358947132326
0.351189584966
0.288573633924
0.156145108833
0.0336453221047
0.00145126087318
0.544143214575
0.400187618473
0.399625304104
0.389799297579
0.362451997346
0.333177985746
0.323947633669
0.329485095325
0.327033290668
0.319572115699
0.318310262987
0.320224879354
0.333730010502
0.347681137814
0.353816454603
0.352897453029
0.325297613957
0.210506006597
0.0593121814343
0.00373928222068
0.46856565628
0.41186827395
0.431362572727
0.424661519198
0.383827727625
0.352768073156
0.345047934098
0.338369311757
0.32261778289
0.303217856222
0.289385461857
0.287356096777
0.300436131055
0.318455034054
0.336784943415
0.356944087702
0.365777889472
0.273628131189
0.103895440808
0.0103595978473
0.479723306798
0.507014838503
0.52221611785
0.499114180604
0.429992654633
0.380237342257
0.35578494353
0.335513674777
0.30914591128
0.282398956015
0.268582022951
0.266752674891
0.273974768035
0.287208053658
0.315494556932
0.357777694295
0.376796836341
0.327747984087
0.168341459219
0.0280168971688
1e-15
1e-15
1e-15
1e-15
1e-15
1e-15
1e-15
1e-15
1e-15
1e-15
1e-15
1e-15
1e-15
1e-15
1e-15
1e-15
1e-15
1e-15
1e-15
1e-15
1e-15
1e-15
1e-15
1e-15
1e-15
1e-15
1e-15
1e-15
1e-15
1e-15
1e-15
1e-15
1e-15
1e-15
1e-15
1e-15
1e-15
1e-15
1e-15
1e-15
1e-15
1e-15
1e-15
1e-15
1e-15
1e-15
1e-15
1e-15
1e-15
1e-15
1e-15
1e-15
1e-15
1e-15
1e-15
1e-15
1e-15
1e-15
1e-15
1e-15
1e-15
1e-15
1e-15
1e-15
1e-15
1e-15
1e-15
1e-15
1e-15
1e-15
1e-15
1e-15
1e-15
1e-15
1e-15
1e-15
1e-15
1e-15
1e-15
1e-15
1e-15
1e-15
1e-15
1e-15
1e-15
1e-15
1e-15
1e-15
1e-15
1e-15
1e-15
1e-15
1e-15
1e-15
1e-15
1e-15
1.00260773265e-15
1e-15
1e-15
1e-15
1e-15
1e-15
1e-15
1e-15
1e-15
1e-15
1e-15
1e-15
1e-15
1e-15
1e-15
1e-15
1e-15
1e-15
1e-15
1e-15
1.00459330407e-15
1e-15
1e-15
1.03315695857e-15
1e-15
1e-15
1e-15
1e-15
1e-15
1e-15
1e-15
1e-15
1.00089425825e-15
1.00028780611e-15
1.00055493042e-15
1.00008354157e-15
1e-15
1e-15
1e-15
1.00352402524e-15
1.00457921841e-15
1e-15
1e-15
1.08084589945e-15
1e-15
1.00008217192e-15
1.00029147964e-15
1.00042161615e-15
1.0006049976e-15
1.00090589233e-15
1.00130368738e-15
1.00294398046e-15
1.00585529497e-15
1.00359982433e-15
1.0028301166e-15
1.0018776093e-15
1e-15
1e-15
1.00598732752e-15
1.00803951123e-15
1.00251674072e-15
1e-15
1e-15
1.12051380807e-15
1.00054137259e-15
1.00140012399e-15
1.0017767414e-15
1.00206899925e-15
1.00243512663e-15
1.00290599641e-15
1.0035223052e-15
1.00743371769e-15
1.00855084362e-15
1.00752498768e-15
1.0045648455e-15
1.00301487808e-15
1.00091962607e-15
1.00120302246e-15
1.01353839448e-15
1.01131771454e-15
1e-15
1e-15
1e-15
1.15627698384e-15
1.00110294703e-15
1.0020888621e-15
1.0025807451e-15
1.00297590739e-15
1.00345191361e-15
1.00404453131e-15
1.00611956297e-15
1.00859712032e-15
1.00871810614e-15
1.00852634203e-15
1.00556863294e-15
1.00347291565e-15
1.00157842439e-15
1.00483622209e-15
1.01370184547e-15
1.0108820225e-15
1e-15
1e-15
1e-15
1.18836512255e-15
1.0017019985e-15
1.00295016383e-15
1.00350021774e-15
1.00393600298e-15
1.00446695999e-15
1.00554436617e-15
1.00814468718e-15
1.00870628807e-15
1.00873150206e-15
1.00858907655e-15
1.00651611476e-15
1.00393539912e-15
1.00244935048e-15
1.01126919041e-15
1.0137015954e-15
1.0091256955e-15
1e-15
1e-15
1e-15
1.21677228985e-15
1.0032240094e-15
1.00456395164e-15
1.00505783365e-15
1.00545787906e-15
1.00610698136e-15
1.00759085472e-15
1.00872535263e-15
1.00879884279e-15
1.00878560791e-15
1.00863743648e-15
1.00755040768e-15
1.00454173662e-15
1.00377097094e-15
1.01364791634e-15
1.01337252988e-15
1.00620872593e-15
1e-15
1e-15
1e-15
1.24130657332e-15
1.00602579833e-15
1.00707026912e-15
1.00729730297e-15
1.00750298695e-15
1.00803288694e-15
1.00876127033e-15
1.0089540738e-15
1.00893747733e-15
1.0088845494e-15
1.00871043951e-15
1.00812556483e-15
1.00522929315e-15
1.00525645368e-15
1.01364808322e-15
1.01259735587e-15
1.00182096597e-15
1e-15
1.00238731217e-15
1e-15
1.26293881495e-15
1.00954117118e-15
1.00971604908e-15
1.00937000482e-15
1.00916660032e-15
1.00922848551e-15
1.00924351005e-15
1.00918143076e-15
1.0091119131e-15
1.00900475993e-15
1.0088101259e-15
1.00825766531e-15
1.00596801088e-15
1.00959447846e-15
1.01364791634e-15
1.01142928719e-15
1e-15
1e-15
1.00696503134e-15
1e-15
1.28249015771e-15
1.01180086528e-15
1.01099491718e-15
1.0101605201e-15
1.00964717935e-15
1.00950257134e-15
1.009416227e-15
1.00927942126e-15
1.00915746091e-15
1.00902288734e-15
1.00882484556e-15
1.00821273922e-15
1.00672895856e-15
1.01343682748e-15
1.01350510081e-15
1.00943090075e-15
1e-15
1e-15
1.01711169046e-15
1e-15
1.30044654626e-15
1.01207660352e-15
1.01095571545e-15
1.00998963627e-15
1.00938280711e-15
1.0092269087e-15
1.0092506439e-15
1.00922640694e-15
1.00906943523e-15
1.00892590294e-15
1.00873439217e-15
1.00781909116e-15
1.00729993838e-15
1.01355423455e-15
1.01299967055e-15
1.00593438726e-15
1e-15
1e-15
1.01980547787e-15
1e-15
1.31705110016e-15
1.01086701e-15
1.00947992007e-15
1.00843455727e-15
1.00777661123e-15
1.0077763858e-15
1.0081963179e-15
1.00875390802e-15
1.00878153187e-15
1.00866135447e-15
1.0083985878e-15
1.00710808605e-15
1.00776412297e-15
1.01355467847e-15
1.01205146621e-15
1.00027802357e-15
1e-15
1e-15
1.01980826843e-15
1e-15
1.33251128724e-15
1.00729490718e-15
1.00607324305e-15
1.00528737247e-15
1.00477689703e-15
1.00488968254e-15
1.00595519998e-15
1.00747927995e-15
1.00831524366e-15
1.0082253027e-15
1.00756890925e-15
1.00709540428e-15
1.00823163418e-15
1.01337008924e-15
1.01020426707e-15
1e-15
1e-15
1e-15
1.01966861666e-15
1e-15
1.3471793718e-15
1.00243581075e-15
1.00205904847e-15
1.00187475731e-15
1.00170207997e-15
1.00169999969e-15
1.00351261691e-15
1.00565270357e-15
1.00744273443e-15
1.0076035644e-15
1.00709540428e-15
1.00708342419e-15
1.00903005138e-15
1.01281605685e-15
1.00683729764e-15
1e-15
1e-15
1.00009840679e-15
1.02024368728e-15
1e-15
1.36156760391e-15
1e-15
1e-15
1e-15
1e-15
1e-15
1.00267131589e-15
1.00631654695e-15
1.00702865086e-15
1.0070553748e-15
1.00705105944e-15
1.00709540428e-15
1.01053264399e-15
1.0119576343e-15
1.00249552675e-15
1e-15
1e-15
1.00032498468e-15
1.02072495677e-15
1e-15
1.37619614753e-15
1e-15
1e-15
1e-15
1e-15
1e-15
1.00515521549e-15
1.02173504996e-15
1.02017931437e-15
1.00704798234e-15
1.00709540428e-15
1.0070485695e-15
1.01294525481e-15
1.01082468312e-15
1e-15
1e-15
1e-15
1.00046043196e-15
1.02119272119e-15
1e-15
1.39147625149e-15
1e-15
1e-15
1e-15
1e-15
1.00299109001e-15
1.02120785965e-15
1.0264893017e-15
1.02711528898e-15
1.0184607517e-15
1.00774228222e-15
1.01039817971e-15
1.01570968245e-15
1.00953861296e-15
1e-15
1e-15
1e-15
1.00124162643e-15
1.02072495677e-15
1e-15
1.40766259923e-15
1.02965147889e-15
1e-15
1e-15
1.0042181114e-15
1.01523736634e-15
1.02647974961e-15
1.02730954272e-15
1.0264893017e-15
1.02701523543e-15
1.01501546222e-15
1.01632595253e-15
1.01795403509e-15
1.00828521573e-15
1e-15
1e-15
1e-15
1.00320692634e-15
1.02127306486e-15
1e-15
1.42475570149e-15
3.15831828949e-15
1.00543522604e-15
1.01427240244e-15
1.01840370249e-15
1.02647099233e-15
1.02736869723e-15
1.0264893017e-15
1.02729057341e-15
1.0264893017e-15
1.02676914615e-15
1.02091779017e-15
1.0192501017e-15
1.00747632815e-15
1e-15
1e-15
1e-15
1.00574295937e-15
1.02072495677e-15
1e-15
1.44241685235e-15
4.8190180018e-14
1.00737825824e-15
1.02050653773e-15
1.02329625063e-15
1.02714044753e-15
1.0264893017e-15
1.02743335662e-15
1.0264893017e-15
1.02712491297e-15
1.0264893017e-15
1.02420097782e-15
1.01968526642e-15
1.00707008167e-15
1e-15
1e-15
1e-15
1.00755405779e-15
1.02128507131e-15
1e-15
1.46013934354e-15
5.60503092395e-13
1.00122752962e-15
1.01268766902e-15
1.02516423461e-15
1.02648928542e-15
1.02749912702e-15
1.0264893017e-15
1.02732070407e-15
1.02648929354e-15
1.02685541643e-15
1.0259984616e-15
1.01969517613e-15
1.00631666366e-15
1e-15
1e-15
1e-15
1.00861376968e-15
1.02072495677e-15
1.00362502121e-15
1.47754350917e-15
9.11518591995e-12
1e-15
1e-15
1.02505383065e-15
1.02728921757e-15
1.0264893017e-15
1.027492192e-15
1.0264893017e-15
1.02712998983e-15
1.0264893017e-15
1.02654298825e-15
1.0190079336e-15
1.00447495013e-15
1e-15
1e-15
1.00230325677e-15
1.00929372274e-15
1.02126402619e-15
1.0072241644e-15
1.49466566759e-15
1.10471957987e-10
1e-15
1e-15
1.01693739373e-15
1.0264893017e-15
1.02753856761e-15
1.0264893017e-15
1.02735767293e-15
1.0264893017e-15
1.02682897185e-15
1.0264893017e-15
1.01672016536e-15
1.00277873672e-15
1e-15
1.00078094429e-15
1.00361322074e-15
1.00955820296e-15
1.02072495677e-15
1.00810988928e-15
1.51186431035e-15
7.54205088903e-10
1e-15
1e-15
1.00090098003e-15
1.02721257556e-15
1.0264893017e-15
1.02748686178e-15
1.0264893017e-15
1.02707547183e-15
1.0264893017e-15
1.02525539251e-15
1.01235502564e-15
1.00241721993e-15
1.00193233712e-15
1.00275971633e-15
1.0041001045e-15
1.00935584345e-15
1.02116477047e-15
1.00832163946e-15
1.52939410339e-15
4.36529878316e-09
1e-15
1e-15
1e-15
1.0264893017e-15
1.0274960677e-15
1.0264893017e-15
1.02724971853e-15
1.0264893017e-15
1.02674567779e-15
1.02166500808e-15
1.00730717374e-15
1.00235834311e-15
1.00236992258e-15
1.00289302633e-15
1.00414365593e-15
1.00870286159e-15
1.02072495677e-15
1.00799425124e-15
1.54717408416e-15
2.23477924667e-08
1e-15
1e-15
1e-15
1.02694336261e-15
1.0264893017e-15
1.02727942371e-15
1.0264893017e-15
1.02689853383e-15
1.0264893017e-15
1.01624680976e-15
1.00403804743e-15
1.00209591329e-15
1.00210618716e-15
1.00254598806e-15
1.00372664041e-15
1.00761181199e-15
1.02099489866e-15
1.00695980421e-15
1.56488616389e-15
9.14239668707e-08
1e-15
1e-15
1e-15
1.0264893017e-15
1.02715872351e-15
1.0264893017e-15
1.0269815738e-15
1.0264893017e-15
1.02654847755e-15
1.00991582999e-15
1.00230256954e-15
1.00139205673e-15
1.00130789468e-15
1.00169823324e-15
1.00278276655e-15
1.00611535011e-15
1.02072495677e-15
1.00534017423e-15
1.58221237548e-15
3.09964265774e-07
1e-15
1e-15
1e-15
1.02576773638e-15
1.0264893017e-15
1.02687088331e-15
1.0264893017e-15
1.02658085661e-15
1.02279311829e-15
1.00465614838e-15
1.0007334663e-15
1.00018090952e-15
1.00015040724e-15
1.00030860288e-15
1.00139400983e-15
1.00428454459e-15
1.02078208052e-15
1.00328387964e-15
1.59878471408e-15
1.10613416057e-06
1e-15
1e-15
1e-15
1.02051867279e-15
1.02664358334e-15
1.0264893017e-15
1.02659153962e-15
1.02602074584e-15
1.01401083384e-15
1.00089013719e-15
1.00000045981e-15
1e-15
1e-15
1e-15
1.00014328716e-15
1.00226849055e-15
1.0197935047e-15
1.00090655158e-15
1.61403932393e-15
4.5432080096e-06
1e-15
1e-15
1e-15
1.01256382253e-15
1.02182000353e-15
1.0251978439e-15
1.02492782308e-15
1.01821849363e-15
1.00375446817e-15
1e-15
1e-15
1e-15
1e-15
1e-15
1e-15
1.00042064676e-15
1.01748954983e-15
1.00002931337e-15
1.62852877864e-15
2.40761822124e-05
2.3953548192e-09
1e-15
1e-15
1.00457686653e-15
1.01425839645e-15
1.01888508456e-15
1.0177457081e-15
1.00713596956e-15
1e-15
1e-15
1e-15
1e-15
1e-15
1e-15
1e-15
1e-15
1.01655490899e-15
1e-15
1.63933138158e-15
0.000148133900979
1.593385077e-07
1e-15
1e-15
1.00043473343e-15
1.00732970718e-15
1.01177581915e-15
1.00943553824e-15
1.00003870197e-15
1e-15
1e-15
1e-15
1e-15
1e-15
1e-15
1e-15
1e-15
1.01711750259e-15
1e-15
1.65269919241e-15
0.000853262987727
3.12727722796e-06
1e-15
)
;

boundaryField
{
    emptyPatch
    {
        type            empty;
    }
    minY
    {
        type            fixedValue;
        value           uniform 1e-15;
    }
    maxY
    {
        type            inletOutlet;
        phi             phi.gas;
        inletValue      nonuniform List<scalar> 0();
        value           nonuniform List<scalar> 0();
    }
    maxX
    {
        type            zeroGradient;
    }
    water_to_heater
    {
        type            zeroGradient;
    }
    procBoundary2to3
    {
        type            processor;
        value           nonuniform List<scalar> 
41
(
0.581096554519
0.645263132159
0.626764478962
0.601156198528
0.530167826059
0.450399735739
0.385528899585
0.342597152338
0.30920460024
0.279033134795
0.261246397486
0.258107958869
0.260835504043
0.267387194333
0.294042806037
0.351638183681
0.377014940963
0.363370318654
0.234404986659
0.0631293741157
1e-15
1e-15
1.00040265232e-15
1.00522205109e-15
1.00241934456e-15
1e-15
1e-15
1e-15
1e-15
1e-15
1e-15
1e-15
1e-15
1e-15
1.0197023983e-15
1.01422586591e-15
1.68246378256e-15
0.0039508988743
3.60054564059e-05
1e-15
1e-15
)
;
    }
}


// ************************************************************************* //
