/*--------------------------------*- C++ -*----------------------------------*\
| =========                 |                                                 |
| \\      /  F ield         | OpenFOAM: The Open Source CFD Toolbox           |
|  \\    /   O peration     | Version:  2312                                  |
|   \\  /    A nd           | Website:  www.openfoam.com                      |
|    \\/     M anipulation  |                                                 |
\*---------------------------------------------------------------------------*/
FoamFile
{
    version     2.0;
    format      ascii;
    arch        "LSB;label=32;scalar=64";
    class       volScalarField;
    location    "0.66/water";
    object      p_rgh;
}
// * * * * * * * * * * * * * * * * * * * * * * * * * * * * * * * * * * * * * //

dimensions      [1 -1 -2 0 0 0 0];

internalField   nonuniform List<scalar> 
1503
(
101304.573778
101301.196875
101300.668822
101300.032172
101299.408693
101298.823127
101298.278493
101297.780213
101297.333266
101296.936135
101296.587181
101296.28348
101296.020579
101295.794165
101295.600684
101295.437226
101295.301491
101295.191718
101295.106713
101295.045663
101287.71505
101292.827748
101295.939919
101297.319855
101297.515277
101297.413857
101297.202781
101296.959486
101296.704181
101296.45091
101296.214961
101296.001818
101295.809537
101295.635897
101295.4803
101295.343172
101295.225343
101295.12768
101295.051051
101294.99622
101275.745381
101282.707949
101289.17734
101292.920033
101294.503014
101295.20998
101295.497409
101295.583161
101295.574401
101295.515985
101295.432835
101295.343314
101295.256207
101295.173173
101295.094436
101295.020995
101294.954718
101294.897885
101294.852888
101294.821815
101266.422983
101273.927618
101282.804319
101288.704306
101291.831153
101293.43135
101294.176543
101294.484548
101294.601474
101294.639638
101294.642176
101294.628996
101294.611147
101294.593285
101294.576307
101294.560373
101294.546187
101294.535071
101294.528768
101294.528919
101258.132108
101265.028969
101274.552259
101282.379206
101287.747343
101291.085563
101292.845626
101293.603632
101293.870489
101293.953737
101293.980874
101293.99365
101294.004759
101294.018783
101294.03664
101294.057613
101294.080918
101294.106197
101294.133575
101294.163239
101252.128896
101257.465559
101265.707234
101273.939147
101281.201596
101286.874161
101290.546461
101292.418671
101293.128104
101293.323854
101293.37007
101293.392926
101293.419736
101293.454378
101293.496836
101293.545515
101293.598462
101293.653937
101293.710616
101293.767277
101245.850117
101249.677455
101256.472852
101264.040391
101272.081367
101279.764653
101285.945222
101289.939917
101291.861221
101292.498275
101292.657632
101292.724097
101292.789402
101292.862244
101292.941956
101293.02673
101293.114364
101293.202682
101293.289796
101293.373794
101237.363392
101241.061632
101247.328356
101254.050025
101261.840973
101270.348712
101278.545732
101285.189199
101289.388258
101291.231708
101291.779626
101291.966887
101292.110688
101292.251378
101292.389866
101292.525443
101292.657039
101292.783314
101292.902905
101293.014425
101227.112923
101231.424086
101237.906862
101244.183111
101251.486697
101260.063802
101269.26433
101278.046036
101285.095077
101289.247235
101290.807558
101291.260244
101291.505725
101291.723683
101291.925589
101292.112793
101292.286225
101292.446192
101292.592686
101292.725434
101215.186302
101222.31216
101228.895059
101234.62038
101241.498627
101250.005071
101259.520537
101269.447892
101278.840015
101286.041806
101289.698936
101290.809214
101291.171167
101291.434733
101291.670879
101291.883916
101292.076194
101292.249292
101292.40424
101292.541658
101209.210994
101217.076162
101222.208035
101226.652568
101232.695552
101240.898308
101250.433381
101260.653297
101271.104306
101280.910563
101287.789238
101290.573328
101291.233012
101291.494567
101291.711568
101291.905066
101292.077498
101292.230503
101292.365302
101292.482794
101202.754887
101210.996729
101215.664263
101219.48558
101224.832969
101232.669753
101242.142625
101252.194017
101262.530747
101273.449656
101283.700767
101289.838905
101291.59442
101291.901332
101292.050361
101292.178119
101292.289924
101292.387082
101292.470679
101292.541603
101198.526529
101208.106805
101212.043411
101215.704685
101220.898118
101227.895144
101236.104907
101244.976701
101254.11416
101264.460498
101276.71379
101287.313129
101291.845117
101292.568843
101292.627
101292.648146
101292.663048
101292.672767
101292.678087
101292.67972
101192.317283
101203.428267
101207.405469
101211.867617
101217.582762
101224.884103
101232.258197
101239.285063
101246.52176
101255.452842
101267.988095
101282.27823
101291.221193
101293.303224
101293.330056
101293.211426
101293.100747
101293.000207
101292.909562
101292.828809
101187.187041
101201.973623
101205.144879
101210.273628
101216.646012
101223.74128
101229.927362
101234.891721
101240.168092
101247.793877
101259.785992
101275.78956
101289.133563
101293.751809
101293.972771
101293.702829
101293.45519
101293.239722
101293.053676
101292.894969
101181.356725
101199.094781
101202.939062
101209.207053
101216.432561
101223.045717
101227.387148
101230.405865
101234.377893
101241.306991
101252.742992
101269.090409
101285.600912
101293.422131
101294.242872
101293.874233
101293.522183
101293.22486
101292.976363
101292.771796
101174.112228
101196.088774
101201.328197
101207.936741
101214.680071
101219.963568
101222.743586
101224.702905
101228.032208
101234.592457
101245.418726
101261.693496
101280.55221
101291.830583
101293.78644
101293.460466
101293.095138
101292.797486
101292.558772
101292.371963
101165.858198
101189.959723
101197.048944
101203.038504
101208.491088
101213.0703
101215.440064
101216.787936
101219.854404
101225.871548
101235.62029
101251.620129
101272.791251
101288.287978
101292.30741
101292.296381
101292.05585
101291.878471
101291.752561
101291.670158
101155.488423
101180.235929
101187.237145
101193.02654
101198.254149
101202.392615
101204.37795
101205.931666
101208.878082
101213.664471
101221.649693
101236.471163
101259.534278
101281.039068
101289.425462
101290.39643
101290.4558
101290.532707
101290.630117
101290.740517
101147.88885
101166.091001
101169.876351
101174.46479
101180.201866
101185.699877
101189.501172
101192.629011
101195.97373
101199.932112
101205.393144
101215.847983
101237.377757
101266.204272
101284.004307
101287.975531
101288.596408
101289.023089
101289.416878
101289.774025
101134.054045
101142.059549
101141.816073
101145.685388
101154.896046
101165.452955
101173.589832
101179.779184
101185.744414
101191.505246
101194.576848
101196.752595
101209.945095
101240.818542
101272.837967
101285.050208
101287.014605
101287.794206
101288.463611
101289.046857
101114.558991
101115.468969
101114.706796
101118.821091
101131.026392
101146.785119
101159.955695
101170.187029
101179.647137
101186.939846
101189.535036
101190.21522
101191.354184
101212.59436
101253.027423
101280.165131
101286.134421
101287.295546
101288.114311
101288.820175
101092.914567
101099.147589
101099.730431
101103.733167
101115.346688
101133.145258
101150.336113
101164.765042
101177.288657
101187.396754
101189.055879
101187.095484
101187.744859
101195.727771
101230.588884
101271.038527
101285.637152
101287.735016
101288.544176
101289.227043
101082.586466
101092.571286
101093.761777
101096.605367
101106.866901
101125.36936
101145.264427
101162.924511
101178.901263
101191.64168
101192.553664
101188.227228
101185.648277
101189.416093
101215.885354
101259.551335
101284.561306
101288.986585
101289.710375
101290.235565
101078.359133
101089.741203
101090.950675
101092.312712
101102.131523
101121.693958
101143.605126
101164.046465
101183.901797
101193.418016
101193.624887
101192.444769
101186.545119
101188.683738
101208.82806
101249.972813
101282.624547
101290.665659
101291.400049
101291.684815
101075.010532
101086.344272
101087.152862
101088.344556
101098.750098
101119.609266
101143.89421
101168.816842
101190.443306
101193.240134
101193.401032
101193.436615
101191.553859
101189.856816
101204.482276
101242.852619
101280.349295
101292.391277
101293.338514
101293.360044
101070.786804
101086.034905
101084.33556
101086.264654
101097.895312
101120.859965
101148.791939
101177.096853
101193.398114
101193.077569
101193.025269
101193.212935
101192.887256
101190.790504
101199.622814
101235.794691
101277.526144
101293.842805
101295.275853
101295.057411
101068.195136
101085.816317
101083.061901
101086.721971
101100.91965
101126.624149
101157.592952
101186.485261
101193.104198
101192.752506
101192.791549
101192.267673
101192.287751
101187.578532
101191.086267
101226.291451
101272.843561
101294.54615
101297.021141
101296.621133
101062.952843
101087.746962
101085.091262
101091.127246
101108.450498
101136.613646
101168.42688
101192.401687
101192.50907
101192.199951
101191.577647
101191.597821
101190.33081
101177.734258
101177.415249
101212.210779
101263.909435
101293.656959
101298.431387
101297.955306
101059.117187
101088.778302
101087.4433
101096.760593
101117.899787
101148.191417
101179.060527
101192.160347
101191.390083
101190.708591
101190.626727
101189.403113
101189.129906
101163.910006
101163.10917
101193.850782
101249.542957
101290.31606
101299.413789
101299.023829
101053.519328
101092.363088
101092.819102
101105.354698
101129.507191
101160.175388
101187.594057
101190.540425
101189.643311
101189.334207
101188.10963
101188.003958
101172.834466
101159.812107
101159.656193
101178.620096
101232.289428
101283.977052
101299.674951
101299.713131
101049.568311
101095.731013
101101.060049
101116.856506
101141.441042
101169.464752
101189.311597
101188.133086
101187.453534
101186.176862
101185.884785
101183.523142
101157.407289
101155.895883
101155.930674
101167.422037
101216.011226
101274.970166
101298.711106
101299.792152
101043.60177
101104.384865
101115.227281
101132.200518
101152.948191
101174.64477
101186.189058
101184.986268
101183.696645
101183.228814
101181.114599
101164.876122
101151.299367
101151.203686
101150.461588
101158.096763
101200.919235
101263.391337
101295.876343
101298.971317
101038.463502
101116.928543
101129.115319
101143.792515
101157.907323
101173.019951
101181.766691
101180.183787
101179.277388
101176.936434
101169.927679
101145.872213
101145.395054
101144.480584
101144.182214
101148.66552
101185.224106
101248.009761
101290.243567
101296.942727
101040.563815
101130.492087
101133.855909
101141.537918
101152.499384
101166.087733
101173.911293
101171.408043
101167.045855
101161.81043
101152.032047
101143.177126
101139.108734
101136.872242
101135.946637
101138.949269
101166.761567
101225.865468
101280.112314
101293.32462
101068.212313
101127.007529
101126.112793
101129.505979
101140.377663
101151.625842
101153.273334
101148.456808
101147.949059
101149.922934
101149.227415
101147.147642
101139.648035
101131.986794
101128.141712
101127.728502
101139.858713
101192.761798
101262.470218
101287.507303
101081.339792
101098.210606
101088.852331
101092.371456
101111.236393
101124.5484
101126.692841
101128.842099
101135.549655
101143.916644
101149.528789
101149.473682
101142.285342
101132.856914
101123.275474
101112.868146
101108.232069
101152.229216
101233.341979
101278.136742
101025.65989
101004.304464
101000.861695
101015.310221
101051.76357
101078.321615
101092.195512
101103.722034
101117.891236
101131.913259
101139.362591
101140.894145
101138.028011
101132.12806
101118.597141
101098.042054
101089.139299
101113.661762
101192.455509
101262.353699
101295.008971
101294.996207
101295.004655
101295.031493
101295.074675
101295.132804
101295.205029
101295.290927
101295.390435
101295.503786
101295.631504
101295.774477
101295.934182
101296.113045
101296.314462
101296.540473
101296.788215
101297.063377
101297.436077
101301.187579
101294.964217
101294.954895
101294.965801
101294.994002
101295.03718
101295.093525
101295.161581
101295.240111
101295.32806
101295.424554
101295.52902
101295.641375
101295.762172
101295.892174
101296.030313
101296.170886
101296.306984
101296.440578
101296.589546
101296.597452
101294.805922
101294.805497
101294.819351
101294.845221
101294.880874
101294.924328
101294.973822
101295.027795
101295.084949
101295.144317
101295.205372
101295.267975
101295.331944
101295.395813
101295.455161
101295.503505
101295.537643
101295.562819
101295.589627
101295.487048
101294.535656
101294.548821
101294.56841
101294.593282
101294.622005
101294.653259
101294.685917
101294.719094
101294.752232
101294.785125
101294.817878
101294.850614
101294.882844
101294.91258
101294.936342
101294.951924
101294.962716
101294.978354
101294.998791
101294.909066
101294.19339
101294.222674
101294.251654
101294.280176
101294.307806
101294.334174
101294.359062
101294.382448
101294.404552
101294.425787
101294.446612
101294.467162
101294.486737
101294.503442
101294.515022
101294.521652
101294.528471
101294.540934
101294.548311
101294.470679
101293.820368
101293.867264
101293.908612
101293.945049
101293.977025
101294.005008
101294.029546
101294.051272
101294.070916
101294.089204
101294.10667
101294.123324
101294.138315
101294.149968
101294.157053
101294.161397
101294.168734
101294.178973
101294.179505
101294.119798
101293.45028
101293.51576
101293.571025
101293.617632
101293.656868
101293.68992
101293.71794
101293.742032
101293.763245
101293.78245
101293.800171
101293.81632
101293.830047
101293.840061
101293.846164
101293.851446
101293.860495
101293.867782
101293.864484
101293.819036
101293.113489
101293.19636
101293.264605
101293.320885
101293.367345
101293.405836
101293.438012
101293.465326
101293.48903
101293.510066
101293.528929
101293.545493
101293.55901
101293.568645
101293.575145
101293.582318
101293.592029
101293.596003
101293.591474
101293.556717
101292.840584
101292.934992
101293.011305
101293.073257
101293.123758
101293.165192
101293.199575
101293.228576
101293.253546
101293.275428
101293.294673
101293.311144
101293.324232
101293.333589
101293.340793
101293.349635
101293.358533
101293.359618
101293.355155
101293.327996
101292.658502
101292.752595
101292.82747
101292.887467
101292.935881
101292.975323
101293.007918
101293.035352
101293.058923
101293.079474
101293.097362
101293.112417
101293.124175
101293.132764
101293.1404
101293.149926
101293.156767
101293.155674
101293.151615
101293.129809
101292.580764
101292.658143
101292.718755
101292.766704
101292.805041
101292.836128
101292.861835
101292.88359
101292.902434
101292.918973
101292.933379
101292.945401
101292.954693
101292.961819
101292.969323
101292.978221
101292.982286
101292.979629
101292.975817
101292.957721
101292.598675
101292.642092
101292.675216
101292.700923
101292.721286
101292.737863
101292.751854
101292.764117
101292.775212
101292.785359
101292.794444
101292.802073
101292.807998
101292.813145
101292.81992
101292.827012
101292.828141
101292.824297
101292.82046
101292.804871
101292.677745
101292.673585
101292.669257
101292.665429
101292.662474
101292.660612
101292.65998
101292.660586
101292.662322
101292.66489
101292.667823
101292.670557
101292.672933
101292.676123
101292.681821
101292.686464
101292.684998
101292.680207
101292.676158
101292.662203
101292.758967
101292.701978
101292.657396
101292.622813
101292.596308
101292.576355
101292.56176
101292.551508
101292.544725
101292.54056
101292.538188
101292.536907
101292.536679
101292.538754
101292.543554
101292.545878
101292.542582
101292.537145
101292.532877
101292.519963
101292.764383
101292.662849
101292.586296
101292.528776
101292.485836
101292.454105
101292.431039
101292.414648
101292.403365
101292.395885
101292.391144
101292.388424
101292.387866
101292.390591
101292.395382
101292.39635
101292.392335
101292.386765
101292.382488
101292.370276
101292.610495
101292.490742
101292.404441
101292.342619
101292.298787
101292.268175
101292.247299
101292.23355
101292.224995
101292.220161
101292.218001
101292.217999
101292.220565
101292.226469
101292.232829
101292.234078
101292.230699
101292.225752
101292.221883
101292.210268
101292.234405
101292.140794
101292.080077
101292.042183
101292.02006
101292.008687
101292.004543
101292.005125
101292.008714
101292.01414
101292.020754
101292.028531
101292.038252
101292.050151
101292.060054
101292.063535
101292.062209
101292.058775
101292.055852
101292.044927
101291.62694
101291.614334
101291.621143
101291.639463
101291.664037
101291.691336
101291.719109
101291.745943
101291.771077
101291.794218
101291.81555
101291.835829
101291.856292
101291.876542
101291.891792
101291.899241
101291.901158
101291.900041
101291.898576
101291.888556
101290.859744
101290.978238
101291.088998
101291.190262
101291.281301
101291.362001
101291.432744
101291.494188
101291.547238
101291.592981
101291.632793
101291.668412
101291.701544
101291.731184
101291.752712
101291.765079
101291.77085
101291.772485
101291.772775
101291.76389
101290.093019
101290.366842
101290.596943
101290.790807
101290.954236
101291.091851
101291.207543
101291.304611
101291.385999
101291.454404
101291.512512
101291.563066
101291.608125
101291.646183
101291.673455
101291.690446
101291.699797
101291.704006
101291.705967
101291.698342
101289.544574
101289.953747
101290.285305
101290.556023
101290.778169
101290.960969
101291.111642
101291.235938
101291.338631
101291.42382
101291.495292
101291.556573
101291.609784
101291.653052
101291.68383
101291.703755
101291.715399
101291.72129
101291.724378
101291.717933
101289.413691
101289.89327
101290.275664
101290.583191
101290.83207
101291.034345
101291.199254
101291.33399
101291.444372
101291.535277
101291.611087
101291.675653
101291.730727
101291.774189
101291.804788
101291.824785
101291.836578
101291.84264
101291.845904
101291.840322
101289.800923
101290.262057
101290.627162
101290.918445
101291.152267
101291.340824
101291.493436
101291.617308
101291.718216
101291.800979
101291.869926
101291.928632
101291.978004
101292.015761
101292.041734
101292.058314
101292.067639
101292.072013
101292.074258
101292.069022
101290.680629
101291.038452
101291.320678
101291.544346
101291.722456
101291.864864
101291.979157
101292.071194
101292.14569
101292.206635
101292.257681
101292.301511
101292.337787
101292.364143
101292.381102
101292.390808
101292.395051
101292.395869
101292.395883
101292.390362
101291.926996
101292.121364
101292.272672
101292.390135
101292.481365
101292.55233
101292.607709
101292.651113
101292.68551
101292.713539
101292.737688
101292.759219
101292.77634
101292.786661
101292.790964
101292.790904
101292.787867
101292.783544
101292.780282
101292.773839
101293.367855
101293.369684
101293.364768
101293.354397
101293.340424
101293.324503
101293.308003
101293.291953
101293.277304
101293.265097
101293.256336
101293.250487
101293.244329
101293.235484
101293.224607
101293.212757
101293.200881
101293.190282
101293.182984
101293.175053
101294.833495
101294.639635
101294.4728
101294.328004
101294.202177
101294.093092
101293.999024
101293.918536
101293.850616
101293.794666
101293.750003
101293.714111
101293.682553
101293.652951
101293.625559
101293.600818
101293.579232
101293.561707
101293.549917
101293.540041
101296.186366
101295.808484
101295.485864
101295.209578
101294.973023
101294.770912
101294.598945
101294.453543
101294.331922
101294.231866
101294.150852
101294.084364
101294.027051
101293.976468
101293.932302
101293.89441
101293.86287
101293.838209
101293.821748
101293.809586
101297.330751
101296.78188
101296.312004
101295.910145
101295.567246
101295.275588
101295.028665
101294.820989
101294.648097
101294.506077
101294.390389
101294.294616
101294.212773
101294.142224
101294.082023
101294.031498
101293.990338
101293.958736
101293.93768
101293.922993
101298.203041
101297.48241
101296.868142
101296.345245
101295.901329
101295.525781
101295.209632
101294.945314
101294.726503
101294.547316
101294.400971
101294.279317
101294.175927
101294.087839
101294.013487
101293.95174
101293.901961
101293.864079
101293.8388
101293.821474
101298.691615
101297.800248
101297.048649
101296.414707
101295.881037
101295.433211
101295.059267
101294.749213
101294.494526
101294.287002
101294.117477
101293.976324
101293.856816
101293.755596
101293.670568
101293.600253
101293.543784
101293.500936
101293.472222
101293.452335
101298.608907
101297.575131
101296.714679
101295.997047
101295.399304
101294.902961
101294.492953
101294.156762
101293.883483
101293.662422
101293.482155
101293.332022
101293.205181
101293.097948
101293.0079
101292.933369
101292.873416
101292.827825
101292.797057
101292.774988
101297.734308
101296.625983
101295.716683
101294.967777
101294.351896
101293.847377
101293.436674
101293.105102
101292.839548
101292.627046
101292.45447
101292.310802
101292.189389
101292.086493
101291.999662
101291.927294
101291.868595
101291.823578
101291.792856
101291.769399
101295.861403
101294.788315
101293.925593
101293.226347
101292.661171
101292.207281
101291.846086
101291.561677
101291.339452
101291.164985
101291.024527
101290.907615
101290.808297
101290.723244
101290.6504
101290.588562
101290.537367
101290.497333
101290.469488
101290.44592
101292.818523
101291.941972
101291.262149
101290.724879
101290.303072
101289.976717
101289.728874
101289.54433
101289.408583
101289.307383
101289.227982
101289.161657
101289.103896
101289.052427
101289.006119
101288.964579
101288.928213
101288.89835
101288.876743
101288.854793
101288.522053
101288.067636
101287.747035
101287.511402
101287.343785
101287.233713
101287.17049
101287.142895
101287.139269
101287.148016
101287.159478
101287.168041
101287.171558
101287.169574
101287.162459
101287.151087
101287.136979
101287.122574
101287.11066
101287.092338
101283.090994
101283.354223
101283.578868
101283.786833
101283.981654
101284.171196
101284.357042
101284.536258
101284.70357
101284.852874
101284.979777
101285.08305
101285.163843
101285.224185
101285.266497
101285.293289
101285.307507
101285.312893
101285.313532
101285.300733
101276.825302
101278.284937
101279.188419
)
;

boundaryField
{
    emptyPatch
    {
        type            empty;
    }
    minY
    {
        type            zeroGradient;
    }
    maxY
    {
        type            prghTotalPressure;
        U               U.gas;
        p0              nonuniform List<scalar> 0();
        value           nonuniform List<scalar> 0();
    }
    maxX
    {
        type            fixedFluxPressure;
        gradient        uniform 0;
        value           nonuniform List<scalar> 
37
(
101301.187579
101296.597452
101295.487048
101294.909066
101294.470679
101294.119798
101293.819036
101293.556717
101293.327996
101293.129809
101292.957721
101292.804871
101292.662203
101292.519963
101292.370276
101292.210268
101292.044927
101291.888556
101291.76389
101291.698342
101291.717933
101291.840322
101292.069022
101292.390362
101292.773839
101293.175053
101293.540041
101293.809586
101293.922993
101293.821474
101293.452335
101292.774988
101291.769399
101290.44592
101288.854793
101287.092338
101285.300733
)
;
    }
    water_to_heater
    {
        type            fixedFluxPressure;
        gradient        uniform 0;
        value           nonuniform List<scalar> 
61
(
101304.573778
101287.71505
101287.71505
101275.745381
101275.745381
101266.422983
101266.422983
101258.132108
101252.128896
101245.850117
101245.850117
101237.363392
101237.363392
101227.112923
101227.112923
101215.186302
101209.210994
101202.754887
101202.754887
101198.526529
101198.526529
101192.317283
101192.317283
101187.187041
101181.356725
101174.112228
101174.112228
101165.858198
101165.858198
101155.488423
101155.488423
101147.88885
101134.054045
101114.558991
101114.558991
101092.914567
101092.914567
101082.586466
101082.586466
101078.359133
101075.010532
101070.786804
101070.786804
101068.195136
101068.195136
101062.952843
101062.952843
101059.117187
101053.519328
101049.568311
101049.568311
101043.60177
101043.60177
101038.463502
101038.463502
101040.563815
101068.212313
101081.339792
101081.339792
101025.65989
101025.65989
)
;
    }
    procBoundary2to3
    {
        type            processor;
        value           nonuniform List<scalar> 
41
(
100923.190425
100891.59772
100905.443081
100921.026351
100959.444102
101003.489777
101041.198479
101067.700056
101088.77459
101107.726324
101120.073938
101124.798332
101126.3628
101125.701061
101114.473146
101087.173573
101075.805356
101083.828431
101149.957018
101237.806632
101279.937048
101280.564707
101281.10523
101281.577438
101281.990725
101282.349059
101282.654313
101282.908694
101283.11632
101283.282052
101283.41094
101283.507616
101283.576546
101283.622129
101283.649593
101283.664371
101283.658657
101269.730685
101273.610202
101279.937048
101275.210146
)
;
    }
}


// ************************************************************************* //
