/*--------------------------------*- C++ -*----------------------------------*\
| =========                 |                                                 |
| \\      /  F ield         | OpenFOAM: The Open Source CFD Toolbox           |
|  \\    /   O peration     | Version:  2312                                  |
|   \\  /    A nd           | Website:  www.openfoam.com                      |
|    \\/     M anipulation  |                                                 |
\*---------------------------------------------------------------------------*/
FoamFile
{
    version     2.0;
    format      ascii;
    arch        "LSB;label=32;scalar=64";
    class       volScalarField;
    location    "0.915/water";
    object      rhom;
}
// * * * * * * * * * * * * * * * * * * * * * * * * * * * * * * * * * * * * * //

dimensions      [1 -3 0 0 0 0 0];

internalField   nonuniform List<scalar> 
1497
(
628.902543556
658.066958394
701.631797593
754.894731846
812.997908575
866.992490738
894.98396623
896.491863268
896.589950955
896.491903459
896.550870154
896.491918969
896.513129238
610.275014172
634.955181467
626.91768767
618.564941749
616.233831546
616.494903641
620.656278463
636.230803276
665.18892975
706.767682818
758.625828518
816.251005059
869.734896038
895.637382427
896.558510101
896.49188102
896.638879217
896.491906782
896.572172576
895.864795286
609.679345464
648.4940809
638.894001893
630.16505638
625.382965399
626.76831777
635.559310993
654.643309034
684.158296441
724.459875276
774.891157122
831.408684799
880.581179103
896.494050217
896.491854025
896.64843016
896.49189107
896.662792985
896.330532914
890.261979733
610.406753858
670.564612953
655.588085687
651.244818026
648.266386201
652.341168112
665.074485275
686.775523812
717.548778533
758.262522141
808.277078306
861.00442308
893.77628828
896.491825501
896.639090049
896.491869303
896.703762138
896.491891785
889.605992161
881.471012413
610.232549933
693.685361811
678.577590062
681.01926845
684.070603521
693.078203629
709.332897697
733.40865128
766.123075465
807.838149741
854.835055776
890.286214646
896.491796512
896.642427909
896.491841594
896.712754495
896.491872552
889.623680312
878.661661116
878.099101226
616.596302137
714.315061861
709.222133543
717.990708977
729.311407446
745.588414497
766.609546297
793.655041485
827.777610283
865.225095943
891.760976505
896.49176573
896.664610291
896.491809712
896.738920172
896.491844669
888.682005978
877.753168374
877.248875798
877.984561618
636.001887305
738.925329119
743.599808444
757.21523279
777.187926775
802.689031685
830.419729306
858.833478317
884.082946952
895.719915184
896.491730008
896.746018063
896.49177354
896.824851961
895.405921716
886.035800018
876.827394558
876.766147013
877.183236933
878.980463775
668.848284041
761.569744485
767.78755087
781.990092975
809.024692374
842.981267868
874.169833406
894.730078929
896.614781259
896.491684479
896.930214595
896.491730166
896.937649565
890.56908532
879.97271355
872.090182127
874.512433329
877.292383069
879.636096655
881.746757865
700.928084412
761.790037762
765.227431126
780.123406964
809.841769035
845.999446521
876.548123149
894.281867308
896.077625484
895.597191974
892.521269349
886.09374107
874.627810655
862.912793952
858.907550242
864.920191348
875.305476452
881.792215371
884.993331403
886.030215744
702.80258849
732.412620167
735.305710986
751.564770719
784.275010302
821.240360811
849.302078267
861.626483851
861.031507145
854.68528415
842.327281552
826.69840747
816.162084112
819.486349442
835.146767989
855.943863062
874.257989086
886.844706459
890.228901639
890.439733496
673.815138433
665.233614858
671.628500189
686.967843764
710.669480341
735.097573542
750.626416544
753.596857446
750.347390437
743.149657967
736.737942652
734.681536561
743.75739073
766.587441084
798.462318849
833.131125705
865.310219634
886.418549407
892.956174581
893.186502352
618.706643079
611.381378804
627.25910327
639.846127906
647.394652319
651.916737323
653.217394839
651.766097233
651.043894797
653.153480545
662.053780114
676.098774792
696.222217914
724.742405148
761.1179108
803.412748967
848.15385532
883.039962109
893.857310543
894.32315398
583.554888277
598.544361204
620.91488651
631.26200291
633.800078874
632.72804716
630.027788623
629.223336785
629.04339068
633.938703751
645.508010636
661.890408687
683.501360387
712.086470718
748.823271748
793.345846053
842.114710964
881.977798381
894.647568285
895.09515631
576.332128614
599.773774789
622.404087675
634.131918821
637.047557895
635.987457025
633.09950109
631.742636223
631.660077561
636.58743375
647.677603648
663.83406695
685.630125416
714.683449505
752.290099447
798.216539636
848.098090759
885.991883661
895.827482043
895.842312975
576.309649959
604.856131639
629.113998819
645.168612419
652.60292912
653.429147943
651.189428423
649.260966084
649.826187301
654.559685263
664.744344126
680.612641008
703.21230501
734.141536585
774.569876567
823.111739751
870.219474051
894.154650389
896.699033991
896.385065834
578.892728476
613.247442493
637.01527476
656.423484404
674.225289846
683.802040922
687.366494831
688.686659113
691.054965689
696.230909447
706.166305612
722.23022686
746.046100767
779.124349836
821.228945081
865.265235836
892.36104867
897.137115379
897.007824949
896.555892528
588.979381989
617.288665684
639.904641061
657.864062692
683.024945275
709.35685438
728.19752496
740.193121059
748.796069974
757.629988442
769.32832151
785.955943052
809.555880285
840.421664575
872.746379081
893.148797299
897.329861879
897.285332984
896.954180285
896.521026624
597.195844084
616.853530526
639.16571395
656.970279838
681.921477748
718.114399123
756.12809995
786.691977541
809.101799194
826.565280828
841.019029608
855.173751242
870.841413015
886.228477622
895.547546136
897.52665614
897.472584116
897.156075966
896.758248122
896.453021249
593.296413603
615.452666435
638.648955846
656.262151313
680.615800715
718.846449976
766.927780951
814.450055592
853.961739049
878.052673086
888.478772112
893.289453598
896.275634235
897.588640463
897.69684894
897.640305045
897.533410248
896.90414503
896.577557199
896.507046089
579.808105553
615.622481639
640.659029116
658.288811492
682.319498533
721.027947804
772.530113259
827.557137136
874.700776781
896.221394768
897.91314835
897.938762081
897.849189163
897.93098318
897.769600526
897.714232754
897.640316095
897.079045311
896.549445534
896.395327865
577.900080595
622.078766915
649.345450402
667.456789496
691.168022206
729.439844267
781.388683514
838.105688217
883.695017445
897.969981803
898.00877321
897.913186181
898.101094077
897.849218055
898.092339837
897.827868435
897.732559922
897.640315678
896.408836931
889.524081005
578.810778733
641.250013043
669.663130495
688.486642067
711.939445194
748.82011089
798.581743123
852.794526914
891.821979282
898.161027805
898.07768734
898.094557986
897.913220069
898.299897667
897.849239964
898.165800804
897.827873596
897.685737387
891.772611214
860.833412337
577.962179818
675.151565617
703.320065845
723.952724304
746.81894552
781.111387697
826.4096957
873.690774075
897.607148128
898.183907903
898.27461038
898.077130823
898.2569616
897.913244994
898.389737018
897.849249909
898.14999961
893.867554096
868.102911728
819.97543444
579.008531464
707.382449992
745.485608787
771.578848843
793.902299231
824.120138011
862.563567949
894.095780079
898.323518957
898.403636054
898.183954955
898.424483071
898.0299794
898.391016652
897.913257911
898.370906604
895.739868611
874.453848802
830.145357024
804.438397386
578.200650116
733.947830977
789.94189365
824.464050498
846.402253647
871.757358603
894.234413562
898.330352235
898.687789115
898.323576658
898.596424966
898.183983811
898.436285836
898.077768119
898.369369761
897.177817853
880.201027106
843.132069528
809.054395632
800.168622275
579.539568844
763.566336655
832.639564445
873.1664785
891.454123394
898.221048921
898.480517218
898.751611117
898.330425268
899.050171141
898.323608048
898.688547381
898.183998435
898.476166372
898.077769344
884.683360881
857.747178015
826.644091693
802.086834699
795.834180826
581.754929233
807.183434101
871.254690844
898.245631751
898.581964726
898.480409418
899.205664407
898.480616664
899.313007696
898.330460954
899.291633281
898.323622543
898.650923827
898.184000413
888.340465627
868.111751159
848.357499081
825.156224813
798.012674209
788.12240607
611.586938653
863.049616869
897.777154926
898.752009317
898.480157012
899.642351513
898.49586979
900.003128552
898.480658897
899.626738093
898.330475733
899.245837133
898.323624042
891.677610154
875.867290048
863.4087629
848.887264434
826.726180132
796.700913901
778.553196013
670.644518613
897.672802197
898.726199858
898.479409263
900.025830136
898.580718855
900.523559631
898.632669605
900.18972493
898.48067536
899.544690613
898.330475431
895.275050346
883.021962123
874.723475393
864.962021971
852.752366907
832.212064422
799.761829546
772.867818572
749.11164812
899.430687175
898.476922167
900.516154063
898.580617459
900.556111111
898.695267773
900.593042473
898.632685348
899.8335515
898.48066826
897.807219362
888.872176186
883.733251658
877.540855015
870.239240301
860.247112995
841.800399353
808.740020326
774.342175349
802.933446352
880.360287196
880.987811833
893.965098434
899.853080073
898.695207921
900.416512488
898.695255356
899.628564611
898.480610314
898.774095288
893.332122492
891.294570065
889.131706537
884.548400349
878.124505401
869.039490032
853.056009406
822.864520896
783.207493722
782.648241158
773.821340008
786.916773562
833.081622099
878.430406916
898.860998213
898.695104434
899.472614587
898.480490882
898.830731639
896.416180142
895.677521325
896.081616795
895.596187478
892.913280549
886.549529297
876.740990874
862.236178196
837.766217225
801.383724203
690.431152799
650.273612613
669.720179124
701.122751265
752.473265848
809.9456292
865.856859754
894.014763496
899.108006902
898.401121206
897.898820351
897.847296463
897.755229222
897.576482912
897.15628236
894.019429959
882.567449275
865.10745369
846.7647053
823.762016166
612.554849514
606.659685148
612.740773441
618.611928494
631.775134749
658.091684282
709.957170279
798.538307391
876.25744722
898.349272614
898.118947769
898.057261128
898.019144441
898.010251008
897.849607313
897.281463416
888.257982767
864.133246453
847.406974935
839.871032055
592.395411662
598.712307232
598.415093585
598.153905201
599.511710285
603.513646317
614.607258198
650.563228357
747.997924498
865.328668375
898.094538716
898.058209879
898.063653516
898.019117703
898.010225649
897.873865112
890.47575301
857.560062344
839.184807801
846.273641317
592.551096423
595.860754984
594.092758648
593.746041333
593.873704466
594.666056812
596.629495821
602.533907144
631.016813845
728.321882912
861.131404108
898.114897641
898.06227849
898.063642409
898.017373997
898.01021506
887.203948177
836.210449124
815.13512913
845.030199936
591.269157533
594.117666436
593.3100486
593.361912177
593.402581435
593.510529921
593.696522147
594.873391003
600.076148476
628.299922399
729.117090628
855.906668366
898.109331969
898.027836971
898.025432002
897.956897055
865.127017403
791.850364921
782.436620246
834.144287173
592.406229896
593.224924379
593.248490508
593.331282706
593.435325852
593.55789172
593.575215765
593.722259629
594.844526538
602.139067711
637.839362226
742.945662757
854.528342069
896.507608746
897.60797612
881.228970139
800.78129762
735.650714537
753.267792014
813.751599385
896.417474541
895.786922704
893.498733757
887.253024037
866.435386174
824.716536011
783.477076821
762.650112098
760.067967201
759.139569467
759.873893448
758.598184385
759.53262217
758.688525283
759.432446231
780.576361689
908.641085576
910.349303067
902.463565808
992.795029061
893.089108912
892.005690587
891.582789235
888.776965412
874.701004071
842.577151184
804.465448447
777.337563486
763.131493699
759.988231161
759.420025316
759.805284818
759.088398452
759.528640339
758.897866673
805.712644045
930.810123839
931.659585938
905.962210599
996.052965261
886.919052586
888.45660784
889.991566276
888.389418954
879.847310376
858.644902429
829.459046715
803.458454067
784.262300979
771.468017499
762.314234791
759.702131538
759.805268529
758.95939778
759.676089804
812.843792442
942.751746141
976.197580611
983.720199277
999.680723978
882.517649189
886.602391086
888.302835086
887.466620854
883.337338832
872.738364542
855.910186347
837.491418097
820.818027868
805.698087817
790.414129294
774.954899216
762.833739827
759.805251417
759.181962133
880.60019017
989.140648814
999.189526326
999.78112458
999.885320458
881.133661923
885.071534311
886.533508566
886.598123
885.450606495
882.328947281
876.494220267
868.000272476
858.145896676
847.249097171
833.574788143
815.718112903
789.553376978
759.441222493
819.762009488
973.371299965
999.480783592
999.886078627
999.885515615
999.885750258
881.200466361
884.355286578
886.010562261
886.642745394
886.991237731
887.143445192
886.041273794
883.150299986
878.34142085
871.791146606
863.352329643
849.356499809
814.697428041
790.922912917
919.947066462
996.786486191
999.886081673
999.885764369
999.886010717
999.885598682
881.811865746
884.589221974
886.339243873
887.452609815
888.696839497
889.424656976
888.798841251
886.82169704
883.417265582
878.825243082
873.395771488
861.12375827
829.557948805
833.302316236
962.89031661
999.148668945
999.885819541
999.886132492
999.885662362
999.885834703
883.584551489
885.872774038
887.782140004
889.369076126
890.668180188
890.765319866
889.872417748
887.87333709
884.894827494
881.267856806
877.497386668
868.489688207
843.066234156
851.915609915
967.474661827
999.20274677
999.886069252
999.885754069
999.886025627
999.885641714
886.95998223
888.700359578
890.437249473
891.775393743
892.237871799
891.821872984
890.685478604
888.787759397
886.261289237
883.565418883
881.534108843
877.868607184
860.476831634
856.556008581
957.420633184
998.490971072
999.88577517
999.886121799
999.885739517
999.885949638
890.85567322
891.899319291
892.904129581
893.382313
893.240760295
892.662914776
891.586104669
889.97968084
888.173854819
886.892115871
886.847979706
887.194721348
880.538896928
865.969604804
920.448060667
991.516121706
999.112028238
999.128626666
999.851743082
999.885564883
893.337289509
893.751316067
894.069468238
894.084514057
893.89459233
893.439304071
892.633732565
891.575912261
890.997579334
891.256719713
892.425083392
894.186734653
894.195385606
886.314508895
877.307252475
943.978337912
984.719161094
987.082367927
999.153756126
999.796833643
894.321044779
894.454729923
894.550167419
894.516053348
894.380756568
894.108933388
893.648334787
893.551720381
894.062629238
895.450321212
895.80824135
895.76635464
895.721789677
882.041772585
824.264310226
807.163900752
847.689783442
893.977774468
991.98930172
999.416386956
894.984402022
895.001235504
895.017554592
894.985591078
894.881009792
894.644233375
894.623548295
895.600492144
895.926528689
895.88836551
895.84961562
883.599134946
810.779948382
730.147973871
686.177755777
665.190653513
663.181295156
757.78862638
961.330662962
999.046411714
895.581586753
895.523556804
895.497299394
895.445300528
895.332900179
895.163502638
895.966996303
896.004211514
895.965321819
884.818470515
778.192032988
670.147198151
641.550376019
641.658483533
639.228049315
641.723577008
640.544514615
733.787057072
924.376278338
998.67506126
896.014677829
895.923956074
895.887838024
895.873867031
895.761902792
896.039951678
896.081178028
896.042407404
843.294187889
683.458610588
641.658471734
638.479196168
641.658472701
637.531119907
641.658473371
639.710317715
648.893520649
760.270615755
901.519672443
998.399831885
896.214714799
896.194096479
896.231040739
896.236124639
896.197288937
896.158564703
896.119837182
812.372048414
649.757840168
641.640610851
637.452451035
641.658461927
637.384141161
641.65846251
638.888070684
641.658462866
690.307073583
767.992528171
895.018210345
998.466412745
896.314859449
896.352240077
896.313532308
896.27482327
896.219067141
893.586477946
808.76142831
643.00239157
641.640601938
637.511845302
641.640602293
637.48761652
641.65845231
638.673218939
641.658452282
674.992370067
725.487222598
773.715182352
898.930821015
998.568499257
896.429641216
896.390930271
893.873996489
881.331861689
873.481580584
829.915860234
664.363355221
641.599135426
637.812809352
641.640593098
637.883332312
641.640592915
638.647005415
641.658442711
652.55010117
711.509203855
737.760309725
787.633432738
906.998320012
998.723429413
896.46833589
890.234660893
865.271299107
848.373684612
844.537502248
751.126553069
641.59912544
637.830263053
641.599125688
638.083936121
641.640583482
638.920013954
641.658433141
640.784560112
680.091860279
723.624097576
748.740823879
803.177682793
915.949585958
998.818747516
888.662815212
852.768604575
838.867696534
846.298319924
821.159674117
674.522331909
637.804478084
641.599116872
637.983488616
641.640574569
638.706241321
641.658424361
639.949010812
641.658424294
703.188232312
728.389115642
759.679981714
817.017539153
926.373102668
998.919526514
853.642726767
828.860752315
837.108554962
846.14326011
773.159282963
639.703147668
641.640564914
637.806748661
641.640565478
638.568375037
641.65841543
639.857057162
641.658415299
659.035294167
713.647087766
736.913372158
771.843197801
830.201379239
938.115504851
999.013095851
815.291248467
827.338183044
849.038061736
837.524948413
714.620255628
641.658407996
638.657751722
641.64055772
638.658615792
641.658407438
639.576160854
641.658407382
641.333145422
682.792362646
721.289396054
748.406400233
784.777357844
843.154590148
950.392540345
999.049854706
815.092932187
837.688398257
861.911418737
814.422951567
679.968429121
639.624135375
641.658400347
639.198153815
641.658400118
639.923228951
641.658399899
641.263527959
653.73241727
698.859687746
733.647898191
762.311212262
798.622267406
856.718387306
962.714770009
999.051118123
817.499475657
855.331300243
868.664930715
793.376708624
670.182176114
641.658393552
639.590074379
641.6583934
640.024602903
641.658393209
641.036878696
643.295024057
673.238314965
713.005728303
750.088863776
778.066034635
813.221021202
871.893579928
974.402065452
999.055407824
825.701279303
868.6919421
873.239702454
791.391034135
674.657203262
640.975328643
641.658387373
640.351234431
641.658387148
641.259476316
641.658386819
657.942372591
692.590187479
733.108159522
771.674822058
795.597591486
829.069252904
890.524988733
985.21191805
999.054185982
827.957752616
874.703114837
879.307875925
810.27008766
699.923148477
646.885810863
641.060982495
641.658381875
641.283451874
642.11380078
654.592177854
681.634666786
716.738753279
762.359423106
798.312085612
814.322961291
846.445467568
914.3719252
993.855642208
999.058423453
820.965400576
874.19989467
884.42827044
849.893143581
752.452607602
678.047852397
649.887037028
645.950980088
648.888170332
659.892515153
681.781054117
710.071810842
751.533739802
801.686630661
826.217221854
832.237875194
865.243661988
943.084283569
998.156696501
999.057216199
796.210589729
863.680526323
884.635534163
883.153468966
819.921341125
737.294346609
688.319055569
675.471552874
679.637473003
694.49112953
714.065088252
743.566190194
795.675279299
845.65782285
851.283027222
846.400945425
884.905365709
969.400492114
998.976841589
999.061385034
767.974385945
826.041973301
885.288010684
891.562757404
877.452447783
810.491082335
749.437347492
723.57386456
722.943959199
730.484502248
744.813082833
780.671057745
840.860647731
883.372797169
874.784792622
855.451765601
901.481576516
983.967541683
999.062407419
999.060175178
761.879759321
775.767535416
857.359379903
893.237938713
896.033295724
871.965220541
811.772357198
767.473130893
755.01590204
754.214722069
771.062129533
817.885792999
878.994365319
911.576267023
892.290085567
863.222417431
908.86356058
986.77393233
999.060573591
999.064019787
760.927957932
759.145581705
805.442799445
881.41267789
896.105878772
895.691582915
860.375209654
799.434889607
768.461936221
764.331296334
791.783547666
850.220168095
906.871573621
933.074540876
904.479366105
868.908588054
905.63297865
984.569608452
999.065385145
999.061437163
767.220808793
759.130155634
767.996867136
847.496620281
895.433883533
897.364921574
885.991451304
819.916825848
771.024036935
767.209713581
807.330188841
874.482583136
926.275579697
950.021546209
915.995324652
872.578133459
893.438582785
975.849818506
998.928790915
999.062487837
786.645599363
759.731180195
759.221501735
808.172680498
884.616152904
897.326385612
893.430121102
824.877402692
768.477882805
767.516058717
820.101263531
891.668448312
939.9281104
963.52927187
929.572721435
876.570203053
881.560845259
961.06223741
997.829526688
999.058800769
818.101531875
770.767986551
759.188629783
782.917266046
868.152179471
897.567778136
894.46021372
817.746297937
756.824832169
768.696378854
833.987563523
905.214477793
950.043130933
974.101859946
946.220375006
881.612879754
874.506881191
941.861971204
995.330590851
999.060140467
847.146254062
797.072748956
763.101742905
775.326153092
853.021424426
897.326324555
885.497667244
790.751313416
743.482537953
772.643454752
849.223468298
917.462082757
958.450760691
982.180922105
964.222480976
889.580987164
870.019628777
917.909954296
990.372002569
999.056290487
861.042328901
835.195278605
782.944224106
775.092782437
841.917100994
893.82713388
848.836726025
756.141804117
738.659630523
780.444328129
863.869001518
929.076173066
966.270888706
988.139356065
981.45617086
900.935205309
865.424684021
889.108501224
981.692850734
999.057628799
865.793539145
866.586991965
818.759329347
783.436415367
831.951569683
862.886350462
804.264846876
738.734743785
738.462579474
790.270366463
877.612981184
940.324967959
973.976925737
992.222417515
994.237005228
917.824405357
859.155947995
857.216301604
968.824119604
999.053737277
865.008085669
880.224737531
852.456826422
801.120826269
)
;

boundaryField
{
    emptyPatch
    {
        type            empty;
    }
    minY
    {
        type            calculated;
        value           nonuniform List<scalar> 0();
    }
    maxY
    {
        type            calculated;
        value           nonuniform List<scalar> 0();
    }
    water_to_cooler
    {
        type            calculated;
        value           nonuniform List<scalar> 
37
(
992.795029062
996.052965262
999.680723978
999.885320458
999.885750258
999.885598682
999.885834703
999.885641714
999.885949638
999.885564883
999.796833643
999.416386957
999.046411715
998.675061262
998.399831887
998.466412747
998.56849926
998.723429416
998.818747518
998.919526517
999.013095854
999.049854709
999.051118127
999.055407827
999.054185986
999.058423457
999.057216204
999.061385039
999.060175184
999.064019793
999.06143717
999.062487844
999.058800778
999.060140477
999.0562905
999.057628816
999.053737301
)
;
    }
    water_to_heater
    {
        type            calculated;
        value           nonuniform List<scalar> 
60
(
610.136247233
610.136206092
609.531149038
609.531114685
610.257193203
610.257168438
610.082680593
616.441718079
635.838805555
635.838795213
668.681973425
668.681964978
700.764962856
700.76495268
702.636146003
673.644494262
618.558859208
618.558840381
583.4462566
583.446242837
576.222909228
576.222896456
576.198829391
578.786583027
588.867821652
588.867790621
597.074818183
597.074779841
593.175759115
593.175722331
579.697890547
577.796238717
578.710719236
578.710698944
577.864405835
577.864390152
578.912820311
578.912808315
578.107028793
579.44760866
581.651932819
581.651928683
611.44358777
611.443584989
670.483293456
670.483291866
748.967815658
802.81113995
782.514557552
782.514557635
690.265381151
690.265383676
612.399234421
612.399243778
592.266132498
592.433470646
591.156117995
591.156127804
592.296188575
592.29619657
)
;
    }
    procBoundary1to0
    {
        type            processor;
        value           nonuniform List<scalar> 
41
(
591.385400341
593.040212598
593.18752629
593.307110317
593.417547993
593.491185935
593.567182214
593.677689091
594.008553007
598.883908722
616.446672184
667.857464848
766.565854633
848.820227591
851.813653703
803.262736326
709.509112144
692.191022431
730.513899051
793.108889473
822.85809979
827.609878644
773.936257814
736.115804778
738.298078121
801.76953418
892.017051812
951.662556021
981.645708598
995.670582155
998.680088286
939.505794804
856.037648413
827.038256364
952.284463103
999.054918602
858.572842628
884.496341341
869.172283794
822.85809979
813.124699257
)
;
    }
    procBoundary1to3
    {
        type            processor;
        value           nonuniform List<scalar> 
41
(
627.646144731
657.175504758
701.972584583
756.819269393
815.561232838
868.913072798
895.237709183
896.530037274
896.491895157
896.530901212
896.476063699
896.492723916
896.491930869
609.261462318
622.752222838
618.6787674
615.059655336
615.08603382
615.243148712
616.063405322
616.063405322
896.534672335
896.491936998
894.607405147
883.257566779
853.599361071
804.108842205
767.293662797
760.343082651
759.624233699
760.003824659
758.416532789
759.873914036
758.32143772
759.53264192
758.786472636
771.752781913
868.12528179
902.209547893
902.350223606
994.054902166
)
;
    }
}


// ************************************************************************* //
