/*--------------------------------*- C++ -*----------------------------------*\
| =========                 |                                                 |
| \\      /  F ield         | OpenFOAM: The Open Source CFD Toolbox           |
|  \\    /   O peration     | Version:  2312                                  |
|   \\  /    A nd           | Website:  www.openfoam.com                      |
|    \\/     M anipulation  |                                                 |
\*---------------------------------------------------------------------------*/
FoamFile
{
    version     2.0;
    format      ascii;
    arch        "LSB;label=32;scalar=64";
    class       volScalarField;
    location    "0.06/water";
    object      T.gas;
}
// * * * * * * * * * * * * * * * * * * * * * * * * * * * * * * * * * * * * * //

dimensions      [0 0 0 1 0 0 0];

internalField   nonuniform List<scalar> 
1496
(
393.572169992
331.025930774
310.244344324
303.382316294
301.168314173
300.449392929
300.201944357
300.105539681
300.060516004
300.035936694
300.021614435
300.012517468
300.006374373
300.002514001
300.000662914
300.000105116
300.000003319
300
300
300
387.855159426
329.190622556
309.746171875
303.251712289
301.133688413
300.438469158
300.194800465
300.100706039
300.057509255
300.034003787
300.020444089
300.011817081
300.005921622
300.002213065
300.000536271
300.000074603
300.000000206
300
300
300
382.419792381
327.541038931
309.321054583
303.195455042
301.142688456
300.443245752
300.189334368
300.095637468
300.054342106
300.032052637
300.019306898
300.011111368
300.005433437
300.001921548
300.000434634
300.00005426
300
300
300
300
378.615549483
326.462856284
309.109135781
303.267657303
301.230523383
300.47359302
300.183779496
300.089551006
300.050900345
300.030127904
300.018277225
300.010467039
300.004977891
300.001686674
300.000372119
300.000045682
300
300
300
300
377.451809358
326.555621646
309.443449694
303.639777718
301.481258373
300.554283846
300.173662715
300.082824842
300.04786995
300.028690499
300.017582877
300.010052598
300.004707131
300.001564239
300.000340432
300.000042216
300
300
300
300
378.870982741
329.316416034
311.395172631
304.8047679
302.112762322
300.749061426
300.166159216
300.079086365
300.04608567
300.02780113
300.017163075
300.009813489
300.004543455
300.001479157
300.000316365
300.000039834
300.000001437
300.000000656
300.000000463
300.000000286
382.499458613
333.840961742
314.703510875
306.822492049
303.202444348
301.090874062
300.172216309
300.078040292
300.045538945
300.027532203
300.017090953
300.00977829
300.004485409
300.001426087
300.000297024
300.000037528
300.000003421
300.00000227
300.000001765
300.000001333
385.948969077
337.253869815
317.193836815
308.32178857
304.050219806
301.396610345
300.191211428
300.081213288
300.046836097
300.028168175
300.017509724
300.010001756
300.004543907
300.001405631
300.000281573
300.000034365
300.000004597
300.000003262
300.000002567
300.000001987
388.278600156
337.398984197
316.757733257
307.825377972
303.812140096
301.354077328
300.233536021
300.08825124
300.049386697
300.029468307
300.018333014
300.010430337
300.004680374
300.001405645
300.000268558
300.000029906
300.000004401
300.0000032
300.000002559
300.000002018
388.502630319
335.736232366
315.087284813
306.600761261
303.090129995
301.107622095
300.235037131
300.09279876
300.051232383
300.030714973
300.019230298
300.010930023
300.004853429
300.001420778
300.000259971
300.000025459
300.000003201
300.000002354
300.00000194
300.000001567
386.581144112
334.191294537
313.905491401
305.789793987
302.6398477
300.912366173
300.227456821
300.094394706
300.052396131
300.031902969
300.020171614
300.011496868
300.005087771
300.001470756
300.000263584
300.000023704
300.000001865
300.000001326
300.00000114
300.000000955
384.895567772
333.604076494
313.596753429
305.460013782
302.351334587
300.764455921
300.216550126
300.094874356
300.053947295
300.033477807
300.021372768
300.01225998
300.005458968
300.001591922
300.000290692
300.000027377
300.000000933
300.000000536
300.000000489
300.000000427
384.607051701
333.989749727
313.688409564
305.115846976
301.974591129
300.659647943
300.205731014
300.096515423
300.057086961
300.035949924
300.023099153
300.013370288
300.006064749
300.001836521
300.000356387
300.000039483
300.000000543
300.000000113
300.000000111
300.0000001
384.469216472
333.162341602
311.8114059
303.178955307
301.5808006
300.584908585
300.199627857
300.101664209
300.062971141
300.039868104
300.025630336
300.014997393
300.007023545
300.002265462
300.000480368
300.000064333
300.000000898
300
300
300
391.823505461
326.046153671
304.888602032
301.805266328
301.197005873
300.516810267
300.200544543
300.114004801
300.073000666
300.045944156
300.029282718
300.017310094
300.008426982
300.002931096
300.000687382
300.000108971
300.000005009
300
300
300
411.274836795
318.889146563
303.568380875
301.358383561
300.937878739
300.464037389
300.207932688
300.135767989
300.089119287
300.05490726
300.034365166
300.020442642
300.010353627
300.00389136
300.001009079
300.000183662
300.000015778
300
300
300
425.824137519
324.922877278
304.007864266
301.202692389
300.787519457
300.425395694
300.2324493
300.162946075
300.112142445
300.066737643
300.040944823
300.02436081
300.012782409
300.005180883
300.001479582
300.000302273
300.00003658
300
300
300
430.601914832
333.774907095
306.419020984
301.459811256
300.734661877
300.428659312
300.265713586
300.194409392
300.13556999
300.081455128
300.048843536
300.028923796
300.015577172
300.006769149
300.002123774
300.000480637
300.000072281
300.000001394
300
300
432.550351149
340.383595608
309.711281005
302.272050075
300.838416417
300.460273477
300.296821175
300.216972422
300.155460534
300.099000143
300.057591634
300.033940881
300.018589362
300.008554925
300.002939059
300.000731774
300.000128466
300.000007914
300
300
433.803027944
345.407763709
313.120948247
303.539190869
301.162523745
300.553461692
300.342834721
300.245627495
300.182132159
300.116976542
300.068095048
300.039351925
300.021747875
300.010436732
300.00388634
300.001058192
300.000209137
300.000020942
300
300
433.066943223
349.145848823
316.168648278
304.948167294
301.626299946
300.695455173
300.396784192
300.271857001
300.196381376
300.13138613
300.079451992
300.045552578
300.02509159
300.012388664
300.004924519
300.001453344
300.000315741
300.000041254
300
300
423.505611763
350.705561722
318.93870424
306.506059365
302.247597425
300.90508392
300.47060214
300.302475902
300.212313126
300.144184056
300.089953906
300.052209266
300.028816056
300.014487087
300.006062325
300.001918734
300.000450439
300.000069896
300.000001108
300
406.472501925
350.369293983
321.421149523
308.261242319
303.06066164
301.216832506
300.581762532
300.34455832
300.231113365
300.156991219
300.099624289
300.058527374
300.032547479
300.016663919
300.007302862
300.002475775
300.000620709
300.000108983
300.000005777
300
393.065178061
346.473308971
322.170590605
309.647036866
303.95546267
301.63798521
300.756442019
300.415336623
300.263692761
300.180644812
300.110913119
300.064684867
300.0360492
300.018738232
300.008519392
300.003080989
300.000826401
300.000160383
300.000014081
300
388.734382264
342.570599315
322.757316159
311.001066799
304.891731718
302.115322261
300.959156544
300.494767586
300.294743061
300.192560997
300.119480402
300.069699364
300.039035641
300.020566842
300.009635427
300.003686582
300.001053684
300.000220592
300.000025259
300
388.265100157
339.871560959
321.589637198
311.06503167
305.256961624
302.384298109
301.09904876
300.553913795
300.317869918
300.201012267
300.124443249
300.072749878
300.041066146
300.021958964
300.010550137
300.004232034
300.001286424
300.000285469
300.000038331
300
389.116359378
338.23100806
320.109720733
310.524934934
305.198251752
302.456738004
301.158779279
300.584050988
300.329161134
300.20373308
300.125218837
300.073330782
300.041840929
300.022732369
300.011160013
300.004641671
300.001496098
300.000348406
300.000051698
300.000000343
391.343202435
337.733598074
318.739619922
309.802573593
304.991816167
302.435045612
301.174651849
300.593494373
300.330953363
300.201523495
300.12215684
300.071639484
300.041351705
300.022818154
300.011398567
300.004860735
300.001644066
300.00040003
300.00006317
300.000001353
397.667338889
338.871294953
317.763884075
309.639604208
305.036090798
302.498509673
301.208069226
300.603105749
300.328976767
300.196085682
300.116209315
300.068214339
300.03980174
300.022253572
300.011252924
300.004868895
300.001699692
300.000429378
300.000070263
300.00000218
401.722862592
339.537237455
316.882918405
309.295674523
304.967385691
302.500841928
301.21369213
300.598138204
300.319570953
300.186446805
300.107319588
300.063304287
300.037380715
300.021128945
300.010760673
300.004680649
300.001657637
300.000428669
300.000071061
300.000002393
403.100179487
339.906250548
316.215792224
308.481268224
304.596851885
302.367529843
301.157329194
300.565830991
300.297623065
300.171436319
300.09586664
300.05724179
300.034292028
300.019548943
300.009969352
300.004326439
300.001532402
300.000397881
300.00006518
300.000001895
403.755040927
339.781635824
315.491013172
307.673417422
304.408684547
302.313735301
301.112846994
300.520536226
300.263521237
300.151424737
300.083518667
300.050732766
300.030840332
300.017654271
300.008943963
300.00383524
300.00134317
300.000343649
300.000054001
300.000000944
404.052071821
339.529478572
314.896207735
306.88539401
304.024384772
302.146140203
301.005930528
300.430224845
300.213482235
300.130232323
300.071929595
300.044480991
300.027353302
300.015609911
300.007780597
300.003261962
300.001114458
300.000275267
300.000039876
300.000000101
403.148217488
338.797404086
314.255352194
306.159744
303.587582126
301.958431844
300.922856445
300.373013932
300.180252069
300.109211155
300.061948894
300.039013164
300.024124124
300.013594041
300.00659465
300.002674542
300.000876493
300.000202959
300.000025507
300
400.169122392
336.998391141
313.183443434
305.378501601
303.144947024
301.908240102
300.943919609
300.380230477
300.170405024
300.090745095
300.054240468
300.034677007
300.021377311
300.011769459
300.005495505
300.002131073
300.000652981
300.000136513
300.000013351
300
395.0771553
334.868086954
312.320691714
304.718230641
302.670767082
301.732811703
300.876925641
300.334950423
300.153277316
300.080233793
300.048771171
300.031443672
300.019190181
300.010234905
300.004554238
300.00165967
300.000456957
300.000083018
300.000004913
300
389.782776502
332.147914998
311.208882809
304.118221067
302.188673413
301.514459509
300.783385849
300.300131953
300.141145865
300.075598831
300.046105043
300.029542827
300.017717133
300.009114414
300.003828329
300.001258732
300.000299134
300.000045248
300.000000631
300
300
300
300
300
300
300
300
300
300
300
300
300
300
300
300
300
300
300
300
300
300
300
300
300
300
300
300
300
300
300
300
300
300
300
300
300
300
300
300
300
300
300
300
300
300
300
300
300
300
300
300
300
300
300
300
300
300
300
300
300
300
300
300
300
300
300
300
300
300
300
300
300
300
300
300
300
300
300
300
300
300
300
300
300
300
300
300
300
300
300
300
300
300
300
300
300
300
300
300
300
300
300
300
300
300
300
300
300
300
300
300
300
300
300
300
300
300.000000109
300
300
300
300
300
300
300
300
300
300
300
300
300
300
300
300
300
300
300
300.00000095
300.000000626
300.000000373
300.000000189
300.000000053
300
300
300
300
300
300
300
300
300
300
300
300
300
300
300
300.000001497
300.000001096
300.000000783
300.000000543
300.000000356
300.000000214
300.000000131
300.000000126
300.00000016
300.000000011
300
300
300
300
300
300
300
300
300
300
300.000001561
300.000001189
300.000000895
300.000000666
300.000000484
300.000000341
300.00000025
300.000000244
300.000000276
300.000000051
300
300
300
300
300
300
300
300
300
300
300.000001241
300.000000972
300.000000754
300.000000576
300.000000432
300.000000317
300.000000241
300.000000237
300.00000029
300.000000077
300
300
300
300
300
300
300
300
300
300
300.00000078
300.000000626
300.000000488
300.000000373
300.000000278
300.000000202
300.00000015
300.00000015
300.000000227
300.000000087
300.000000001
300
300
300
300
300
300
300
300
300
300.000000355
300.000000282
300.00000022
300.000000163
300.000000114
300.000000074
300.000000047
300.000000049
300.000000127
300.000000086
300.000000001
300
300
300
300
300
300
300
300
300
300.000000082
300.00000006
300.000000041
300.000000026
300.000000011
300.000000002
300
300
300.00000003
300.000000074
300.000000001
300
300
300
300
300
300
300
300
300
300
300
300
300
300
300
300
300
300
300.000000049
300.000000001
300
300
300
300
300
300
300
300
300
300
300
300
300
300
300
300
300
300
300.000000008
300
300
300
300
300
300
300
300
300
300
300
300
300
300
300
300
300
300
300
300
300
300
300
300
300
300
300
300
300
300
300
300
300
300
300
300
300
300
300
300
300
300
300
300
300
300
300
300
300
300
300
300
300
300
300
300
300
300
300
300
300
300
300
300
300
300
300
300
300
300
300
300
300
300
300
300
300
300
300
300
300
300
300
300
300
300
300
300
300
300
300
300
300
300
300
300
300
300
300
300
300
300
300
300
300
300
300
300
300
300
300
300
300
300
300
300
300
300
300
300
300
300
300
300
300
300
300
300
300
300
300
300
300
300
300
300
300
300
300
300
300
300
300
300
300
300
300
300
300
300
300
300
300
300
300
300
300
300
300
300
300
300
300
300
300
300
300
300
300
300
300
300
300
300
300
300
300
300
300
300
300
300
300
300
300
300
300
300
300
300
300
300
300
300
300
300
300
300
300
300
300
300
300
300
300
300
300
300
300
300
300
300
300
300
300
300
300
300
300
300
300
300
300
300
300
300
300
300
300
300
300
300
300
300
300
300
300
300
300
300
300
300
300
300
300
300
300
300
300
300
300
300
300
300
300
300
300
300
300
300
300
300
300
300
300
300
300
300
300
300
300
300
300
300
300
300
300
300
300
300
300
300
300
300
300
300
300
300
300
300
300
300
300
300
300
300
300
300
300
300
300
300
300
300
300
300
300
300
300
300
300
300
300
300
300
300
300
300
300
300
300
300
300
300
300
300
300
300
300
300
300
300
300
300
300
300
300
300
300
300
300
300
300
300
300
300
300
300
300
300
300
300
300
300
300
300
300
300
300
300
300
300
300
300
300
300
300
300
300
300
300
300
300
300
300
300
300
300
300
300
300
300
300
300
300
300
300
300
300
300
300
300
300
300
300
300
300
300
300
300
300
300
300
300
300
300
300
300
300
300
300
300
300
300
300
300
300
300
300
300
300
300
300
300
300
300
300
300
300
300
300
300
300
300
300
300
300
300
300
300
300
300
300
300
300
300
300
300
300
300
)
;

boundaryField
{
    emptyPatch
    {
        type            empty;
    }
    minY
    {
        type            fixedValue;
        value           nonuniform List<scalar> 0();
    }
    maxY
    {
        type            inletOutlet;
        inletValue      uniform 373;
        value           nonuniform List<scalar> 
40
(
389.782762095
332.147911345
311.208881903
304.118220862
302.188673375
301.51445949
300.783385824
300.300131928
300.141145853
300.075598815
300.046105024
300.029542806
300.01771711
300.009114393
300.003828314
300.001258725
300.000299131
300.000045248
300.000000631
300
300
300
300
300
300
300
300
300
300
300
300
300
300
300
300
300
300
300
300
300
)
;
    }
    water_to_cooler
    {
        type            copiedFixedValue;
        sourceFieldName T.liquid;
        value           nonuniform List<scalar> 
38
(
300
300
300
300
300
300
300
300
300
300
300
300
300
300
300
300
300
300
300
300
300
300
300
300
300
300
300
300
300
300
300
300
300
300
300
300
300
300
)
;
    }
    water_to_heater
    {
        type            copiedFixedValue;
        sourceFieldName T.liquid;
        value           nonuniform List<scalar> 
59
(
798.059083845
798.062706314
798.065085626
798.07110324
798.07403414
798.073842499
798.074382202
798.073608777
798.073033235
798.072842767
798.070485701
798.069706052
798.070060169
798.070086209
798.070704498
798.07155196
798.0735879
798.073995667
798.075767639
798.079144324
798.078990991
798.081182958
798.075278826
798.076719294
798.078077212
798.075966127
798.088931249
798.085266588
798.085115674
798.07849657
798.07903745
798.069913355
798.067709669
798.058143202
798.046827731
798.041690476
798.044739102
798.051289622
798.050621071
798.063984978
798.063952565
798.089252066
798.089350877
798.119765287
798.117571063
798.13822198
798.13753836
798.149913519
798.150200901
798.158013968
798.158193068
798.16606162
798.16612923
798.168718708
798.169263338
798.165211676
798.167062362
798.169066885
798.171427681
)
;
    }
    procBoundary0to1
    {
        type            processor;
        value           nonuniform List<scalar> 
41
(
399.010080199
333.18692583
310.912927492
303.593663877
301.228021906
300.466666285
300.209875329
300.11051433
300.06362527
300.037946449
300.022833937
300.013213517
300.006801033
300.002810937
300.000812953
300.000146783
300.000009609
300
300
300
300
300
300
300
300
300
300
300
300
300
300
300
300
300
300
300
300
300
300
300
300
)
;
    }
}


// ************************************************************************* //
