/*--------------------------------*- C++ -*----------------------------------*\
| =========                 |                                                 |
| \\      /  F ield         | OpenFOAM: The Open Source CFD Toolbox           |
|  \\    /   O peration     | Version:  2312                                  |
|   \\  /    A nd           | Website:  www.openfoam.com                      |
|    \\/     M anipulation  |                                                 |
\*---------------------------------------------------------------------------*/
FoamFile
{
    version     2.0;
    format      ascii;
    arch        "LSB;label=32;scalar=64";
    class       surfaceScalarField;
    location    "0.415/water";
    object      phi;
}
// * * * * * * * * * * * * * * * * * * * * * * * * * * * * * * * * * * * * * //

dimensions      [0 3 -1 0 0 0 0];

oriented        oriented;

internalField   nonuniform List<scalar> 
2929
(
1.62445539883e-07
6.01113740127e-07
1.55616926911e-07
4.5402914704e-07
1.51108874444e-07
4.49276864801e-07
1.44068164976e-07
4.6205251586e-07
1.33842983737e-07
4.80595234817e-07
1.21438074649e-07
4.96376520397e-07
1.07092233467e-07
5.12361809997e-07
9.39490696629e-08
5.23197181091e-07
8.2207281264e-08
5.29276251881e-07
7.19427153367e-08
5.31498021878e-07
6.28034128651e-08
5.30627287051e-07
5.41049245591e-08
5.27940205647e-07
4.29097649469e-08
5.33051894236e-07
3.73407063859e-08
5.40651483835e-07
3.10547379072e-08
5.44575397391e-07
1.88512147873e-08
5.48841325768e-07
-1.16133606613e-09
5.38324114098e-07
-3.39534472251e-08
4.95651031113e-07
-5.97176298838e-08
4.13024876757e-07
3.4526585199e-07
-6.73559734507e-08
1.7506918354e-07
5.8174953462e-07
1.56924072521e-07
4.55169535683e-07
1.36559543763e-07
4.63914192992e-07
1.14460284675e-07
4.82418781423e-07
9.40521245319e-08
5.00538472107e-07
7.60633754726e-08
5.14293383885e-07
5.9987624139e-08
5.28483998518e-07
4.57108657185e-08
5.37569595705e-07
3.32498505946e-08
5.41854016538e-07
2.26655295292e-08
5.42200494328e-07
1.40761606361e-08
5.39351493442e-07
6.23676071921e-09
5.35896292852e-07
2.41221813513e-09
5.37028902506e-07
4.84249545498e-09
5.38389225891e-07
5.20608771255e-09
5.44391435184e-07
-2.17564448642e-09
5.56417521199e-07
-1.27637374986e-08
5.4912050328e-07
-3.78245526649e-08
5.20915431254e-07
-6.51039496003e-08
4.40435325216e-07
3.58120732496e-07
-7.79224928975e-08
1.71152663815e-07
5.66623433698e-07
1.30706367726e-07
4.80042229149e-07
8.96024311888e-08
4.99647057308e-07
5.00963941125e-08
5.2040429626e-07
2.08248783097e-08
5.29493060273e-07
-9.98108892804e-10
5.36117163233e-07
-1.79252739444e-08
5.45493501427e-07
-3.23488951838e-08
5.52096288527e-07
-4.39377426223e-08
5.53540612592e-07
-5.14952355622e-08
5.49872337821e-07
-5.55087494128e-08
5.43471421634e-07
-5.78441000326e-08
5.38353076855e-07
-5.403546285e-08
5.33350433589e-07
-4.53993580472e-08
5.29891926729e-07
-3.72753210826e-08
5.36424258546e-07
-3.52395668223e-08
5.54566749914e-07
-3.82311579361e-08
5.52305360728e-07
-4.73764447122e-08
5.30259727322e-07
-6.9986649002e-08
4.6320076422e-07
3.74853957903e-07
-8.66618453765e-08
1.49158618368e-07
5.72723738502e-07
7.72795057833e-08
5.37465139646e-07
8.40337755406e-09
5.64010220921e-07
-5.53685771483e-08
5.83198003285e-07
-9.54606349107e-08
5.69564614495e-07
-1.19339925674e-07
5.60081646911e-07
-1.33075715547e-07
5.59323344988e-07
-1.40918353613e-07
5.60030963914e-07
-1.43294537293e-07
5.56018220013e-07
-1.39749234979e-07
5.46425668737e-07
-1.33309076258e-07
5.37130855965e-07
-1.25314674999e-07
5.30460041624e-07
-1.15199395818e-07
5.23339828425e-07
-1.02349034037e-07
5.17154826249e-07
-8.61760372017e-08
5.20384963822e-07
-7.08333827597e-08
5.39388080868e-07
-6.4110256236e-08
5.45760013047e-07
-6.09853147904e-08
5.27320601693e-07
-7.51850976792e-08
4.77563382124e-07
3.91521990906e-07
-9.17698906851e-08
1.21006055871e-07
6.11984477367e-07
2.83641816444e-08
6.17335701351e-07
-5.70276408255e-08
6.46790309224e-07
-1.37038447388e-07
6.63296358995e-07
-1.9222280629e-07
6.2504249671e-07
-2.24773946299e-07
5.92798809637e-07
-2.36763361075e-07
5.71434283721e-07
-2.34873124322e-07
5.58252097465e-07
-2.23628911477e-07
5.44877100182e-07
-2.07544809941e-07
5.30435718625e-07
-1.90493024454e-07
5.20168524968e-07
-1.74398927224e-07
5.14454839566e-07
-1.59829028726e-07
5.08862447948e-07
-1.44599418402e-07
5.02024385916e-07
-1.24651951608e-07
5.00551909769e-07
-9.92191503044e-08
5.14100519711e-07
-8.20007402659e-08
5.28711017934e-07
-7.17747570587e-08
5.17269105141e-07
-7.68776659472e-08
4.82840552722e-07
4.05138577387e-07
-9.03835731879e-08
1.18888667924e-07
6.51726534771e-07
4.41532348464e-08
6.79073359685e-07
-2.21006828608e-08
7.10751269009e-07
-9.39056424133e-08
7.35274304152e-07
-1.64905843255e-07
6.96548228997e-07
-2.19625725841e-07
6.47827077494e-07
-2.44439628882e-07
5.96433065987e-07
-2.46096307281e-07
5.60050961923e-07
-2.34796889016e-07
5.33697075854e-07
-2.1787014584e-07
5.13611098932e-07
-1.99022557177e-07
5.01413942295e-07
-1.81437733942e-07
4.96960280217e-07
-1.66229895519e-07
4.93747303874e-07
-1.51956584835e-07
4.87847668201e-07
-1.35040797935e-07
4.83740267661e-07
-1.09934939099e-07
4.89122545551e-07
-8.53612167488e-08
5.04298786717e-07
-7.23631179431e-08
5.04448376001e-07
-7.18781101299e-08
4.82535289677e-07
4.15884340828e-07
-8.24892580509e-08
1.5105041355e-07
6.55168554519e-07
1.24437000708e-07
6.88490750133e-07
9.81709259525e-08
7.31356185946e-07
6.18212253637e-08
7.7028420425e-07
-1.23316137456e-08
7.70635264219e-07
-9.23134307905e-08
7.27990030894e-07
-1.436702877e-07
6.48028428802e-07
-1.6696033497e-07
5.8353215474e-07
-1.70868302027e-07
5.37757169045e-07
-1.65264433588e-07
5.08129996571e-07
-1.54501149644e-07
4.90754027711e-07
-1.42372859394e-07
4.84927553738e-07
-1.32065311561e-07
4.83536314064e-07
-1.22888114937e-07
4.78769301156e-07
-1.132893547e-07
4.74243776342e-07
-9.74843346909e-08
4.734305e-07
-7.4553725602e-08
4.81513402755e-07
-6.1005310324e-08
4.9107037684e-07
-5.85771852816e-08
4.80290627747e-07
4.26559980706e-07
-6.90986043296e-08
1.74996026927e-07
6.35797996647e-07
1.63227599471e-07
6.80261320548e-07
1.58008371197e-07
7.29207652535e-07
1.5096657759e-07
7.74795988668e-07
1.25692045242e-07
7.95284741943e-07
5.89309443744e-08
7.94756817467e-07
-9.43894520997e-09
7.16571463341e-07
-5.1933783232e-08
6.26214679415e-07
-7.19795128208e-08
5.57972740572e-07
-7.9535369445e-08
5.15826594407e-07
-8.02130652833e-08
4.91544703364e-07
-7.72172697437e-08
4.82028387687e-07
-7.457963419e-08
4.80995601531e-07
-7.25650043219e-08
4.76854837921e-07
-7.05720557466e-08
4.72353497201e-07
-6.64821102744e-08
4.69448056589e-07
-5.32967323072e-08
4.68455142709e-07
-4.116370687e-08
4.79102383048e-07
-3.95827576808e-08
4.7889561265e-07
4.38680428864e-07
-5.1531033676e-08
1.77115779738e-07
6.11480819008e-07
1.72154634314e-07
6.65247199921e-07
1.7266074714e-07
7.20004040531e-07
1.73995381901e-07
7.7036634587e-07
1.64798970094e-07
8.03473476529e-07
1.42100677766e-07
8.17276383006e-07
8.04052554443e-08
7.78370014398e-07
4.06197634111e-08
6.66172947968e-07
1.71616384525e-08
5.81601412392e-07
3.73773577446e-09
5.29396890059e-07
-4.32007579324e-09
4.997200608e-07
-9.19749687563e-09
4.87001322747e-07
-1.34370060793e-08
4.85330527625e-07
-1.7767644631e-08
4.81283738276e-07
-2.19051223069e-08
4.76594409255e-07
-2.58184705156e-08
4.73467576291e-07
-2.49374242945e-08
4.6768779713e-07
-1.75682883016e-08
4.7188447372e-07
-1.88992459476e-08
4.80412467607e-07
4.51777071364e-07
-3.18109873617e-08
1.70852957537e-07
5.97720758019e-07
1.61927251441e-07
6.54171547573e-07
1.65742844769e-07
7.08187521747e-07
1.71371021621e-07
7.61450373572e-07
1.71247725335e-07
8.02514880045e-07
1.60125322484e-07
8.28131745234e-07
1.26241279193e-07
8.12309272263e-07
9.91065740599e-08
6.93459164625e-07
8.07120718359e-08
6.00158032018e-07
6.77248616045e-08
5.42526983793e-07
5.74119593439e-08
5.10148389544e-07
4.84323302024e-08
4.96073660419e-07
3.99593398814e-08
4.93894613527e-07
3.15807081629e-08
4.89759136298e-07
2.33497175258e-08
4.84925530429e-07
1.49592996614e-08
4.81963905944e-07
6.90500410288e-09
4.7585062765e-07
6.20808456144e-09
4.72716658849e-07
1.09691257898e-09
4.85706836008e-07
4.64551543722e-07
-1.14838663201e-08
1.68308259683e-07
5.83648547188e-07
1.61120603257e-07
6.42403435746e-07
1.62283603814e-07
6.98750367743e-07
1.67418627882e-07
7.53250075016e-07
1.69242909199e-07
7.99560175076e-07
1.64424127653e-07
8.32670469346e-07
1.5019636654e-07
8.26570128516e-07
1.36575069035e-07
7.07218432085e-07
1.248232561e-07
6.12063125171e-07
1.14212804684e-07
5.53273477525e-07
1.03921541972e-07
5.20549157329e-07
9.32211344495e-08
5.06861643921e-07
8.23525942847e-08
5.04852307618e-07
7.16586416425e-08
5.00545673466e-07
6.09113689886e-08
4.9577177825e-07
4.97104768172e-08
4.93266660364e-07
3.73489228046e-08
4.88320878377e-07
2.88188710505e-08
4.81377186505e-07
1.99002971625e-08
4.94802866765e-07
4.78410533637e-07
6.2330244824e-09
1.68113811877e-07
5.73096878095e-07
1.57896637367e-07
6.33153827581e-07
1.57663766219e-07
6.91350040357e-07
1.60938367222e-07
7.46876282089e-07
1.63183188411e-07
7.9629330166e-07
1.61597107147e-07
8.33982128827e-07
1.61680165309e-07
8.26519323573e-07
1.60657185756e-07
7.08370475381e-07
1.55906905873e-07
6.1695761424e-07
1.48657555749e-07
5.60650644785e-07
1.39437653621e-07
5.29870931216e-07
1.27712441978e-07
5.18669167507e-07
1.1534397579e-07
5.17303988807e-07
1.03137222485e-07
5.12843420051e-07
9.07776230023e-08
5.08227056606e-07
7.78802558439e-08
5.06268048235e-07
6.35779854145e-08
5.02730796591e-07
4.97982735096e-08
4.95268625809e-07
3.79692406144e-08
5.06801155166e-07
4.95575337765e-07
2.09925190699e-08
1.64274230019e-07
5.64340032224e-07
1.52768477759e-07
6.2633154131e-07
1.49962833711e-07
6.86340520423e-07
1.51192494021e-07
7.42846000019e-07
1.51838850771e-07
7.94658006285e-07
1.51264568401e-07
8.34331958228e-07
1.67889615615e-07
8.09936582279e-07
1.77512207947e-07
6.98871217468e-07
1.79061410674e-07
6.15542153574e-07
1.75037851596e-07
5.64789860294e-07
1.66671302088e-07
5.38326978013e-07
1.53849249086e-07
5.31566284594e-07
1.40699906699e-07
5.30536116324e-07
1.27622212048e-07
5.26006986968e-07
1.14273137788e-07
5.21669607837e-07
1.00290754451e-07
5.20346897428e-07
8.48944248432e-08
5.18229779218e-07
6.82794808949e-08
5.12003985013e-07
5.36045149919e-08
5.21633983496e-07
5.15782686272e-07
3.3580534473e-08
1.62383963199e-07
5.59971158293e-07
1.47864951557e-07
6.21834408649e-07
1.43712758041e-07
6.82993743443e-07
1.43273866014e-07
7.40324282093e-07
1.43704381298e-07
7.93295158849e-07
1.47319260585e-07
8.30496124491e-07
1.77472879013e-07
7.79823401801e-07
1.93886187777e-07
6.82567390868e-07
1.9897824451e-07
6.10567601078e-07
1.96250998207e-07
5.67616842922e-07
1.87297095394e-07
5.47357664235e-07
1.73669064099e-07
5.45267425769e-07
1.6012668569e-07
5.44154462968e-07
1.46569332932e-07
5.39650423008e-07
1.32642842781e-07
5.35688363223e-07
1.18075865792e-07
5.35014437333e-07
1.02128527458e-07
5.34281945128e-07
8.41251293534e-08
5.30106189048e-07
6.68705445791e-08
5.39036287412e-07
5.38352815311e-07
4.44768938091e-08
1.53048616241e-07
5.64230145692e-07
1.35575786755e-07
6.21790408187e-07
1.32236948049e-07
6.79051448816e-07
1.33900784963e-07
7.36021764154e-07
1.39295392361e-07
7.87008900979e-07
1.56337396087e-07
8.13256148935e-07
1.92051150206e-07
7.44137773751e-07
2.11133690107e-07
6.63576852398e-07
2.16785825991e-07
6.05015421836e-07
2.13419493083e-07
5.71066826352e-07
2.02586575585e-07
5.58256454099e-07
1.885949933e-07
5.59324708894e-07
1.7477706802e-07
5.5804965197e-07
1.60897900846e-07
5.53611609836e-07
1.4658259396e-07
5.50092683064e-07
1.31708847434e-07
5.49979456049e-07
1.15615286503e-07
5.50470021903e-07
9.72859405459e-08
5.48545208627e-07
7.79137164124e-08
5.58543776964e-07
5.62669873089e-07
5.37651065284e-08
1.45612581585e-07
5.77523403976e-07
1.29035906931e-07
6.2167949524e-07
1.23477417923e-07
6.78163002501e-07
1.24241379657e-07
7.32832823583e-07
1.32753139358e-07
7.77748060819e-07
1.73499862901e-07
7.72324169959e-07
2.09195214662e-07
7.08448125017e-07
2.27518444474e-07
6.45324911563e-07
2.31824953195e-07
6.00790739944e-07
2.26646806941e-07
5.76313028992e-07
2.13361981839e-07
5.71599112431e-07
1.98941816555e-07
5.73813249922e-07
1.84797417063e-07
5.72265550779e-07
1.70593756768e-07
5.67896694806e-07
1.56024919729e-07
5.64748948615e-07
1.41091431686e-07
5.65004534842e-07
1.25281113165e-07
5.6637550174e-07
1.07210713972e-07
5.66701492251e-07
8.64719321525e-08
5.79409612833e-07
5.88275533757e-07
6.10245941246e-08
1.31704746758e-07
6.04994974744e-07
1.17662200471e-07
6.20922468027e-07
1.1146342918e-07
6.78712662031e-07
1.14583917133e-07
7.2778104973e-07
1.41812610463e-07
7.49866683583e-07
1.90156633868e-07
7.23780706205e-07
2.23477507302e-07
6.7511192848e-07
2.39382094925e-07
6.29473195121e-07
2.41669266852e-07
5.98568509667e-07
2.33582989594e-07
5.84453885311e-07
2.18528161799e-07
5.86711291139e-07
2.03597707432e-07
5.88803357743e-07
1.89104243052e-07
5.86830906917e-07
1.746521238e-07
5.8242441253e-07
1.5993859953e-07
5.79540619291e-07
1.45186905206e-07
5.79836591456e-07
1.30045216571e-07
5.81597000336e-07
1.12848746389e-07
5.83993436852e-07
9.21222130066e-08
6.00251551063e-07
6.14362448499e-07
6.6181870202e-08
1.19657354318e-07
6.44736563301e-07
1.01650015335e-07
6.25173988407e-07
1.01159519757e-07
6.74423896682e-07
1.20885629133e-07
7.06313049247e-07
1.623777949e-07
7.07732546786e-07
2.03602314227e-07
6.8235210911e-07
2.31862885194e-07
6.46829195665e-07
2.44163521811e-07
6.17212924971e-07
2.43683306588e-07
5.99098625259e-07
2.31324194156e-07
5.96857864083e-07
2.15653977244e-07
6.02428660534e-07
2.00475648151e-07
6.04043671288e-07
1.85926785577e-07
6.0144343691e-07
1.71433480862e-07
5.96986708749e-07
1.56881164755e-07
5.94167366987e-07
1.42591483763e-07
5.94201554441e-07
1.28462637952e-07
5.95805447322e-07
1.12219803335e-07
6.00307761041e-07
9.24376928344e-08
6.20140445994e-07
6.39658985238e-07
6.72736257898e-08
1.19407210393e-07
6.84678887061e-07
9.72077510518e-08
6.33243677808e-07
1.0653094861e-07
6.60263532904e-07
1.36299655881e-07
6.74774598195e-07
1.74694591546e-07
6.68696607578e-07
2.09714554837e-07
6.47134055309e-07
2.31564118531e-07
6.24953659701e-07
2.39779965431e-07
6.09024174932e-07
2.34468897681e-07
6.0444340686e-07
2.19255288607e-07
6.12107807074e-07
2.03484033977e-07
6.18252581622e-07
1.8849795412e-07
6.19081015601e-07
1.74180270819e-07
6.15820048328e-07
1.60000606729e-07
6.11228261817e-07
1.45860817858e-07
6.08367075336e-07
1.32270569639e-07
6.07856294129e-07
1.19311359144e-07
6.08825767801e-07
1.04484788866e-07
6.15214091992e-07
8.62036682066e-08
6.38514101377e-07
6.63260581011e-07
6.27194846953e-08
1.21834825799e-07
7.22078897006e-07
1.00040890638e-07
6.41177809463e-07
1.13314747703e-07
6.42344275624e-07
1.43968508099e-07
6.42426663748e-07
1.78655053354e-07
6.33400636412e-07
2.05819016227e-07
6.19785051631e-07
2.21126154809e-07
6.096165045e-07
2.23896665592e-07
6.06267003914e-07
2.12726354474e-07
6.15638365637e-07
1.97348577936e-07
6.27526097888e-07
1.82143612588e-07
6.33494393839e-07
1.67758548348e-07
6.33513651127e-07
1.5407261313e-07
6.29553386967e-07
1.40451720561e-07
6.2489614014e-07
1.27070727451e-07
6.21803538532e-07
1.14389181086e-07
6.2059121237e-07
1.027704542e-07
6.20504402723e-07
9.0177877456e-08
6.27860001499e-07
7.5545525917e-08
6.53224741028e-07
6.82267704948e-07
5.66334070683e-08
1.40867323015e-07
7.37759992357e-07
1.25927024525e-07
6.40073245932e-07
1.34950154408e-07
6.27798822806e-07
1.56878409309e-07
6.18605786074e-07
1.80192781709e-07
6.09451878272e-07
1.96951229311e-07
6.02839850438e-07
2.04531327476e-07
6.01997005992e-07
1.9882594147e-07
6.1197429465e-07
1.84692679515e-07
6.29794729546e-07
1.69533855006e-07
6.42704907108e-07
1.54583114248e-07
6.48479329318e-07
1.40607512227e-07
6.47519570719e-07
1.27219990846e-07
6.42973789147e-07
1.14092898232e-07
6.38063610507e-07
1.01309726622e-07
6.34621427117e-07
8.95126774561e-08
6.32431910316e-07
7.92063926272e-08
6.30845804005e-07
6.99679383025e-08
6.37153249987e-07
6.14795337466e-08
6.6177261327e-07
6.94770031017e-07
4.90500983174e-08
1.6067053268e-07
7.30780456358e-07
1.55796959602e-07
6.25775413435e-07
1.59710423748e-07
6.16773213638e-07
1.68467831653e-07
6.07475519486e-07
1.7754525719e-07
5.99646146655e-07
1.83030495731e-07
5.97151467689e-07
1.81652242593e-07
6.03325835398e-07
1.6924878882e-07
6.24376463598e-07
1.54345290835e-07
6.4470291176e-07
1.386199216e-07
6.58452064119e-07
1.23344909939e-07
6.63769763069e-07
1.08904516435e-07
6.61981503687e-07
9.5335476938e-08
6.56567327965e-07
8.12642314891e-08
6.5214926736e-07
6.80348676386e-08
6.4788982654e-07
5.73443956746e-08
6.43148566554e-07
4.85837847033e-08
6.39645530933e-07
4.36259901651e-08
6.42142036036e-07
4.27685293967e-08
6.62667962085e-07
6.99277479495e-07
3.83073967319e-08
1.73423152256e-07
7.10078234318e-07
1.72791828095e-07
6.05300524226e-07
1.71699458669e-07
6.09551582542e-07
1.68136229628e-07
6.08249264849e-07
1.64214012921e-07
6.02752892352e-07
1.59833303381e-07
6.01316289661e-07
1.50486879868e-07
6.12618383251e-07
1.36368867529e-07
6.38478065724e-07
1.20842310658e-07
6.60238110762e-07
1.04599607112e-07
6.7469554136e-07
8.84488145188e-08
6.79930193203e-07
7.32918364996e-08
6.77146204861e-07
5.64837714727e-08
6.73371810566e-07
4.10789003842e-08
6.6759856813e-07
2.90446408982e-08
6.59944213668e-07
1.93233062834e-08
6.52892053734e-07
1.24433959272e-08
6.46539157183e-07
1.12187793638e-08
6.43379873256e-07
1.681498327e-08
6.57085503195e-07
6.95178416149e-07
2.09313742735e-08
1.77711397221e-07
6.86316397406e-07
1.6807351035e-07
5.9462390413e-07
1.60408471939e-07
6.09068135794e-07
1.46912656738e-07
6.18994782581e-07
1.3385713024e-07
6.15019831985e-07
1.23530111337e-07
6.11439736593e-07
1.11545304024e-07
6.24549077162e-07
9.80881083918e-08
6.51928655537e-07
8.31678094753e-08
6.75147883551e-07
6.65501116896e-08
6.91318070308e-07
4.93430555105e-08
6.9715045902e-07
2.7719439381e-08
6.98762884523e-07
7.15770899655e-09
6.93982899026e-07
-4.92585305578e-09
6.79688694187e-07
-1.33986999308e-08
6.68415197547e-07
-2.12246277408e-08
6.60713496599e-07
-2.61907804567e-08
6.51499708256e-07
-2.52763897907e-08
6.42458121114e-07
-1.58215230911e-08
6.47621290585e-07
6.82371489444e-07
-3.02601051468e-09
1.74039781046e-07
6.68045580927e-07
1.54071779991e-07
5.97186899998e-07
1.35034545793e-07
6.21302669476e-07
1.10858581085e-07
6.40877794743e-07
9.05235239826e-08
6.34715288376e-07
7.7419097096e-08
6.24385238512e-07
6.75849366656e-08
6.3434405993e-07
5.75805230906e-08
6.6191229786e-07
4.50515953339e-08
6.87672347644e-07
2.48947502449e-08
7.11488538802e-07
-4.47174756204e-09
7.2647892899e-07
-3.55550414055e-08
7.29835839559e-07
-4.93476512944e-08
7.07742852632e-07
-5.24999777115e-08
6.82808370883e-07
-5.54084985789e-08
6.71295766016e-07
-5.92240059965e-08
6.64501543333e-07
-6.2116478584e-08
6.54365691262e-07
-6.08886731061e-08
6.41204863299e-07
-5.07073849044e-08
6.37412115482e-07
6.63855442704e-07
-3.22289881295e-08
1.77622983777e-07
6.45775688409e-07
1.53979319144e-07
6.03701890281e-07
1.21689832375e-07
6.47075612398e-07
8.58036975448e-08
6.74682499898e-07
5.72119793061e-08
6.62740453733e-07
4.11866108029e-08
6.40257224742e-07
3.25363016781e-08
6.42934214276e-07
2.49858624524e-08
6.69415215162e-07
8.48823592039e-09
7.04127864438e-07
-2.54870037034e-08
7.45392691383e-07
-7.23406879235e-08
7.73277786211e-07
-9.78027772868e-08
7.55241854159e-07
-9.79191677331e-08
7.07804028206e-07
-9.25370702792e-08
6.77375979609e-07
-8.86559207262e-08
6.67367352648e-07
-8.71278388369e-08
6.62927164884e-07
-8.71331464822e-08
6.54326469667e-07
-8.61968597535e-08
6.40227489417e-07
-7.96043264828e-08
6.30778914442e-07
6.44674560369e-07
-6.04803799594e-08
1.84533423816e-07
6.16940166437e-07
1.55790799631e-07
6.14828939158e-07
1.22654943922e-07
6.73581816598e-07
8.89476402749e-08
7.06187804015e-07
6.04477558054e-08
6.90580150668e-07
4.17291676011e-08
6.58762179729e-07
2.89009397116e-08
6.55660317977e-07
1.46784620847e-08
6.83557955963e-07
-1.40634722236e-08
7.32790547514e-07
-6.1489016085e-08
7.92751241014e-07
-1.02520336039e-07
8.14242952318e-07
-1.16093384752e-07
7.6874251053e-07
-1.14365770027e-07
7.06003721339e-07
-1.06587401202e-07
6.69531805012e-07
-9.86210237707e-08
6.59339691672e-07
-9.39005103563e-08
6.58144897251e-07
-9.25289885622e-08
6.52894547968e-07
-9.25641724994e-08
6.40206998775e-07
-9.15716740251e-08
6.29731076655e-07
6.29991793226e-07
-7.6956340457e-08
1.70047005081e-07
6.05948332126e-07
1.41605070705e-07
6.26716487142e-07
1.24385266999e-07
6.84359134649e-07
1.09079787537e-07
7.19148159271e-07
9.20835114056e-08
7.06765966453e-07
7.45345447807e-08
6.76011925315e-07
5.75414526156e-08
6.72509969902e-07
3.72516452144e-08
7.03745073042e-07
8.59825502992e-09
7.61348228309e-07
-2.52380604025e-08
8.26486427258e-07
-5.27078051758e-08
8.41608504855e-07
-7.14991170458e-08
7.87427930727e-07
-8.09717696276e-08
7.15379054058e-07
-8.04632613481e-08
6.68941073678e-07
-7.54260247449e-08
6.54228798639e-07
-7.22952240565e-08
6.54939026783e-07
-7.29056490542e-08
6.53430098005e-07
-7.64907094818e-08
6.43723922239e-07
-8.06095788892e-08
6.33784992259e-07
6.26051820383e-07
-7.67402659719e-08
1.50681806114e-07
6.17084787275e-07
1.27584438236e-07
6.34105241515e-07
1.25767901729e-07
6.79885823759e-07
1.25414015642e-07
7.16997980173e-07
1.21506928641e-07
7.09696595489e-07
1.13545420934e-07
6.83560888761e-07
1.03523871583e-07
6.82314507414e-07
9.14463172723e-08
7.15662680021e-07
7.68167339253e-08
7.75827659084e-07
6.0396224944e-08
8.42754135819e-07
3.85965095217e-08
8.63253432886e-07
1.2166795948e-08
8.13707719615e-07
-9.19173744861e-09
7.36605031926e-07
-2.02006996413e-08
6.79843411245e-07
-2.3658241292e-08
6.57597125908e-07
-2.60309929482e-08
6.57222932427e-07
-3.09527786778e-08
6.58262919323e-07
-3.97334986136e-08
6.52423732949e-07
-4.92524680709e-08
6.4322637774e-07
6.34361028617e-07
-5.76401826446e-08
1.47823553086e-07
6.30256399774e-07
1.28423525335e-07
6.38039106355e-07
1.31001510314e-07
6.71107436631e-07
1.38315260142e-07
7.07103629022e-07
1.44730752129e-07
7.02176967676e-07
1.47674241821e-07
6.80102369573e-07
1.47523099779e-07
6.82179939546e-07
1.44938742917e-07
7.18037184129e-07
1.39225277296e-07
7.81349711249e-07
1.3224317949e-07
8.49544733278e-07
1.19940297876e-07
8.75363547533e-07
9.56564447493e-08
8.37802261273e-07
7.12274449825e-08
7.60864412719e-07
5.29962232459e-08
6.97938367109e-07
4.15526332889e-08
6.68932232411e-07
3.3001690575e-08
6.65671033092e-07
2.31607098941e-08
6.68000978249e-07
9.62238854802e-09
6.65864968023e-07
-5.54448054141e-09
6.58306095049e-07
6.51095589588e-07
-2.23729980633e-08
1.57505439811e-07
6.30497048623e-07
1.42829988512e-07
6.35812976371e-07
1.44106490416e-07
6.63184311541e-07
1.54531513881e-07
6.93937511139e-07
1.6805136345e-07
6.87438490841e-07
1.77165648376e-07
6.70396948176e-07
1.81373863746e-07
6.77639962219e-07
1.82593502316e-07
7.16576056383e-07
1.80848940599e-07
7.8287534487e-07
1.78657868122e-07
8.51518427811e-07
1.74158545931e-07
8.79642928901e-07
1.59074357771e-07
8.52665049747e-07
1.3946506456e-07
7.80271899867e-07
1.20730586745e-07
7.1650863423e-07
1.05557866467e-07
6.83976579516e-07
9.28523567176e-08
6.78260406963e-07
7.95429894808e-08
6.81195292724e-07
6.35545560347e-08
6.81743798606e-07
4.51940015467e-08
6.76566292106e-07
6.72118761617e-07
2.40659394398e-08
1.58161366472e-07
6.30300378543e-07
1.45921523517e-07
6.30621636183e-07
1.47308398833e-07
6.54936406504e-07
1.62109647859e-07
6.7631938271e-07
1.8188826858e-07
6.66388290917e-07
1.96061843885e-07
6.55599556337e-07
2.03223765411e-07
6.70122489809e-07
2.06861861181e-07
7.12676095804e-07
2.08516123767e-07
7.80981469964e-07
2.09862298044e-07
8.49931639453e-07
2.09847202228e-07
8.79415896994e-07
2.04488079411e-07
8.57781398718e-07
1.92305552131e-07
7.92230555043e-07
1.76839945885e-07
7.31789401912e-07
1.61600265723e-07
6.99071304029e-07
1.47342730109e-07
6.92389172621e-07
1.32768711991e-07
6.95642019022e-07
1.16519345917e-07
6.97870879671e-07
9.80147097639e-08
6.94962760364e-07
6.92596055766e-07
7.7420153723e-08
1.55519225535e-07
6.32142179043e-07
1.43479654469e-07
6.25078119862e-07
1.44603901221e-07
6.46929689421e-07
1.6120125896e-07
6.56943060844e-07
1.82178605036e-07
6.44189582976e-07
1.98633630813e-07
6.38556973664e-07
2.08351276368e-07
6.60063151469e-07
2.1477781418e-07
7.05987219719e-07
2.20218064266e-07
7.75291327238e-07
2.26556253528e-07
8.43337050814e-07
2.32973543805e-07
8.72739210477e-07
2.37092139427e-07
8.53399982509e-07
2.32604949828e-07
7.96475995716e-07
2.2150073954e-07
7.426935507e-07
2.07903496333e-07
7.1251121685e-07
1.94017238741e-07
7.06135745093e-07
1.80038830934e-07
7.09481722241e-07
1.65185339504e-07
7.12589093609e-07
1.48680684732e-07
7.11342671997e-07
7.099903951e-07
1.31162748631e-07
1.5251876893e-07
6.3795901126e-07
1.3929438564e-07
6.20556295517e-07
1.41438699582e-07
6.3780651906e-07
1.56048660579e-07
6.39560309329e-07
1.73181740675e-07
6.25905361528e-07
1.87315000809e-07
6.23895502914e-07
1.97056553683e-07
6.50010577356e-07
2.05068028852e-07
6.97724465621e-07
2.14416313936e-07
7.65690937083e-07
2.27529110168e-07
8.29956515253e-07
2.42638717495e-07
8.57352819328e-07
2.55428636677e-07
8.40334060627e-07
2.58514293959e-07
7.93138791213e-07
2.52638455563e-07
7.48361418493e-07
2.41817447708e-07
7.2316767143e-07
2.29515742871e-07
7.18289976534e-07
2.17408204097e-07
7.21442150085e-07
2.05240795173e-07
7.24612306148e-07
1.92411830597e-07
7.24038701306e-07
7.22721828996e-07
1.79535967812e-07
1.43809846127e-07
6.52742459045e-07
1.30899330962e-07
6.16794412883e-07
1.35862029976e-07
6.2637339044e-07
1.48274483907e-07
6.24581833325e-07
1.60370229839e-07
6.12776314258e-07
1.69997204364e-07
6.13809286969e-07
1.77541458486e-07
6.42191054411e-07
1.85375555222e-07
6.89656371353e-07
1.97667747171e-07
7.53152764318e-07
2.16604089371e-07
8.1075156483e-07
2.38935989878e-07
8.34741016283e-07
2.5760671316e-07
8.21385989994e-07
2.66477820428e-07
7.8401768343e-07
2.65730921879e-07
7.48902838989e-07
2.58414766977e-07
7.30318974047e-07
2.48912552396e-07
7.27639679507e-07
2.39858606156e-07
7.30341958694e-07
2.31471932843e-07
7.32845823374e-07
2.23102969284e-07
7.32261425715e-07
7.30093281041e-07
2.15584108316e-07
1.45813626808e-07
6.65457910481e-07
1.36176458854e-07
6.09566622347e-07
1.3934048388e-07
6.1666841562e-07
1.46760199863e-07
6.14647035754e-07
1.52784924231e-07
6.05777164827e-07
1.56894803287e-07
6.09280850397e-07
1.6072816123e-07
6.38106487628e-07
1.66601729793e-07
6.83563426978e-07
1.79340515854e-07
7.40177935919e-07
2.00512378108e-07
7.8931840759e-07
2.25228852183e-07
8.09751485147e-07
2.46162566424e-07
8.00183920236e-07
2.57979620716e-07
7.71962142685e-07
2.6042636558e-07
7.46262907033e-07
2.56085466366e-07
7.34501055102e-07
2.49925965211e-07
7.33645454612e-07
2.44492653358e-07
7.3561801777e-07
2.40109392889e-07
7.37071588248e-07
2.36346964953e-07
7.3586945756e-07
7.32212895913e-07
2.34058073283e-07
1.4950120798e-07
6.72687000436e-07
1.4309329424e-07
5.97896166383e-07
1.44213556644e-07
6.08457760855e-07
1.46787086262e-07
6.09426840669e-07
1.4717434832e-07
6.04412134157e-07
1.46049572096e-07
6.10004486861e-07
1.4597827766e-07
6.37942421772e-07
1.49033917302e-07
1.59887715719e-07
1.79643541609e-07
2.02893128339e-07
2.23374616883e-07
2.35796027079e-07
2.3929821536e-07
2.36872927901e-07
2.33772608354e-07
2.31721658349e-07
2.30878138439e-07
2.31376512687e-07
2.3377060897e-07
1.56700235221e-07
1.47493167936e-07
1.4411843073e-07
1.40097972847e-07
1.34429428311e-07
1.28338920944e-07
-4.72997365197e-08
2.70439137412e-07
-4.51293840584e-08
2.56001964973e-07
-4.27874677255e-08
2.41888835545e-07
-4.01363428857e-08
2.27572456255e-07
-3.70085358642e-08
2.12371448704e-07
-3.33339566942e-08
1.95725613359e-07
-2.92635555577e-08
1.77689991255e-07
-2.50851744665e-08
1.59028470614e-07
-2.10322472816e-08
1.40633101877e-07
-1.72330199559e-08
1.23070038924e-07
-1.37479664001e-08
1.06581286108e-07
-1.06027462181e-08
9.12020473021e-08
-7.80422468717e-09
7.68413237385e-08
-5.3457815402e-09
6.33408654517e-08
-3.21062103084e-09
5.05779800169e-08
-1.40470882833e-09
3.86810548306e-08
2.81132628344e-08
-6.46970170084e-08
3.17250408906e-07
-6.13427370654e-08
2.98400132027e-07
-5.80830291406e-08
2.82310603963e-07
-5.48928796799e-08
2.67249009193e-07
-5.17222696207e-08
2.5283134068e-07
-4.84655736013e-08
2.38632143467e-07
-4.49552804828e-08
2.24062142625e-07
-4.10233272414e-08
2.08439490209e-07
-3.66410078609e-08
1.91343273943e-07
-3.19962469729e-08
1.73045219322e-07
-2.7360999447e-08
1.54393202434e-07
-2.29305009205e-08
1.36202588214e-07
-1.88063050023e-08
1.18945825636e-07
-1.50339718609e-08
1.02808935456e-07
-1.16305334269e-08
8.77985976334e-08
-8.59796905611e-09
7.3808705498e-08
-5.92572268712e-09
6.06686567764e-08
-3.59074652692e-09
4.82429804575e-08
-1.58754143518e-09
3.6677829902e-08
2.65257221941e-08
-7.52677007019e-08
3.14597489309e-07
-7.06342213452e-08
2.93766708387e-07
-6.61989185744e-08
2.77875299506e-07
-6.19523859503e-08
2.63002504864e-07
-5.78287786606e-08
2.48707721455e-07
-5.36941933211e-08
2.3449757654e-07
-4.93580771422e-08
2.19726012009e-07
-4.46635917679e-08
2.03745018506e-07
-3.96270445834e-08
1.86306712052e-07
-3.44604361388e-08
1.67878622759e-07
-2.94105871634e-08
1.49343337347e-07
-2.46370493303e-08
1.31429062111e-07
-2.02182748211e-08
1.14527034103e-07
-1.61865337687e-08
9.87772086764e-08
-1.25511290437e-08
8.41631752801e-08
-9.30919871697e-09
7.05668150999e-08
-6.44726599181e-09
5.7806683657e-08
-3.93619811691e-09
4.57319400449e-08
-1.75719724038e-09
3.44988518806e-08
2.47685247785e-08
-8.50003918441e-08
3.12940869687e-07
-7.90111371425e-08
2.87777555969e-07
-7.33533273832e-08
2.72217495627e-07
-6.80649609656e-08
2.57714181203e-07
-6.30312221054e-08
2.43673979513e-07
-5.80739689044e-08
2.29540355301e-07
-5.29769027643e-08
2.14628941736e-07
-4.75993830471e-08
1.98367524258e-07
-4.19986745184e-08
1.80706001491e-07
-3.63955154813e-08
1.62275483051e-07
-3.10050998339e-08
1.43952920544e-07
-2.59542419689e-08
1.26378216888e-07
-2.1301026013e-08
1.09873818447e-07