/*--------------------------------*- C++ -*----------------------------------*\
| =========                 |                                                 |
| \\      /  F ield         | OpenFOAM: The Open Source CFD Toolbox           |
|  \\    /   O peration     | Version:  2312                                  |
|   \\  /    A nd           | Website:  www.openfoam.com                      |
|    \\/     M anipulation  |                                                 |
\*---------------------------------------------------------------------------*/
FoamFile
{
    version     2.0;
    format      ascii;
    arch        "LSB;label=32;scalar=64";
    class       volScalarField;
    location    "0.88/water";
    object      alphat.gas;
}
// * * * * * * * * * * * * * * * * * * * * * * * * * * * * * * * * * * * * * //

dimensions      [1 -1 -1 0 0 0 0];

internalField   nonuniform List<scalar> 
1503
(
1.91648757726e-07
8.01224244645e-08
3.4706157677e-08
2.34807595685e-08
9.57824316788e-08
7.24342876713e-07
3.05317080133e-06
6.82583179291e-06
1.02299223059e-05
1.23715374468e-05
1.34878205845e-05
1.40056697824e-05
1.42215804262e-05
1.42985499534e-05
1.43169953162e-05
1.43137204817e-05
1.43043743234e-05
1.42949827278e-05
1.42874782292e-05
1.42822099069e-05
8.88549096755e-07
6.33981686963e-07
3.28289918989e-07
1.76079974201e-07
7.36072069276e-08
5.58445731586e-08
1.25282917086e-07
7.49178628352e-07
3.19338103211e-06
7.15346031315e-06
1.05237109811e-05
1.25639389698e-05
1.35995651713e-05
1.4065831656e-05
1.42504867128e-05
1.43086624964e-05
1.43157180721e-05
1.43055372627e-05
1.42921782752e-05
1.42808518943e-05
1.23236678207e-06
1.06842605341e-06
7.12243436212e-07
4.02788758996e-07
2.18056502297e-07
1.03142241789e-07
7.47726938476e-08
1.89417761914e-07
1.02459533333e-06
3.58695438668e-06
7.26364178865e-06
1.04182162637e-05
1.24435343103e-05
1.35390499988e-05
1.4060422158e-05
1.427694538e-05
1.43485222558e-05
1.4358690393e-05
1.43472682375e-05
1.43316700294e-05
1.46762296154e-06
1.32961414972e-06
9.80015668253e-07
6.17924654695e-07
4.10860912953e-07
1.89498482934e-07
1.00296401301e-07
9.91562909292e-08
3.90254891414e-07
1.79095810358e-06
4.7788489058e-06
8.23023370954e-06
1.09706414449e-05
1.27153796775e-05
1.36732800889e-05
1.41369736247e-05
1.43307718106e-05
1.439298127e-05
1.43986974516e-05
1.43849492518e-05
1.64157982334e-06
1.52399402398e-06
1.17575894514e-06
8.05705673952e-07
4.86602077665e-07
3.23914635021e-07
1.3867641355e-07
8.99873128286e-08
1.82836773259e-07
9.11693780444e-07
3.09937669698e-06
6.35390317442e-06
9.45270111122e-06
1.17202153616e-05
1.31226071295e-05
1.38846229821e-05
1.42495894138e-05
1.43974793269e-05
1.44396419208e-05
1.44372576144e-05
1.75170840973e-06
1.66534887068e-06
1.32769791764e-06
9.54436751246e-07
6.26052652657e-07
3.56821443727e-07
2.17623977841e-07
9.42904683433e-08
1.07475997583e-07
4.60195711699e-07
1.96801976123e-06
4.83228225211e-06
8.03244466361e-06
1.06647307438e-05
1.24613883661e-05
1.35328225825e-05
1.40994401332e-05
1.43611431754e-05
1.4458991667e-05
1.44788564879e-05
1.79283606842e-06
1.74307736022e-06
1.42899814291e-06
1.06373271082e-06
7.35581989205e-07
4.61447473974e-07
2.44362319716e-07
1.28104495438e-07
7.29507069785e-08
2.23574122634e-07
1.19252078197e-06
3.61050991335e-06
6.76047509405e-06
9.62417031872e-06
1.17436857154e-05
1.31074290565e-05
1.38871939398e-05
1.42818920303e-05
1.44518389081e-05
1.45046651631e-05
1.80181466323e-06
1.76286251285e-06
1.46990729119e-06
1.12553934388e-06
8.11749620236e-07
5.44839022077e-07
3.20252163672e-07
1.62104790914e-07
7.03147621274e-08
9.89194237193e-08
6.5296494561e-07
2.62281540992e-06
5.64338651237e-06
8.64124788749e-06
1.10122058281e-05
1.2635551495e-05
1.36246227766e-05
1.41619616222e-05
1.44161386638e-05
1.45113763792e-05
1.79978527984e-06
1.76501996275e-06
1.48162060786e-06
1.15541905595e-06
8.61278017282e-07
6.08705436167e-07
3.88859325115e-07
2.0173183729e-07
9.65095856051e-08
5.11594432564e-08
2.80678343395e-07
1.78486672726e-06
4.6537986346e-06
7.72818798032e-06
1.02926006909e-05
1.2139005802e-05
1.33241797929e-05
1.40059071225e-05
1.4351789979e-05
1.44968089314e-05
1.79022490463e-06
1.75392239045e-06
1.47555425094e-06
1.16662883746e-06
8.93796748546e-07
6.57494050917e-07
4.45436268389e-07
2.5553874291e-07
1.06032540521e-07
4.95029023076e-08
9.52282844882e-08
1.03622465632e-06
3.73842387796e-06
6.8619717148e-06
9.58365822527e-06
1.16256376799e-05
1.29930251192e-05
1.38167367903e-05
1.42584700194e-05
1.44597240984e-05
1.76451974212e-06
1.72603595846e-06
1.45764110337e-06
1.17052115625e-06
9.196215762e-07
6.96823466234e-07
4.91419637772e-07
3.02349638594e-07
1.39270998899e-07
4.68720885522e-08
4.45017702972e-08
4.37196455442e-07
2.77956849467e-06
5.94061690241e-06
8.82784531268e-06
1.10727967018e-05
1.26240998766e-05
1.35928022279e-05
1.41366265011e-05
1.44005402972e-05
1.73224679788e-06
1.69260851811e-06
1.44538399369e-06
1.18351164287e-06
9.48384890137e-07
7.31380448532e-07
5.29148203296e-07
3.42253661587e-07
1.70988311985e-07
5.49764709759e-08
3.41071493279e-08
1.40395729252e-07
1.68939247065e-06
4.80025001346e-06
7.91849250157e-06
1.04319811737e-05
1.22027757812e-05
1.33333178435e-05
1.39883262977e-05
1.43210381556e-05
1.715385108e-06
1.68899357242e-06
1.46715768484e-06
1.21835024009e-06
9.83524029616e-07
7.62841083521e-07
5.61399660709e-07
3.77355094196e-07
2.01936094148e-07
7.01714511977e-08
2.69234973232e-08
4.87686707074e-08
7.18686058672e-07
3.40629675914e-06
6.77060336986e-06
9.65464495039e-06
1.17109521909e-05
1.30343765917e-05
1.38148516944e-05
1.42236491865e-05
1.76466160782e-06
1.76454323574e-06
1.54684834562e-06
1.27856924968e-06
1.02126522268e-06
7.9016168011e-07
5.90167725958e-07
4.10504314927e-07
2.35692830057e-07
9.24351953455e-08
2.91958685912e-08
2.94498770426e-08
2.10268655785e-07
1.96789670252e-06
5.352857433e-06
8.68361793882e-06
1.1119077401e-05
1.26860827544e-05
1.36151809374e-05
1.41102304801e-05
1.91099839129e-06
1.92178584079e-06
1.66388962655e-06
1.33981266675e-06
1.04884360582e-06
8.10346487496e-07
6.155272652e-07
4.4415572616e-07
2.76746254141e-07
1.22610807314e-07
3.69320606789e-08
2.19583349641e-08
5.56694914957e-08
8.40037953615e-07
3.75870970061e-06
7.47827555726e-06
1.03925375458e-05
1.22728054274e-05
1.33846096117e-05
1.3980626673e-05
2.07621016794e-06
2.05026051542e-06
1.72567953851e-06
1.36087550272e-06
1.05714650135e-06
8.2148397413e-07
6.36447807815e-07
4.78956886965e-07
3.23021869807e-07
1.60674727332e-07
4.84710940205e-08
2.01029096938e-08
3.0239291978e-08
2.20804733976e-07
2.21028002177e-06
6.06304757045e-06
9.50842308353e-06
1.17769526758e-05
1.31145465009e-05
1.38317193592e-05
2.09291686477e-06
2.06147698125e-06
1.73769810275e-06
1.36613951099e-06
1.05828959162e-06
8.26665312565e-07
6.52242066227e-07
5.09328988013e-07
3.67035748284e-07
2.02748441169e-07
6.43289420995e-08
2.20634193149e-08
1.96082600591e-08
5.81574668827e-08
9.38309293398e-07
4.54058699682e-06
8.46645137141e-06
1.11820712057e-05
1.27930500386e-05
1.36573286614e-05
2.12616087988e-06
2.09291747587e-06
1.7565990683e-06
1.37526433001e-06
1.06189449874e-06
8.31128822941e-07
6.64201967171e-07
5.33441793438e-07
4.03147267404e-07
2.39623284123e-07
8.07101514123e-08
2.45483676099e-08
1.87592160377e-08
3.56397538526e-08
2.40712592965e-07
3.01502615009e-06
7.30197589911e-06
1.04786966035e-05
1.24068457118e-05
1.34490804642e-05
2.13585792283e-06
2.10538115923e-06
1.76514557165e-06
1.3800641627e-06
1.06449498847e-06
8.34554711988e-07
6.73019046457e-07
5.51954635021e-07
4.31442208398e-07
2.68551800489e-07
9.36970583947e-08
2.62266977467e-08
1.80298550852e-08
2.38841264772e-08
8.62583167614e-08
1.58384056492e-06
6.06364407791e-06
9.66231287979e-06
1.19421278027e-05
1.31973423925e-05
2.14176329631e-06
2.11147633469e-06
1.76806958574e-06
1.37993427565e-06
1.06350949214e-06
8.35542503314e-07
6.79586569097e-07
5.67598717675e-07
4.54882031193e-07
2.89632765571e-07
1.01962831715e-07
2.68725070262e-08
1.72586816539e-08
2.09343523305e-08
5.71598083812e-08
5.94867933615e-07
4.7359003338e-06
8.71998212336e-06
1.1383433991e-05
1.28915208603e-05
2.14054755946e-06
2.11695099982e-06
1.77124970137e-06
1.37822097641e-06
1.06084749864e-06
8.36077270995e-07
6.8713589471e-07
5.84726398893e-07
4.75848311646e-07
3.03794364528e-07
1.06846060337e-07
2.70682521462e-08
1.66684483799e-08
1.87507435722e-08
3.44062595635e-08
2.43366737852e-07
3.41633891134e-06
7.6506148375e-06
1.07162744696e-05
1.2520138975e-05
2.14660080852e-06
2.12650300478e-06
1.77660517756e-06
1.37858328343e-06
1.06072694659e-06
8.39955587352e-07
6.99214299916e-07
6.04372070593e-07
4.93652461267e-07
3.13540542856e-07
1.11339795879e-07
2.77094790082e-08
1.6460936367e-08
1.74152616434e-08
2.43610033575e-08
1.22014336904e-07
2.20986858256e-06
6.44321688276e-06
9.92049534746e-06
1.20689479513e-05
2.15271406974e-06
2.13909398896e-06
1.7837951146e-06
1.38261286308e-06
1.06576983479e-06
8.49698362963e-07
7.16534771956e-07
6.24344930419e-07
5.08150849396e-07
3.21515191244e-07
1.17759752262e-07
2.94138041074e-08
1.66695013457e-08
1.69327782562e-08
2.06307620458e-08
6.73146877624e-08
1.25393710825e-06
5.11798404761e-06
8.97559726941e-06
1.15215645817e-05
2.17272676804e-06
2.14991162e-06
1.78708575682e-06
1.38665924229e-06
1.0745414031e-06
8.65007827289e-07
7.36593380212e-07
6.42763072168e-07
5.19960202616e-07
3.2890534944e-07
1.26694375105e-07
3.22146803171e-08
1.71771582944e-08
1.70671890366e-08
1.94225506554e-08
4.31475009158e-08
6.21969221798e-07
3.77607827584e-06
7.87918693409e-06
1.0864234053e-05
2.18868427709e-06
2.15263639735e-06
1.7845969597e-06
1.38910157696e-06
1.08636056588e-06
8.84556787502e-07
7.57690969902e-07
6.59341084793e-07
5.28070737118e-07
3.3441624607e-07
1.35705000914e-07
3.55594597482e-08
1.77497773092e-08
1.74983978945e-08
1.95099663233e-08
3.38993522093e-08
2.59297338824e-07
2.53276586533e-06
6.6472085216e-06
1.00885780776e-05
2.18828706517e-06
2.13317572485e-06
1.7689172982e-06
1.39110188945e-06
1.10478208835e-06
9.09676322305e-07
7.79911271164e-07
6.72778236702e-07
5.30360846525e-07
3.35731402885e-07
1.42356254676e-07
3.94462615608e-08
1.83183588743e-08
1.78910566009e-08
1.99616552531e-08
2.35976389321e-08
9.5747940941e-08
1.50788138557e-06
5.33849812149e-06
9.19725042382e-06
2.15111966894e-06
2.08448077889e-06
1.74989909407e-06
1.40630389227e-06
1.13816854173e-06
9.42647556056e-07
8.02377287521e-07
6.79990762888e-07
5.24730203267e-07
3.31887908593e-07
1.50601641254e-07
4.43335597507e-08
1.88874846931e-08
1.79967736604e-08
2.0270325014e-08
2.3142612084e-08
5.04721126461e-08
7.69877079873e-07
4.05964152229e-06
8.2063361672e-06
2.10898412696e-06
2.05863482806e-06
1.76626322015e-06
1.452293668e-06
1.18945973184e-06
9.80276340044e-07
8.19836070589e-07
6.75607912242e-07
5.12748295219e-07
3.33591366561e-07
1.63401309046e-07
5.0420972306e-08
1.96027755888e-08
1.79602600543e-08
2.01462771435e-08
2.27697806598e-08
3.65687018201e-08
3.03693506484e-07
2.8835127315e-06
7.13282858789e-06
2.1329884865e-06
2.1099379335e-06
1.84182015549e-06
1.53292852963e-06
1.25030446749e-06
1.01209481286e-06
8.2484759648e-07
6.65111646674e-07
5.08331822359e-07
3.46050602543e-07
1.81752290286e-07
5.87106634064e-08
2.07358539515e-08
1.79241473249e-08
1.98006227202e-08
2.20887411857e-08
2.63589736203e-08
1.08603012106e-07
1.83473662239e-06
5.99071576663e-06
2.22007078062e-06
2.22817059651e-06
1.96459466228e-06
1.6326995829e-06
1.30721612119e-06
1.03555684105e-06
8.26226725484e-07
6.6144859214e-07
5.17197497444e-07
3.70432374769e-07
2.08092322786e-07
7.07547645548e-08
2.26374744667e-08
1.80192314658e-08
1.95143052689e-08
2.13195783734e-08
2.41043974707e-08
5.90734297921e-08
9.6815922026e-07
4.80927228476e-06
2.31858397928e-06
2.36124495578e-06
2.0942826281e-06
1.73045282532e-06
1.36490198113e-06
1.0619308334e-06
8.34869497766e-07
6.68947273865e-07
5.3723968487e-07
4.04771915762e-07
2.43648022288e-07
8.83939829638e-08
2.57416109369e-08
1.83497477147e-08
1.94150704728e-08
2.07314001008e-08
2.2521225751e-08
4.10600710271e-08
3.95049831983e-07
3.63137102087e-06
2.4099947712e-06
2.47954008705e-06
2.20728042815e-06
1.82498774872e-06
1.42819394057e-06
1.09561734677e-06
8.5164145413e-07
6.83831550546e-07
5.62204313238e-07
4.43199902541e-07
2.85730159068e-07
1.12362242474e-07
3.04614732948e-08
1.89528253013e-08
1.95127810525e-08
2.04350153154e-08
2.14617491386e-08
2.71722260906e-08
1.4541486393e-07
2.49062312623e-06
2.47194096837e-06
2.56515899756e-06
2.29953487375e-06
1.91160911203e-06
1.49038327844e-06
1.13056818286e-06
8.70657004167e-07
7.00153914723e-07
5.85855931132e-07
4.78790376764e-07
3.28036423352e-07
1.40472355099e-07
3.68181144164e-08
1.98016638362e-08
1.97598799062e-08
2.03431526829e-08
2.07826868498e-08
2.4269240979e-08
7.40948120463e-08
1.44503226708e-06
2.5395698088e-06
2.65574944485e-06
2.39491255231e-06
1.99214971038e-06
1.54497146458e-06
1.15865345165e-06
8.85534656218e-07
7.13616810377e-07
6.04902636594e-07
5.07242426172e-07
3.63887424693e-07
1.67875509016e-07
4.41264471102e-08
2.08242508938e-08
2.00335901452e-08
2.02885990363e-08
2.03253006749e-08
2.25285061774e-08
5.25973450732e-08
6.44491103692e-07
2.62662123963e-06
2.77339818435e-06
2.50839381052e-06
2.07417438389e-06
1.59105784403e-06
1.17503698484e-06
8.92212006991e-07
7.21980701596e-07
6.18563284647e-07
5.27470866418e-07
3.89630394743e-07
1.89830476904e-07
5.12738841429e-08
2.1922457856e-08
2.02330454489e-08
2.02335870856e-08
1.99551083389e-08
2.12756591533e-08
3.24819818608e-08
2.39202299554e-07
2.73216269687e-06
2.91014721247e-06
2.6355772395e-06
2.15891523465e-06
1.62598644517e-06
1.17979506699e-06
8.91031130884e-07
7.25315715242e-07
6.27443670256e-07
5.40044242852e-07
4.04465060489e-07
2.04068042304e-07
5.73144653245e-08
2.30146092682e-08
2.03571682538e-08
2.01812325308e-08
1.96428960657e-08
2.02535949696e-08
2.76140146808e-08
1.14459911733e-07
2.87457886977e-06
3.06568750979e-06
2.75993304819e-06
2.22914394294e-06
1.6490437739e-06
1.17836857738e-06
8.86667162922e-07
7.26076721983e-07
6.32974721081e-07
5.46691542036e-07
4.09928520012e-07
2.09938527401e-07
6.17907066853e-08
2.40805706483e-08
2.04409024998e-08
2.01448047607e-08
1.94084220579e-08
1.94249874946e-08
2.41383596042e-08
7.82973553331e-08
2.91542409543e-06
3.08403186007e-06
2.68242310294e-06
2.19319035158e-06
1.63575525822e-06
1.16910137743e-06
8.8095174132e-07
7.25284849392e-07
6.35470508661e-07
5.48513731816e-07
4.09084071231e-07
2.10456291752e-07
6.47961471485e-08
2.51954044679e-08
2.05338726731e-08
2.01414725872e-08
1.92623219468e-08
1.88190017828e-08
2.16270994902e-08
5.70969380869e-08
1.42790869303e-05
1.4277772925e-05
1.42778250561e-05
1.42789219513e-05
1.42807722405e-05
1.42828525171e-05
1.42838695286e-05
1.42805637994e-05
1.42650430458e-05
1.42189804852e-05
1.41014636342e-05
1.38250103791e-05
1.32132797685e-05
1.19458802658e-05
9.56720732317e-06
5.87987522393e-06
2.10724910859e-06
3.49870693878e-07
1.09439874344e-07
4.97735082516e-07
1.42732841517e-05
1.42695161592e-05
1.42687026084e-05
1.42698261494e-05
1.42714313272e-05
1.42706006138e-05
1.42608266226e-05
1.42277595592e-05
1.41411189886e-05
1.39404925685e-05
1.35135548177e-05
1.26713458117e-05
1.1146153973e-05
8.6880076946e-06
5.39844887461e-06
2.23934606789e-06
5.36060597451e-07
1.40747958502e-07
2.57138803872e-07
9.8875189705e-07
1.4319040611e-05
1.43114243163e-05
1.43079148257e-05
1.43062601282e-05
1.43024116434e-05
1.42882689172e-05
1.42472554603e-05
1.41466377383e-05
1.39256406711e-05
1.34803276882e-05
1.26521845609e-05
1.12405219915e-05
9.07920236616e-06
6.2275642117e-06
3.24085486737e-06
1.11026117014e-06
2.75485988779e-07
1.73649841006e-07
5.17784736839e-07
1.4439119914e-06
1.43687389868e-05
1.43564815978e-05
1.43479834107e-05
1.43392600644e-05
1.43220527378e-05
1.42802657345e-05
1.41835463048e-05
1.39779408404e-05
1.35751753736e-05
1.28463214079e-05
1.163301068e-05
9.79792097957e-06
7.33675809395e-06
4.54171174628e-06
2.08362184881e-06
6.53011692179e-07
2.12013671143e-07
2.85730005562e-07
8.56044763999e-07
1.81576047537e-06
1.4421034949e-05
1.44042647789e-05
1.43884698568e-05
1.43675170037e-05
1.43274941363e-05
1.42423234144e-05
1.40666229394e-05
1.37275684225e-05
1.3120075182e-05
1.21139140707e-05
1.05855819618e-05
8.48720077337e-06
5.9509327706e-06
3.38481160781e-06
1.41379709485e-06
4.40745437583e-07
2.24242363474e-07
4.72057318375e-07
1.1993655733e-06
2.08507659009e-06
1.44673890921e-05
1.4446816461e-05
1.44213881867e-05
1.43825530874e-05
1.43097963637e-05
1.41663779047e-05
1.38932054125e-05
1.34044806345e-05
1.25911132988e-05
1.13402740666e-05
9.57911211361e-06
7.34393750548e-06
4.858787789e-06
2.56962173989e-06
1.00295665279e-06
3.42272671957e-07
2.90876170717e-07
7.11991714055e-07
1.49179788317e-06
2.26743862254e-06
1.45031979533e-05
1.44798571009e-05
1.44424337402e-05
1.43799072806e-05
1.42648834877e-05
1.40506238291e-05
1.3667515677e-05
1.3023975076e-05
1.20179123357e-05
1.05647331734e-05
8.6442316952e-06
6.36015782464e-06
3.99100670362e-06
1.97912253029e-06
7.43342739188e-07
3.09728605569e-07
4.08066899206e-07
9.68282505353e-07
1.71654389754e-06
2.38723527192e-06
1.45250627884e-05
1.45001655599e-05
1.44484566494e-05
1.43566279856e-05
1.41908433081e-05
1.38961128836e-05
1.33964330979e-05
1.26012128093e-05
1.14230633209e-05
9.80984297165e-06
7.78891414339e-06
5.51389262497e-06
3.29221205002e-06
1.5427251559e-06
5.80411776418e-07
3.24676973152e-07
5.68057371154e-07
1.20726100761e-06
1.88158723303e-06
2.46373658246e-06
1.45305754021e-05
1.45054656612e-05
1.44373608684e-05
1.43111220919e-05
1.4087529633e-05
1.37057800727e-05
1.3087746956e-05
1.21493154982e-05
1.08222542326e-05
9.08680240442e-06
7.01038218742e-06
4.78204667771e-06
2.72244039636e-06
1.21755708393e-06
4.84546051011e-07
3.80061567154e-07
7.5488508041e-07
1.41129399528e-06
2.00088101426e-06
2.51035861469e-06
1.45183475574e-05
1.44943840473e-05
1.44079873953e-05
1.42429037966e-05
1.39560453088e-05
1.34835326948e-05
1.27489943301e-05
1.16787371572e-05
1.02256196826e-05
8.3999216285e-06
6.30166442036e-06
4.14481233221e-06
2.25403463647e-06
9.76816483526e-07
4.38861109986e-07
4.71715850168e-07
9.49173304812e-07
1.57746173963e-06
2.08643351111e-06
2.53629625791e-06
1.44882724746e-05
1.44666241165e-05
1.43601795769e-05
1.41525028434e-05
1.37984223875e-05
1.32337069703e-05
1.23869572704e-05
1.11974336767e-05
9.63932109701e-06
7.74971309776e-06
5.65490213836e-06
3.58667098398e-06
1.86818707187e-06
8.02845554577e-07
4.33556068806e-07
5.9372639836e-07
1.13482310034e-06
1.7103598321e-06
2.14721667305e-06
2.54788206347e-06
1.44415560842e-05
1.44229933759e-05
1.42947330826e-05
1.40412860598e-05
1.36172864205e-05
1.29606461799e-05
1.20074171958e-05
1.07112114988e-05
9.0667820849e-06
7.1347530882e-06
5.06282415832e-06
3.09609759747e-06
1.5520505374e-06
6.83218784474e-07
4.62822208188e-07
7.37170576756e-07
1.3025308456e-06
1.81637964679e-06
2.18979194744e-06
2.54948476256e-06
1.43803134111e-05
1.43650988735e-05
1.42130887239e-05
1.39110896341e-05
1.34154180014e-05
1.2668278974e-05
1.16149587656e-05
1.02239981086e-05
8.50948605039e-06
6.55268411396e-06
4.51926368347e-06
2.66482573741e-06
1.29650232492e-06
6.08737300132e-07
5.22599422772e-07
8.91533530747e-07
1.4493694124e-06
1.90123339451e-06
2.21893150223e-06
2.54410216456e-06
1.43066720188e-05
1.42946592101e-05
1.41167458079e-05
1.37636637126e-05
1.31952172091e-05
1.23596781949e-05
1.12127669852e-05
9.73799595083e-06
7.96744228556e-06
6.00070861001e-06
4.01922189199e-06
2.28701626977e-06
1.09452064724e-06
5.72495457398e-07
6.08830999462e-07
1.04712597438e-06
1.57638077372e-06
1.96948291673e-06
2.23807846758e-06
2.53375079069e-06
1.42216388555e-05
1.42126566611e-05
1.40065994713e-05
1.36001148292e-05
1.29582319728e-05
1.20367273799e-05
1.0802518742e-05
9.25383976365e-06
7.43952418994e-06
5.47588165814e-06
3.55880247688e-06
1.95851857774e-06
9.40193585753e-07
5.69384866262e-07
7.16498186353e-07
1.1968959993e-06
1.6862181864e-06
2.02471366779e-06
2.24971550709e-06
2.51974079799e-06
1.41242834315e-05
1.41187695761e-05
1.38825526681e-05
1.34206277666e-05
1.27049752499e-05
1.1700071398e-05
1.03845150558e-05
8.77090880665e-06
6.92387122138e-06
4.9754316401e-06
3.13521710069e-06
1.67633162513e-06
8.28316898146e-07
5.9560285561e-07
8.39603248764e-07
1.33694020767e-06
1.78172609891e-06
2.06975177109e-06
2.25566005703e-06
2.50289562248e-06
1.40116370448e-05
1.401138739e-05
1.3743612781e-05
1.32246115663e-05
1.24351298661e-05
1.13494177207e-05
9.95810658825e-06
8.28785761035e-06
6.41844602384e-06
4.49721186879e-06
2.74691455751e-06
1.43825032346e-06
7.54364311764e-07
6.48003242872e-07
9.71856940381e-07
1.4659382333e-06
1.86538409535e-06
2.10681671671e-06
2.25728805552e-06
2.48374435124e-06
1.38792418414e-05
1.38880801313e-05
1.35883327149e-05
1.30111395037e-05
1.21480249071e-05
1.09840855259e-05
9.52232743838e-06
7.80330637228e-06
5.9217125921e-06
4.04024298511e-06
2.39373041474e-06
1.24258196617e-06
7.14534869092e-07
7.23403471289e-07
1.10757526869e-06
1.58414720168e-06
1.93921475123e-06
2.13763769126e-06
2.25569185511e-06
2.4626889939e-06
1.37217777593e-05
1.37460644346e-05
1.34152367835e-05
1.27794041027e-05
1.18431594179e-05
1.06036126211e-05
9.07657234072e-06
7.31654806377e-06
5.43330312038e-06
3.60518788701e-06
2.0768518395e-06
1.08782266737e-06
7.05670165496e-07
8.1810027627e-07
1.24233987956e-06
1.69250500482e-06
2.00484347116e-06
2.16355216852e-06
2.25177869317e-06
2.44013338658e-06
1.35332352566e-05
1.35823009345e-05
1.3222976257e-05
1.25289868789e-05
1.1520589767e-05
1.02082367605e-05
8.62113391207e-06
6.82809310974e-06
4.95449047239e-06
3.19454319795e-06
1.79840652312e-06
9.72289624126e-07
7.2499144999e-07
9.27783765444e-07
1.37321921077e-06
1.79208462749e-06
2.0635763897e-06
2.18558672258e-06
2.24631627464e-06
2.41655710596e-06
1.33066990535e-05
1.33932998653e-05
1.30102495948e-05
1.22599038234e-05
1.11810714017e-05
9.79909622532e-06
8.15742817613e-06
6.33988213651e-06
4.48829387355e-06
2.81236321705e-06
1.56064740049e-06
8.93826778641e-07
7.69736629684e-07
1.04784740298e-06
1.49860514414e-06
1.88387745601e-06
2.1164694727e-06
2.20451903207e-06
2.23993658716e-06
2.39252609115e-06
1.30338176029e-05
1.3174881238e-05
1.27756221393e-05
1.19724316643e-05
1.082587622e-05
9.37803994475e-06
7.68780516974e-06
5.85508153076e-06
4.03913711064e-06
2.46347573774e-06
1.36496930914e-06
8.49724998492e-07
8.36849732981e-07
1.17390968379e-06
1.61785881629e-06
1.96876804528e-06
2.16439013067e-06
2.22092482005e-06
2.23311561267e-06
2.36864724393e-06
1.27050685478e-05
1.29222642053e-05
1.25173870524e-05
1.1666766588e-05
1.0456319909e-05
8.94710102408e-06
7.21502485353e-06
5.37755242554e-06
3.61214739442e-06
2.15238449408e-06
1.21118843778e-06
8.36878913405e-07
9.22866366876e-07
1.30230080333e-06
1.73095106174e-06
2.04757024355e-06
2.20806822799e-06
2.23521562088e-06
2.22615036161e-06
2.34549021513e-06
1.23115161118e-05
1.26307724409e-05
1.22336495093e-05
1.13427184235e-05
1.00732524513e-05
8.50792078216e-06
6.7416869243e-06
4.91125522528e-06
3.21234799829e-06
1.88225824173e-06
1.09743263026e-06
8.52050970407e-07
1.02403997737e-06
1.4303352568e-06
1.83819167963e-06
2.12105220134e-06
2.24813021452e-06
2.24767246214e-06
2.21915189441e-06
2.32350808145e-06
1.18467759356e-05
1.2296872191e-05
1.19227058536e-05
1.09996952635e-05
9.67684997928e-06
8.06147475235e-06
6.26993789928e-06
4.45987476225e-06
2.84404137748e-06
1.65440266755e-06
1.02063478573e-06
8.92076223781e-07
1.13662789248e-06
1.55632126398e-06
1.94005457522e-06
2.18993207676e-06
2.28511619739e-06
2.25847880727e-06
2.21206357281e-06
2.30298470826e-06
1.13086136553e-05
1.19190279138e-05
1.15835827554e-05
1.06370420754e-05
9.26684170273e-06
7.60824649472e-06
5.80159621704e-06
4.02680440917e-06
2.51055530147e-06
1.46834951096e-06
9.77282084727e-07
9.53924984092e-07
1.25719515811e-06
1.67937123935e-06
2.03706877925e-06
2.25485723485e-06
2.31948789231e-06
2.26775370321e-06
2.2047007907e-06
2.28402031228e-06
1.06986908077e-05
1.14976992579e-05
1.12163186059e-05
1.02544492759e-05
8.84297066468e-06
7.14870844736e-06
5.3385980866e-06
3.61541303327e-06
2.21429847105e-06
1.32236430809e-06
9.64017500815e-07
1.03464884668e-06
1.38282686343e-06
1.79913154986e-06
2.12975096665e-06
2.3163879173e-06
2.35163797315e-06
2.27558371815e-06
2.19679840728e-06
2.26654523857e-06
1.00186199509e-05
1.10339401894e-05
1.08216115951e-05
9.8521073424e-06
8.40541076807e-06
6.68386774795e-06
4.88352916876e-06
3.22934470749e-06
1.95689519979e-06
1.21402969606e-06
9.77890914092e-07
1.13130176038e-06
1.51121714941e-06
1.91554127795e-06
2.21857135338e-06
2.37499855558e-06
2.38190634331e-06
2.28205079659e-06
2.18805053403e-06
2.25033687463e-06
9.26560295794e-06
1.05274875647e-05
1.04002061613e-05
9.43070768709e-06
7.95507231632e-06
6.21569415283e-06
4.43997045958e-06
2.87255504443e-06
1.73919060773e-06
1.14067409429e-06
1.01630413739e-06
1.24093253572e-06
1.64066213093e-06
2.02867956394e-06
2.30394942663e-06
2.43109567485e-06
2.41060087869e-06
2.28725398917e-06
2.17813568633e-06
2.23501584523e-06
8.43504418593e-06
9.97664247474e-06
9.95278652959e-06
8.99153360193e-06
7.49379318731e-06
5.74728534976e-06
4.01245085147e-06
2.54895161661e-06
1.56113348125e-06
1.09962022177e-06
1.07682660185e-06
1.3606912016e-06
1.76999973538e-06
2.13870173487e-06
2.38626862047e-06
2.48504038841e-06
2.43801495661e-06
2.29132521325e-06
2.16673303101e-06
2.22001504905e-06
7.52713811032e-06
9.38012423732e-06
9.48046233955e-06
8.53657268873e-06
7.024293497e-06
5.28265968098e-06
3.60597774205e-06
2.26179037019e-06
1.42172821914e-06
1.0883304817e-06
1.15704889517e-06
1.488012448e-06
1.89852637529e-06
2.24582615866e-06
2.46589246138e-06
2.53716196192e-06
2.46443463735e-06
2.29444092097e-06
2.15354464072e-06
2.20453969916e-06
6.54626451286e-06
8.73723249288e-06
8.98477891247e-06
8.06826672742e-06
6.54975228401e-06
4.82620561206e-06
3.2253467291e-06
2.01316560947e-06
1.31921949697e-06
1.10450194245e-06
1.25454995789e-06
1.62078740978e-06
2.02590088793e-06
2.35032726335e-06
2.5431666034e-06
2.58775513654e-06
2.49013257816e-06
2.29683042552e-06
2.13833758137e-06
2.18755599149e-06
5.50601341726e-06
8.04807168772e-06
8.46731103942e-06
7.58890640205e-06
6.07315421464e-06
4.38207646518e-06
2.87460265367e-06
1.80389260392e-06
1.25149472822e-06
1.14610374539e-06
1.36695511257e-06
1.75743811032e-06
2.15203349966e-06
2.45250664239e-06
2.61840127234e-06
2.63706386613e-06
2.51535203479e-06
2.29877934877e-06
2.12100793991e-06
2.16784990084e-06
4.44066534922e-06
7.31942770569e-06
7.93049328365e-06
7.10026471125e-06
5.59684769699e-06
3.95394977813e-06
2.55695710169e-06
1.63382788603e-06
1.21652140015e-06
1.21131945636e-06
1.49200788058e-06
1.89685757645e-06
2.27695936723e-06
2.55263998905e-06
2.6918424427e-06
2.685263403e-06
2.54029017677e-06
2.30062546591e-06
2.10165113313e-06
2.14417634361e-06
3.37656936531e-06
6.56681541764e-06
7.37821802406e-06
6.60359923459e-06
5.12276046147e-06
3.54546658e-06
2.27518206844e-06
1.50239288949e-06
1.21259800396e-06
1.29837750394e-06
1.62759106483e-06
2.03824640428e-06
2.40071469601e-06
2.65092262189e-06
2.76365195849e-06
2.73245722118e-06
2.56509252021e-06
2.3027463132e-06
2.08061051719e-06
2.11547346036e-06
2.3099941332e-06
5.80330039952e-06
6.81394315169e-06
6.10006133894e-06
4.6535175001e-06
3.161203088e-06
2.03207881236e-06
1.40893599672e-06
1.23829734152e-06
1.40532363118e-06
1.77170052025e-06
2.18093447391e-06
2.52325601155e-06
2.74744869254e-06
2.8339173709e-06
2.77869893817e-06
2.58986421471e-06
2.30553981681e-06
2.05847869734e-06
2.08106953127e-06
1.32681342723e-06
5.0271985097e-06
6.23945683712e-06
5.59193777041e-06
4.1939586123e-06
2.80730302525e-06
1.83042738383e-06
1.35272448045e-06
1.2921733993e-06
1.52986894284e-06
1.92243961805e-06
2.32428515773e-06
2.64445842388e-06
2.84224264558e-06
2.9026920763e-06
2.8240277186e-06
2.61468174198e-06
2.30937811161e-06
2.03599203311e-06
2.04070115603e-06
6.36029294713e-07
4.23006429358e-06
5.65831860392e-06
)
;

boundaryField
{
    emptyPatch
    {
        type            empty;
    }
    minY
    {
        type            zeroGradient;
    }
    maxY
    {
        type            calculated;
        value           nonuniform List<scalar> 0();
    }
    water_to_cooler
    {
        type            compressible::alphatWallBoilingWallFunction;
        phaseType       vapor;
        relax           constant 1;
        partitioningModel
        {
            type            Lavieville;
            alphaCrit       0.2;
        }
        otherPhase      liquid;
        dmdt            uniform 0;
        dDep            uniform 1e-05;
        qQuenching      uniform 0;
        alphatConv      uniform 0;
        value           uniform 3.01273722487e-05;
    }
    water_to_heater
    {
        type            compressible::alphatWallBoilingWallFunction;
        phaseType       vapor;
        relax           constant 1;
        partitioningModel
        {
            type            Lavieville;
            alphaCrit       0.2;
        }
        otherPhase      liquid;
        dmdt            uniform 0;
        dDep            uniform 1e-05;
        qQuenching      uniform 0;
        alphatConv      uniform 0;
        value           nonuniform List<scalar> 
61
(
5.11413955888e-11
1.0125410955e-07
1.0125410955e-07
1.0432142965e-07
1.0432142965e-07
1.04322269197e-07
1.04322269197e-07
7.82978223089e-08
4.66642937823e-08
3.6284596328e-08
3.6284596328e-08
3.67448727591e-08
3.67448727591e-08
3.60624757564e-08
3.60624757564e-08
3.67919581491e-08
3.54141505056e-08
3.64108375629e-08
3.64108375629e-08
3.54141505056e-08
3.54141505056e-08
3.05892077935e-08
3.05892077935e-08
2.38778522459e-08
3.54760012546e-08
1.02701660098e-07
1.02701660098e-07
1.12866858222e-07
1.12866858222e-07
1.06012219535e-07
1.06012219535e-07
1.15227101992e-07
1.06012219535e-07
1.15077556808e-07
1.15077556808e-07
1.06012219535e-07
1.06012219535e-07
1.11866971895e-07
1.11866971895e-07
1.06012219535e-07
1.08125255716e-07
1.05865928812e-07
1.05865928812e-07
9.82838232622e-08
9.82838232622e-08
6.25175158668e-08
6.25175158668e-08
3.93723022362e-08
3.7288259547e-08
4.4673761025e-08
4.4673761025e-08