/*--------------------------------*- C++ -*----------------------------------*\
| =========                 |                                                 |
| \\      /  F ield         | OpenFOAM: The Open Source CFD Toolbox           |
|  \\    /   O peration     | Version:  2312                                  |
|   \\  /    A nd           | Website:  www.openfoam.com                      |
|    \\/     M anipulation  |                                                 |
\*---------------------------------------------------------------------------*/
FoamFile
{
    version     2.0;
    format      ascii;
    arch        "LSB;label=32;scalar=64";
    class       volScalarField;
    location    "0.325/water";
    object      alphat.gas;
}
// * * * * * * * * * * * * * * * * * * * * * * * * * * * * * * * * * * * * * //

dimensions      [1 -1 -1 0 0 0 0];

internalField   nonuniform List<scalar> 
1496
(
3.16296818012e-06
3.2745420873e-06
2.68277007358e-06
1.8716129182e-06
1.42085449698e-06
1.26653226688e-06
1.15706545594e-06
1.04742699673e-06
9.92179602499e-07
9.85125124286e-07
9.67944737256e-07
9.10453532273e-07
8.26488357216e-07
7.34738063029e-07
6.40355842403e-07
5.36489629801e-07
4.12257715709e-07
2.72214996638e-07
1.45983614036e-07
6.4584462651e-08
3.13116127432e-06
3.13730503323e-06
2.61481837084e-06
1.93030581412e-06
1.51084239116e-06
1.34096975865e-06
1.2233333005e-06
1.11651332284e-06
1.05702885919e-06
1.02819724528e-06
9.87021381291e-07
9.1915590698e-07
8.36128802274e-07
7.49689828994e-07
6.60832201806e-07
5.59933945581e-07
4.36409981086e-07
2.95816967925e-07
1.64957014031e-07
7.53594562219e-08
3.13822062926e-06
3.11995773927e-06
2.67179053883e-06
2.10064201294e-06
1.70690255074e-06
1.48808672069e-06
1.32478445591e-06
1.19464229986e-06
1.11283895302e-06
1.06076973758e-06
1.00489903719e-06
9.33054527189e-07
8.52987000775e-07
7.72472460983e-07
6.88585106046e-07
5.89583903488e-07
4.66345517816e-07
3.24072062113e-07
1.86610497703e-07
8.72979778882e-08
3.36856171809e-06
3.39098980841e-06
2.96557094255e-06
2.41972417637e-06
1.98520984145e-06
1.68935241487e-06
1.46488711005e-06
1.28934498987e-06
1.16955786268e-06
1.09321405926e-06
1.0282118108e-06
9.56513410667e-07
8.80797472146e-07
8.05365757901e-07
7.24352014074e-07
6.26038561167e-07
5.02606290272e-07
3.57330941724e-07
2.11310208142e-07
1.00685692682e-07
3.76653223127e-06
3.84643959332e-06
3.41871964404e-06
2.82154235597e-06
2.31784498149e-06
1.95322218625e-06
1.6609087237e-06
1.41811147813e-06
1.24312174713e-06
1.13687381119e-06
1.06337314135e-06
9.92586199616e-07
9.20171609695e-07
8.47205740705e-07
7.6713474095e-07
6.69153711669e-07
5.45129184061e-07
3.95547660276e-07
2.39264794693e-07
1.15885715959e-07
4.00617194022e-06
4.11378793215e-06
3.70660184055e-06
3.13325072818e-06
2.63581308176e-06
2.24078349031e-06
1.88525353999e-06
1.56821000293e-06
1.3333912138e-06
1.19457723047e-06
1.10987529236e-06
1.03691695794e-06
9.65221219173e-07
8.93025454475e-07
8.13718356199e-07
7.16608365055e-07
5.91894977506e-07
4.3717417938e-07
2.69839594733e-07
1.3313753599e-07
3.29075214846e-06
4.11709714409e-06
3.91682941818e-06
3.39071912844e-06
2.88478821465e-06
2.46089549809e-06
2.06235270428e-06
1.69374253504e-06
1.41567896989e-06
1.25128577163e-06
1.1521773352e-06
1.07354269421e-06
1.00218198269e-06
9.32804677084e-07
8.57015813191e-07
7.62861983889e-07
6.38152025479e-07
4.78473670842e-07
3.00988748888e-07
1.52099818132e-07
2.899576789e-06
4.21263918974e-06
4.19819612608e-06
3.64781282022e-06
3.07003965601e-06
2.57805010347e-06
2.13878455713e-06
1.75367951754e-06
1.46459063026e-06
1.28700239929e-06
1.17017379693e-06
1.08551156629e-06
1.0179288491e-06
9.56618924748e-07
8.89278035863e-07
8.01383948728e-07
6.78226588653e-07
5.14788282822e-07
3.29883645279e-07
1.71871465114e-07
2.7083831776e-06
4.22174445069e-06
4.35631804886e-06
3.82754849662e-06
3.19917545747e-06
2.62761898945e-06
2.12955812048e-06
1.73657666361e-06
1.45900909963e-06
1.27902744361e-06
1.15278741475e-06
1.06817155317e-06
1.00986082573e-06
9.6234463474e-07
9.08329219722e-07
8.29584461199e-07
7.09414372558e-07
5.43788275203e-07
3.5472991899e-07
1.90841553011e-07
2.5476496604e-06
3.99454731654e-06
4.27958561959e-06
3.87481336403e-06
3.27169569882e-06
2.64984474273e-06
2.09115082958e-06
1.68730172074e-06
1.41423294973e-06
1.23355454292e-06
1.10895275782e-06
1.03112297627e-06
9.86323047808e-07
9.56202831569e-07
9.18442030274e-07
8.5002955118e-07
7.3244388667e-07
5.64817555986e-07
3.73439089838e-07
2.06305266305e-07
2.61166845647e-06
3.65507459346e-06
4.00539715301e-06
3.78360815281e-06
3.28876571976e-06
2.68582776554e-06
2.10139109729e-06
1.66357254995e-06
1.36920276978e-06
1.1759377731e-06
1.05227793719e-06
9.83960705859e-07
9.55750350126e-07
9.45582917829e-07
9.25270188131e-07
8.65733829213e-07
7.48087103373e-07
5.78058175791e-07
3.85825168727e-07
2.17548401553e-07
2.6072545386e-06
3.36400486832e-06
3.68523638567e-06
3.6029253138e-06
3.24541047179e-06
2.71925303581e-06
2.15179342704e-06
1.68337936775e-06
1.35177545305e-06
1.13449126525e-06
1.00356968626e-06
9.41894782508e-07
9.30142364542e-07
9.39894145438e-07
9.34160136233e-07
8.77895305277e-07
7.56845023539e-07
5.84590053709e-07
3.92814092035e-07
2.24875240574e-07
2.47468197895e-06
3.12689753216e-06
3.39462488307e-06
3.37390977781e-06
3.13019991612e-06
2.70351908365e-06
2.18901506946e-06
1.72094758112e-06
1.36311142441e-06
1.12000304476e-06
9.76830843203e-07
9.18455613775e-07
9.20946062343e-07
9.45902975895e-07
9.46067268335e-07
8.86114802966e-07
7.59968540628e-07
5.86043655471e-07
3.95725390349e-07
2.29042862563e-07
2.42081358368e-06
3.00678355752e-06
3.17080675335e-06
3.11947171656e-06
2.94345138623e-06
2.60954465009e-06
2.16667481408e-06
1.72907702696e-06
1.37114989157e-06
1.11736926938e-06
9.69749281703e-07
9.18182148612e-07
9.32735103231e-07
9.63699554318e-07
9.59834647133e-07
8.91426181266e-07
7.58941521961e-07
5.83786795145e-07
3.95732738674e-07
2.3101429721e-07
2.41867724939e-06
3.06359527032e-06
2.98158935433e-06
2.83633248047e-06
2.69392056862e-06
2.43327588113e-06
2.06561001484e-06
1.68026642228e-06
1.34754453724e-06
1.1069511236e-06
9.73691818736e-07
9.38861418624e-07
9.63387367581e-07
9.91400843158e-07
9.75729295678e-07
8.94253576707e-07
7.54206227376e-07
5.78598933151e-07
3.939522625e-07
2.32021047007e-07
2.45725650185e-06
3.02220904396e-06
2.70241069787e-06
2.48094153297e-06
2.38491442975e-06
2.19490244812e-06
1.90286120124e-06
1.57917680234e-06
1.29122419214e-06
1.08785400716e-06
9.89326438951e-07
9.79947274412e-07
1.01070624971e-06
1.0270437943e-06
9.91401303998e-07
8.93007368311e-07
7.45659285459e-07
5.71505279281e-07
3.92054300135e-07
2.33710072717e-07
2.53975596669e-06
2.9881864334e-06
2.47086969468e-06
2.11970540307e-06
2.04916724773e-06
1.93330909078e-06
1.71645314644e-06
1.45871840444e-06
1.22969964691e-06
1.08160957595e-06
1.02979872276e-06
1.04468739048e-06
1.0709603271e-06
1.06400424908e-06
1.00174073009e-06
8.86083190449e-07
7.34309513069e-07
5.64701013517e-07
3.92312001741e-07
2.3849497756e-07
2.68310927432e-06
2.92990975245e-06
2.38636987017e-06
1.88498585896e-06
1.77113793001e-06
1.71076837162e-06
1.56219736547e-06
1.36929145446e-06
1.20512241394e-06
1.11828158827e-06
1.1084961826e-06
1.13036521137e-06
1.1335765948e-06
1.09279929947e-06
1.00287439826e-06
8.73798498612e-07
7.2227904014e-07
5.61279739911e-07
3.98268104384e-07
2.49581100172e-07
2.85137566486e-06
2.8956534813e-06
2.37168724663e-06
1.81566955138e-06
1.63074041275e-06
1.58754729595e-06
1.49025401522e-06
1.35503801723e-06
1.25194155361e-06
1.21466467679e-06
1.22075722503e-06
1.22057480861e-06
1.18414233149e-06
1.10656210048e-06
9.92986871441e-07
8.56994517715e-07
7.1404405858e-07
5.67251394236e-07
4.1450314352e-07
2.69193048867e-07
2.96900283641e-06
2.91145964065e-06
2.41860617718e-06
1.89315144577e-06
1.66070625829e-06
1.59794369614e-06
1.52436452365e-06
1.4327695935e-06
1.37288120835e-06
1.35262169502e-06
1.33745830164e-06
1.29325690452e-06
1.21174933728e-06
1.10090173387e-06
9.73702746711e-07
8.45108672494e-07
7.19798344467e-07
5.88034087283e-07
4.42831700717e-07
2.97611511309e-07
3.11689678006e-06
3.06494425924e-06
2.61912844341e-06
2.12744345145e-06
1.84291293961e-06
1.72041439415e-06
1.63996505032e-06
1.57202363961e-06
1.52498561288e-06
1.48686478895e-06
1.42969247531e-06
1.3373556089e-06
1.21703321598e-06
1.08718209727e-06
9.63580851988e-07
8.51063811816e-07
7.41528953115e-07
6.20394192754e-07
4.80782272059e-07
3.33544583745e-07
3.43260761905e-06
3.41749264705e-06
2.99208230285e-06
2.47482656851e-06
2.10135355709e-06
1.90478745574e-06
1.80497864198e-06
1.7373549718e-06
1.67279367989e-06
1.59632987787e-06
1.49461987464e-06
1.36412714571e-06
1.22189643311e-06
1.08942869142e-06
9.75591774491e-07
8.74402364171e-07
7.74056286037e-07
6.59220837491e-07
5.22413074909e-07
3.73447146454e-07
3.8037716791e-06
3.83261866093e-06
3.39596747254e-06
2.81186037482e-06
2.35007684315e-06
2.10221307275e-06
1.98633165398e-06
1.90119032207e-06
1.79968528277e-06
1.67974977578e-06
1.54693125885e-06
1.39885925915e-06
1.25002301443e-06
1.11759217737e-06
1.00589241259e-06
9.06874097171e-07
8.0932810249e-07
6.97564571664e-07
5.6398564875e-07
4.11715411109e-07
3.7526897395e-06
3.89557878823e-06
3.53681412482e-06
2.98607075706e-06
2.51766133725e-06
2.25107861903e-06
2.12452209239e-06
2.02026452596e-06
1.88948921039e-06
1.74209489583e-06
1.59943549349e-06
1.44894906553e-06
1.29794924729e-06
1.16019483103e-06
1.04193221572e-06
9.38710629148e-07
8.40754508692e-07
7.3193031627e-07
5.99591422878e-07
4.41286279253e-07
3.01030627684e-06
3.88993940914e-06
3.71225895091e-06
3.16238341962e-06
2.64944225387e-06
2.33947389808e-06
2.18777251633e-06
2.07411054628e-06
1.93826977061e-06
1.78348931537e-06
1.63798362155e-06
1.48832682436e-06
1.33818363175e-06
1.19706664803e-06
1.07349438486e-06
9.66860354536e-07
8.67473438415e-07
7.5817578588e-07
6.23345188873e-07
4.568941113e-07
2.64408495115e-06
3.88582376188e-06
3.89914704399e-06
3.32413231658e-06
2.74538200378e-06
2.38516092797e-06
2.20411814276e-06
2.08179623032e-06
1.94940815092e-06
1.79635444221e-06
1.64083178594e-06
1.49386089847e-06
1.35454269784e-06
1.22058804635e-06
1.09805169477e-06
9.89799822168e-07
8.87763242611e-07
7.7493924378e-07
6.34068580542e-07
4.57061604589e-07
2.51532137441e-06
3.89821625483e-06
3.99638580869e-06
3.38532287824e-06
2.76200471827e-06
2.3760118914e-06
2.18152957416e-06
2.05389813128e-06
1.92118775093e-06
1.76966928046e-06
1.61536685686e-06
1.47924936938e-06
1.35439296503e-06
1.23166596216e-06
1.11456324591e-06
1.00695094949e-06
9.02009451907e-07
7.83245791418e-07
6.32812306921e-07
4.42734696929e-07
2.47314143831e-06
3.89867922008e-06
3.94322941526e-06
3.27967957102e-06
2.65300219314e-06
2.28494671742e-06
2.10134342957e-06
1.97542220138e-06
1.84308963252e-06
1.6987714204e-06
1.56541762352e-06
1.45183897719e-06
1.34482489827e-06
1.2347941436e-06
1.1250905098e-06
1.01943528655e-06
9.11114852891e-07
7.84008015048e-07
6.20237906417e-07
4.15552247195e-07
2.49199803463e-06
3.8661016095e-06
3.70793849e-06
2.96693727634e-06
2.39786421787e-06
2.10129373194e-06
1.95142217425e-06
1.83558700981e-06
1.71428341238e-06
1.59762478808e-06
1.50158337785e-06
1.41798764132e-06
1.33096137783e-06
1.23420983259e-06
1.1324483792e-06
1.02868760915e-06
9.1551103477e-07
7.76751089058e-07
5.96157566469e-07
3.77986374334e-07
2.57342302214e-06
3.86920731706e-06
3.46553407648e-06
2.63810222325e-06
2.11904174217e-06
1.8682675258e-06
1.7348695594e-06
1.63429117943e-06
1.54878501876e-06
1.4831354828e-06
1.43261391292e-06
1.38125030601e-06
1.31485243545e-06
1.23166209988e-06
1.13768956907e-06
1.03464689406e-06
9.14138895501e-07
7.59860341519e-07
5.61122316655e-07
3.33505829885e-07
2.71574317377e-06
4.14687227245e-06
3.69330558835e-06
2.73487451617e-06
2.05639112166e-06
1.6798359207e-06
1.49115379003e-06
1.39807513063e-06
1.35967281525e-06
1.35288695239e-06
1.35349482384e-06
1.33807803723e-06
1.29503229835e-06
1.22686860692e-06
1.14048327649e-06
1.03645881137e-06
9.05182440545e-07
7.32575756619e-07
5.1740547336e-07
2.85746703111e-07
2.93809779819e-06
4.3483474139e-06
4.02526030833e-06
3.10405016207e-06
2.28793686275e-06
1.70939859996e-06
1.35501397993e-06
1.17849086198e-06
1.14110902863e-06
1.18575971667e-06
1.24741595404e-06
1.28016669667e-06
1.26888370653e-06
1.21941837646e-06
1.14066908999e-06
1.03319510106e-06
8.87563845769e-07
6.96536700576e-07
4.67885155997e-07
2.38151614018e-07
3.43370409111e-06
4.36028058119e-06
4.23219996978e-06
3.51748558086e-06
2.72409850242e-06
2.03916203306e-06
1.51005185072e-06
1.14966078807e-06
9.88666094134e-07
1.00779261991e-06
1.11287445541e-06
1.20373354847e-06
1.23540566515e-06
1.20959917987e-06
1.1383401695e-06
1.02411180991e-06
8.62441186761e-07
6.54337909646e-07
4.15097985824e-07
1.94743214548e-07
3.76034570751e-06
4.36750180476e-06
4.35220903122e-06
3.84851810131e-06
3.15760390413e-06
2.46548746851e-06
1.84900257751e-06
1.33965905053e-06
1.00648937708e-06
9.08479319081e-07
9.92205427863e-07
1.12307756075e-06
1.199582452e-06
1.19931824847e-06
1.13330863656e-06
1.00942855067e-06
8.31878789409e-07
6.07113542991e-07
3.63103390404e-07
1.59339146169e-07
3.7139224551e-06
4.28492857865e-06
4.34921791789e-06
4.01852658647e-06
3.45741173163e-06
2.81476643871e-06
2.17926662953e-06
1.59521426167e-06
1.13580101244e-06
9.09215851166e-07
9.27482316419e-07
1.06464383746e-06
1.17273951134e-06
1.19156433986e-06
1.12523790677e-06
9.8993659873e-07
7.95802995279e-07
5.5666542046e-07
3.18059030664e-07
1.33731859728e-07
3.33995432806e-06
3.97561068571e-06
4.16772318796e-06
4.00773054629e-06
3.58556973597e-06
3.0200711471e-06
2.40177791511e-06
1.79333568676e-06
1.27074958349e-06
9.58603418672e-07
9.17453265413e-07
1.04314577414e-06
1.16327983574e-06
1.18673142964e-06
1.11355770116e-06
9.65745538695e-07
7.53456371325e-07
5.09053050962e-07
2.85090854495e-07
1.17569268195e-07
2.91833771079e-06
3.56681303482e-06
3.88530492427e-06
3.87545165387e-06
3.57282922881e-06
3.07917490244e-06
2.4881010048e-06
1.88104319535e-06
1.34302295467e-06
1.00427604731e-06
9.40386466811e-07
1.0550095586e-06
1.16809950025e-06
1.1815294801e-06
1.09655258484e-06
9.31948766616e-07
7.06798901931e-07
4.72437950751e-07
2.65711503828e-07
1.09884636094e-07
2.3690988746e-09
1.51427137558e-09
1.10687677594e-09
1.05838195123e-09
1.33668279017e-09
1.963704775e-09
3.05002063052e-09
5.06594418838e-09
8.73506917358e-09
1.39965433526e-08
1.92047335788e-08
2.24035358747e-08
3.17771556329e-08
8.14614284938e-08
1.22062334704e-07
1.30483753933e-06
2.69192145234e-08
1.24833060378e-08
6.85013858694e-09
4.16429827763e-09
2.52805193525e-09
1.52287869436e-09
1.04850923214e-09
9.42005406153e-10
1.13326006467e-09
1.63516014403e-09
2.55199961827e-09
4.19737312148e-09
7.0379335692e-09
1.13125383347e-08
1.59825545675e-08
1.97795381118e-08
4.98024511598e-08
4.20094677282e-07
5.40487512423e-07
1.20736466374e-06
3.17195127027e-08
1.4615725794e-08
7.84561919714e-09
4.58899917792e-09
2.63775430248e-09
1.48889830885e-09
9.61870026056e-10
8.14850896926e-10
9.41705200245e-10
1.35159777338e-09
2.16193249462e-09
3.67285341103e-09
6.27580113326e-09
1.00877005469e-08
1.4351753057e-08
1.86572412294e-08
1.07473606529e-07
6.34003451242e-07
5.4023972796e-07
1.10004699868e-06
3.69613394934e-08
1.6922484898e-08
8.8844944327e-09
4.98207225917e-09
2.70982967538e-09
1.42827823883e-09
8.56012856579e-10
6.8578006413e-10
7.69293463003e-10
1.11200050397e-09
1.85165953983e-09
3.29379973074e-09
5.83970237656e-09
9.4936476983e-09
1.30931396411e-08
1.83922125489e-08
1.99742825111e-07
6.67249134748e-07
4.89016402329e-07
9.34154158807e-07
4.28660199642e-08
1.95595906026e-08
1.00563844716e-08
5.39370317055e-09
2.76193120788e-09
1.36130801874e-09
7.52379394465e-10
5.71425821334e-10
6.30878169548e-10
9.26834582093e-10
1.60115657597e-09
2.95614276386e-09
5.35393921589e-09
8.65895542756e-09
1.20707603986e-08
1.85867057385e-08
2.98873004374e-07
6.35357408867e-07
5.31996479354e-07
1.111337964e-06
4.9780362126e-08
2.27439602919e-08
1.14780297377e-08
5.90149418901e-09
2.84837767012e-09
1.30796612255e-09
6.72047433944e-10
4.90038865599e-10
5.40659666635e-10
8.05342930412e-10
1.40056544678e-09
2.57948905082e-09
4.64889359289e-09
7.49207336368e-09
1.11451874485e-08
2.7128763873e-08
3.10489988633e-07
5.6788435268e-07
6.18343618649e-07
1.5178179869e-06
5.81584185302e-08
2.67626090216e-08
1.33019799226e-08
6.59027465296e-09
3.01603308894e-09
1.29785089062e-09
6.29230060531e-10
4.54076934977e-10
5.07027783337e-10
7.54674525338e-10
1.26839858204e-09
2.2190369551e-09
3.86730076227e-09
6.63599778839e-09
1.10423988583e-08
1.19878789062e-07
2.67780848876e-07
4.96681351049e-07
7.20799942574e-07
1.85766748681e-06
6.82321539925e-08
3.18038800768e-08
1.56223586996e-08
7.49753313165e-09
3.28618508879e-09
1.34401049867e-09
6.30236902311e-10
4.63310567232e-10
5.30582533522e-10
7.78780532938e-10
1.23202946039e-09
1.98804825498e-09
3.3165474135e-09
6.09642444499e-09
1.87582166802e-08
1.38969809001e-07
2.33526523439e-07
4.34457376175e-07
7.4204140946e-07
2.0640364024e-06
7.98348496085e-08
3.78044386845e-08
1.83748739805e-08
8.58047890488e-09
3.62517408097e-09
1.41859717058e-09
6.54482762475e-10
5.04632088428e-10
6.05126216542e-10
8.7527090112e-10
1.30075102337e-09
1.93184652304e-09
3.08965259358e-09
5.89652756792e-09
2.20985534351e-08
1.4231475386e-07
2.11040152154e-07
3.89131295281e-07
4.64177482665e-07
2.16019777687e-06
9.17090326707e-08
4.40330497605e-08
2.11660367564e-08
9.61210343744e-09
3.88568270635e-09
1.44092622577e-09
6.66824916592e-10
5.61332807117e-10
7.19524435912e-10
1.03688977321e-09
1.46765442341e-09
2.03605861477e-09
3.14960065499e-09
6.02811543238e-09
1.85022662206e-08
1.50703859701e-07
2.06128555147e-07
3.72480850907e-07
3.70406138147e-07
2.12926656555e-06
1.02010096002e-07
4.95312892272e-08
2.35064380798e-08
1.03041327565e-08
3.91439264104e-09
1.35654169146e-09
6.52050177626e-10
6.2125867006e-10
8.55935510365e-10
1.24361022909e-09
1.70524644497e-09
2.24560094716e-09
3.43304334661e-09
6.45390540505e-09
1.27884924585e-08
1.4424880132e-07
2.16044978372e-07
3.76499398786e-07
3.16687696356e-07
1.86199220474e-06
1.09928041129e-07
5.37222192972e-08
2.50437203358e-08
1.0471530057e-08
3.66654471949e-09
1.19442060804e-09
6.23979952862e-10
6.75078032188e-10
9.86224397141e-10
1.45373554285e-09
1.95973832206e-09
2.49125360359e-09
3.77950623842e-09
7.01629944227e-09
1.30216205615e-08
3.33935126993e-08
2.06644488156e-07
3.38869326358e-07
3.86014488304e-07
1.3565957572e-06
1.15325307788e-07
5.63982865366e-08
2.56440627574e-08
1.01017325906e-08
3.24046012397e-09
1.02579631357e-09
6.07345559065e-10
7.21940690762e-10
1.09287352659e-09
1.63234747514e-09
2.20548723483e-09
2.76537283562e-09
4.07902306239e-09
7.4123781763e-09
1.30096402405e-08
1.97242391192e-08
4.21710381384e-08
2.04986383652e-07
5.56715675286e-07
8.91227384026e-07
1.18525099778e-07
5.76821795516e-08
2.53989548177e-08
9.3486263425e-09
2.78052357505e-09
9.06349752487e-10
6.12398128339e-10
7.78938246907e-10
1.1973980838e-09
1.80825906746e-09
2.49462997931e-09
3.15859621652e-09
4.54374017347e-09
8.11627353051e-09
1.33707568126e-08
1.9527675803e-08
2.80479904297e-08
5.39932014998e-08
5.67029165126e-07
5.34181825537e-07
1.20196400514e-07
5.80217795182e-08
2.46185736798e-08
8.46800144482e-09
2.41279662794e-09
8.63632125741e-10
6.58099572415e-10
8.74619599651e-10
1.34347787388e-09
2.05188528282e-09
2.9839768188e-09
4.11438022502e-09
6.30254029952e-09
8.01562745201e-09
1.54627831268e-08
2.41486462513e-08
3.30197172853e-08
2.43526147879e-08
3.14034685444e-07
8.46611529512e-07
1.21393802357e-07
5.8207087931e-08
2.38198776559e-08
7.73764502663e-09
2.21708454245e-09
8.97261348119e-10
7.59186004941e-10
1.03089226364e-09
1.56513122533e-09
2.43897910944e-09
4.08636448707e-09
5.71555368824e-09
4.01914223321e-09
8.3720757159e-09
2.30395777595e-08
2.98857111724e-08
3.32967323061e-08
5.03324662041e-08
1.15891991667e-07
6.91848070923e-07
1.23656545951e-07
5.92715966551e-08
2.35943470466e-08
7.39091534138e-09
2.20289099248e-09
1.00865827878e-09
9.15236732326e-10
1.24716469217e-09
1.87083396647e-09
3.0434301425e-09
5.57108834567e-09
3.97363504684e-09
3.86299957781e-09
1.30700598013e-08
2.57716124492e-08
3.20876387751e-08
3.58415478655e-08
1.07057870755e-07
1.35486504804e-07
6.49875998618e-07
1.28929329568e-07
6.2274060854e-08
2.44896521777e-08
7.58879980106e-09
2.3619965276e-09
1.18705266794e-09
1.11344242358e-09
1.49700233818e-09
2.21373587733e-09
3.71726497338e-09
6.00554997794e-09
3.77961581362e-09
5.09460571354e-09
1.30705811909e-08
2.44285544577e-08
3.13871225954e-08
4.11370521208e-08
1.11898969121e-07
9.25657361148e-08
4.77163189471e-07
1.38963653288e-07
6.81643392866e-08
2.69867516367e-08
8.48255675958e-09
2.71801367776e-09
1.41980904407e-09
1.33685133222e-09
1.73296994163e-09
2.48088971506e-09
4.0914923012e-09
6.35812707446e-09
5.1755358605e-09
5.26661275043e-09
9.98462478287e-09
2.14093439228e-08
2.89433421249e-08
4.68438021467e-08
9.31707287709e-08
1.13054749226e-07
5.4589285597e-07
1.54846508035e-07
7.76698575197e-08
3.14448419727e-08
1.02260536842e-08
3.34532287613e-09
1.72310439909e-09
1.57684147982e-09
1.91751417115e-09
2.58712491468e-09
3.98542891001e-09
6.64819398904e-09
7.20644980058e-09
5.99554313184e-09
7.41373346976e-09
1.85109417979e-08
2.22100690212e-08
1.4362648499e-07
6.48410835154e-08
1.65853433657e-07
1.19062561618e-06
1.76906844472e-07
9.09571573372e-08
3.78556207285e-08
1.28145351223e-08
4.33532416719e-09
2.14119744675e-09
1.84631470527e-09
2.099251164e-09
2.64867802671e-09
3.69993969812e-09
6.05111195344e-09
8.52034462262e-09
7.61927447471e-09
6.78276192341e-09
1.37500680621e-08
3.8588064344e-08
1.28285228646e-07
6.98231665173e-08
2.36969212699e-07
1.77798272856e-06
2.04127748487e-07
1.07092289721e-07
4.53926385966e-08
1.57972610398e-08
5.54950513481e-09
2.68422864725e-09
2.1656888793e-09
2.32618018652e-09
2.77679375835e-09
3.58198634157e-09
5.36833073704e-09
8.18459487557e-09
9.01309947994e-09
7.74102407899e-09
1.07364516353e-08
6.92059061658e-08
1.10160889004e-07
9.95181655454e-08
2.64352145526e-07
2.21266377086e-06
2.33530339822e-07
1.23481259215e-07
5.21339319118e-08
1.81852579463e-08
6.54141893e-09
3.24453602893e-09
2.5384673901e-09
2.61572791964e-09
2.98220046074e-09
3.63847941524e-09
5.17242806092e-09
7.85398203252e-09
9.82108715019e-09
8.89258213974e-09
9.7408460359e-09
3.05490210769e-08
6.35265904266e-08
4.7164575689e-08
2.55622090962e-07
2.33241760525e-06
2.59838305025e-07
1.35832619468e-07
5.54720907505e-08
1.88584033474e-08
6.85509928982e-09
3.61963070727e-09
2.93007416417e-09
2.96394421218e-09
3.24665190586e-09
3.83574063969e-09
5.60227939996e-09
8.73606111244e-09
1.10773585992e-08
1.02058904331e-08
9.58033594531e-09
1.18303646444e-08
1.74982989454e-08
2.16545653169e-08
3.5697760144e-07
2.23827569055e-06
2.76629730585e-07
1.39529745862e-07
5.35154921647e-08
1.73805311624e-08
6.45146463086e-09
3.79525071598e-09
3.31694398954e-09
3.34681176662e-09
3.53726873363e-09
4.48436754893e-09
7.57809558797e-09
1.17818740025e-08
1.31704980347e-08
1.1172892645e-08
8.65729063588e-09
7.69528993588e-09
9.60295339291e-09
7.70311053567e-09
3.41757123957e-07
2.0034785311e-06
2.79358435086e-07
1.32448499615e-07
4.67058480685e-08
1.45145863291e-08
5.77728380509e-09
3.94890853596e-09
3.70795767174e-09
3.68490348113e-09
3.8478958534e-09
6.34077791475e-09
1.23140730873e-08
1.61770131802e-08
1.4397884074e-08
9.57443797016e-09
5.49200746641e-09
4.22970304245e-09
6.41763978431e-09
6.54235033415e-09
1.62956551722e-07
1.88969610504e-06
2.67411184944e-07
1.16519074902e-07
3.7612134089e-08
1.15665935544e-08
5.28706257589e-09
4.17507589473e-09
4.06809395297e-09
3.79780674196e-09
4.43915970125e-09
1.05138977028e-08
1.86745926761e-08
1.82814498129e-08
1.19078488454e-08
7.25161364139e-09
4.10709070846e-09
2.52330675382e-09
6.49387125641e-09
2.3473764091e-08
1.73791954127e-07
1.79214323524e-06
2.43314465639e-07
9.61413572019e-08
2.88619357626e-08
9.33176392018e-09
5.06245238031e-09
4.46103661478e-09
4.2118153074e-09
3.70370106595e-09
6.39529048514e-09
1.67054316352e-08
2.23896234551e-08
1.73685759915e-08
1.10308812315e-08
6.74035824851e-09
3.85228111001e-09
2.52560055792e-09
2.82915752188e-08
8.01730766448e-08
2.24748285847e-07
1.58462207833e-06
2.11200183827e-07
7.55053598383e-08
2.17781088019e-08
7.84461113431e-09
5.02848104098e-09
4.66749598331e-09
3.97473024308e-09
3.94580434477e-09
1.13167064802e-08
2.35307372281e-08
2.33754376385e-08
1.806115511e-08
1.17484817904e-08
7.15731591128e-09
3.86612908577e-09
1.05364616201e-08
8.45167695852e-08
1.64765615645e-07
2.61233618533e-07
9.79213405797e-07
1.75638162144e-07
5.72024167428e-08
1.65182840855e-08
6.84822748574e-09
5.13280793131e-09
4.58091499694e-09
3.49848239502e-09
5.19835314485e-09
1.76652463737e-08
2.80622056426e-08
2.78733690728e-08
2.07009884415e-08
1.40736843073e-08
9.27067497546e-09
5.78727286946e-09
2.46038869458e-08
8.7702491836e-08
1.574844871e-07
2.56774943791e-07
4.23168019111e-07
1.40612791849e-07
4.23574660106e-08
1.27610696592e-08
6.25657411159e-09
5.24466463359e-09
4.12375753167e-09
3.31023519667e-09
9.27720521947e-09
2.5082581352e-08
3.40334887478e-08
3.12713325551e-08
2.34604392855e-08
1.65283385268e-08
1.19272134847e-08
9.57132816037e-09
1.02976285732e-08
1.74772963517e-08
6.52624848754e-08
2.11139584759e-07
2.77262936735e-07
1.08965952849e-07
3.10654615215e-08
1.01485771282e-08
5.99857578986e-09
5.16804669361e-09
3.41877953469e-09
3.80414501656e-09
1.51399748016e-08
3.0377005734e-08
3.81573872228e-08
3.36478753983e-08
2.5545808827e-08
1.91714619115e-08
1.50335813476e-08
1.3256004635e-08
1.21005527148e-08
1.20217285859e-08
2.6168779828e-08
1.7081761745e-07
3.09602810802e-07
8.26346711413e-08
2.29334195116e-08
8.46654159905e-09
5.94446689386e-09
4.77175887658e-09
2.75409903056e-09
4.92912237962e-09
2.0648214768e-08
3.53570125966e-08
3.96787372201e-08
3.47889886039e-08
2.72413255565e-08
2.17865674605e-08
1.81934915416e-08
1.67492548632e-08
1.55243567094e-08
1.34889639501e-08
2.08245093556e-08
2.00813514451e-07
4.89422762425e-07
6.25646934563e-08
1.74012476158e-08
7.50772379813e-09
5.96714564187e-09
4.10056001902e-09
2.3959956216e-09
6.24293938572e-09
2.43404702107e-08
3.66069999836e-08
3.93787412403e-08
3.51959337267e-08
2.88786245917e-08
2.4273607361e-08
2.10930044286e-08
1.99672020855e-08
1.87456702623e-08
1.64819998229e-08
2.00216489378e-08
2.49696610919e-07
4.97008470151e-07
4.84690233291e-08
1.38931659436e-08
7.09162850785e-09
5.99076658324e-09
3.40019820976e-09
2.2806032024e-09
9.43286247988e-09
2.55443565234e-08
3.57205922145e-08
3.80480460709e-08
3.52633968257e-08
3.0517001995e-08
2.65342182432e-08
2.35993550547e-08
2.25554923898e-08
2.12648650996e-08
1.88975337119e-08
2.42788384205e-08
3.40129135051e-07
8.45484627554e-07
3.93066646867e-08
1.19271669459e-08
7.11150204154e-09
5.970200609e-09
2.91511930052e-09
2.17264787472e-09
8.59803179944e-09
2.28701599511e-08
3.27320199422e-08
3.60164177296e-08
3.51464006145e-08
3.19426081952e-08
2.85842111815e-08
2.56505150559e-08
2.44640274905e-08
2.29388910241e-08
2.07008771981e-08
6.33471938621e-08
5.28687398907e-07
1.45377176724e-06
3.42314551726e-08
1.13480546341e-08
7.54747419301e-09
6.04998273621e-09
2.83167862921e-09
2.13968436237e-09
5.96781613575e-09
1.73612171493e-08
2.78462513613e-08
3.30086170172e-08
3.44073122477e-08
3.27977567446e-08
3.0106580611e-08
2.72660019851e-08
2.56752270855e-08
2.39876165702e-08
2.59295592698e-08
1.48044996239e-07
6.77849560559e-07
1.68742430007e-06
3.3123891132e-08
1.23985277468e-08
8.5214958759e-09
6.63115405723e-09
3.40812681764e-09
2.35754670947e-09
4.586594173e-09
1.23514461344e-08
2.24033244197e-08
2.920593138e-08
3.28396159775e-08
3.291387532e-08
3.1022376031e-08
2.82713328353e-08
2.61494125072e-08
2.43343528627e-08
2.66790140318e-08
1.78039631191e-07
1.04708506225e-06
1.80264236262e-06
)
;

boundaryField
{
    emptyPatch
    {
        type            empty;
    }
    minY
    {
        type            zeroGradient;
    }
    maxY
    {
        type            calculated;
        value           nonuniform List<scalar> 
40
(
2.91765836868e-06
3.56650791242e-06
3.88477313451e-06
3.87473872785e-06
3.57206109909e-06
3.07845324211e-06
2.48747684695e-06
1.88055364268e-06
1.34267567074e-06
1.00402526038e-06
9.4016430204e-07
1.05477766629e-06
1.16785881641e-06
1.18129595286e-06
1.09635091708e-06
9.31806095341e-07
7.06706461968e-07
4.72375096213e-07
2.65676984442e-07
1.09872015776e-07
3.31205513825e-08
1.23973611979e-08
8.52077474227e-09
6.63073581233e-09
3.40802307509e-09
2.35752461572e-09
4.58657197598e-09
1.23513873961e-08
2.24032196307e-08
2.92057962151e-08
3.28394650226e-08
3.29137235459e-08
3.10222317981e-08
2.82711994882e-08
2.61492875095e-08
2.43342352846e-08
2.66788850999e-08
1.78042168589e-07
1.04709387983e-06
1.80259793445e-06
)
;
    }
    water_to_cooler
    {
        type            compressible::alphatWallBoilingWallFunction;
        phaseType       vapor;
        relax           constant 1;
        partitioningModel
        {
            type            Lavieville;
            alphaCrit       0.2;
        }
        otherPhase      liquid;
        dmdt            uniform 0;
        dDep            uniform 1e-05;
        qQuenching      uniform 0;
        alphatConv      uniform 0;
        value           nonuniform List<scalar> 
38
(
5.6161412985e-10
5.61090455498e-10
5.62853269908e-10
5.61402747436e-10
5.62980158417e-10
5.49700506072e-10
5.34048438098e-10
3.67185784225e-08
3.05474391057e-09
4.6828671721e-09
1.49416827101e-09
5.39366808549e-09
5.40942342614e-09
5.41730579675e-09
1.29793201531e-08
2.53101048531e-08
8.00464939734e-09
5.95432318681e-09
6.25389841329e-09
6.56525161161e-09
5.83174709275e-09
4.98663366517e-09
2.24217722514e-09
1.7558089512e-09
1.37017660429e-09
9.2289206047e-10
4.77538967283e-10
2.1603616737e-10
6.99853279508e-11
2.22163567877e-11
2.06752474649e-11
8.71327075404e-11
2.11878176195e-10
5.63302775616e-11
1.66363163892e-11
1.79889478375e-11
1.8006153901e-11
1.80228057899e-11
)
;
    }
    water_to_heater
    {
        type            compressible::alphatWallBoilingWallFunction;
        phaseType       vapor;