/*--------------------------------*- C++ -*----------------------------------*\
| =========                 |                                                 |
| \\      /  F ield         | OpenFOAM: The Open Source CFD Toolbox           |
|  \\    /   O peration     | Version:  2312                                  |
|   \\  /    A nd           | Website:  www.openfoam.com                      |
|    \\/     M anipulation  |                                                 |
\*---------------------------------------------------------------------------*/
FoamFile
{
    version     2.0;
    format      ascii;
    arch        "LSB;label=32;scalar=64";
    class       volScalarField;
    location    "0.13/water";
    object      T.gas;
}
// * * * * * * * * * * * * * * * * * * * * * * * * * * * * * * * * * * * * * //

dimensions      [0 0 0 1 0 0 0];

internalField   nonuniform List<scalar> 
750
(
746.617228597
717.50268442
688.589074643
659.691477368
631.055909452
602.985434762
575.766172646
549.623711934
524.731942841
501.216473877
479.158784987
458.60971336
439.614217054
422.210697655
406.38950393
392.054327221
379.098338938
367.577531962
357.691466424
349.615976048
713.134001812
680.322315317
650.703659813
621.834948081
594.73439919
569.008765857
544.543086144
521.318559738
499.593787689
479.623490921
461.408426596
444.583843639
428.390386293
412.589534061
397.900841195
384.776081752
373.878027373
364.502989924
355.852517544
347.912312389
708.096250913
674.345883247
643.956535767
614.183303243
586.337461985
560.005166434
535.018557909
511.17580688
488.679626113
467.96515163
449.257165349
432.328640801
416.654452815
401.630508164
387.309873319
374.533317112
363.654737931
354.16442559
345.799089823
338.935745478
708.264468666
675.11147986
645.104073277
615.507327956
587.735374894
561.478487204
536.71667747
513.304988049
491.11664587
470.198311758
450.654672918
432.061898846
413.784818763
397.050562047
382.97343925
370.39719907
359.460259212
349.871900625
341.850944794
335.357888349
703.601405852
676.962339208
651.828800761
626.886106755
603.096623197
580.215677563
558.346657458
537.475016507
517.609641296
498.722541943
480.792542866
463.742636932
447.427648308
431.825428131
417.229731547
403.655351811
391.069623917
379.444686439
368.893988453
359.665195097
703.053178954
675.076623797
649.615632625
624.51151566
600.560304001
577.561087944
555.631110655
534.757737101
514.952394673
496.202544054
478.466586461
461.616704693
445.594788964
430.510661917
416.442620158
403.315767232
391.247467331
380.136250677
370.109423985
361.167548469
735.673485772
701.680439974
669.306003402
637.837299237
607.43068123
578.185704154
550.311897386
523.989256994
499.384585279
476.625195405
455.75394781
436.650730968
418.985606156
402.319848754
386.640958308
372.518648591
360.748614122
351.45491633
343.870261792
337.739984214
761.151033661
726.951719397
692.474504911
657.9431846
623.626091535
589.876062
557.09690751
525.657627876
495.908129293
468.190672927
442.841364591
420.103287065
399.946998391
382.020522286
365.887802459
351.503962844
339.264064806
329.666318074
322.742718262
318.026609865
783.153821558
741.713019356
700.570603976
660.261451417
621.257584293
583.944941798
548.630003349
515.550066876
484.960311313
457.240315726
433.031358322
412.40680304
394.345442254
376.339066477
355.711112813
336.47986084
323.562102531
315.458278863
310.316330196
307.073818477
784.394062281
743.129947275
702.312734299
662.412955431
623.836005392
586.93726849
552.03793068
519.448883828
489.477139212
462.435576942
438.622156788
418.398686372
401.43434071
386.06499613
369.015084152
344.948754294
325.870899744
314.895781568
308.840879484
305.509245094
784.549703456
743.645251562
703.228771678
663.753085808
625.611781796
589.154816267
554.692695784
522.507617036
492.85513511
465.961904342
442.02687924
421.227547171
403.529860854
388.662576111
375.783405936
362.760218478
341.986194681
323.491286713
313.168018275
307.831395512
784.777738902
744.341438728
704.381140334
665.323328729
627.559363201
591.450116037
557.304931588
525.379566682
495.874869487
468.938412413
444.672520377
423.127467347
404.286987237
388.132015071
374.70698617
363.644922163
354.182579627
343.218394091
326.06364419
315.055781504
784.99785096
745.255394795
705.847137745
667.209780792
629.800098579
594.044908416
560.280346856
528.739825341
499.567533671
472.838197351
448.575074056
426.763151006
407.357188337
390.27460857
375.402479442
362.721941004
351.970639828
342.615647261
334.247744267
325.940509308
777.01758361
742.079515524
706.9092716
671.743638992
636.98960219
603.153701849
570.686832277
539.91587627
511.065674063
484.279386009
459.649147369
437.215243615
416.974501787
398.884108143
382.94266974
369.195350841
357.583197273
347.764632809
339.425950752
332.636985736
754.28147412
722.864507591
691.321493973
660.11871081
629.121054074
599.038028815
569.527752375
541.536740237
514.543641136
489.555621829
465.936309676
444.558249774
424.772699393
407.149846268
391.739411841
378.487889701
366.708825376
356.418428138
347.727059542
340.648602268
756.570885618
726.044936678
695.168772065
663.851115947
632.55079946
601.481922036
571.15412273
541.574329893
513.523547
486.821935756
462.338688761
439.673547144
419.536437632
401.460959921
386.253510516
373.225997059
361.733891631
351.922781431
343.783563726
337.216417449
784.276123268
745.799959669
707.516251666
669.706063727
632.743202396
596.934928813
562.53044591
529.815802252
499.116038939
470.765135463
445.026359031
422.162521623
402.565289758
386.21070157
372.655300311
360.973407074
350.526217451
341.060263123
332.734754115
326.2598046
787.029013243
749.544456588
712.510317161
676.253284682
641.025801611
607.036715748
574.467067982
543.480482086
514.2302578
486.864572124
461.542164428
438.440922321
417.741029978
399.52870821
383.792205132
370.428989052
359.062604785
349.009146835
338.640995381
327.328930426
787.254885998
750.631950371
714.512881191
679.386841766
645.45002196
612.812487239
581.606281424
551.968948593
524.020239223
497.853039036
473.534038433
451.129853922
430.717196437
412.373284094
396.161408651
382.11153974
370.199754148
360.272776971
351.11435433
341.210829104
780.028037239
746.875015898
714.114363376
682.180189694
651.354219027
621.816992174
593.654405489
566.877610811
541.480554151
517.494139603
494.923256735
473.699853541
453.76506332
435.172586144
418.083235284
402.669680432
389.046422552
377.216727791
366.880240709
356.684155406
760.377329203
729.726564799
699.06446657
668.657119462
638.786401879
609.831987311
582.062585878
555.699737278
531.08332526
508.672236229
488.576393092
470.393441526
453.610789782
437.930128664
423.283100466
409.63187373
396.933152301
385.16612208
374.238190771
364.233801702
768.577153939
735.951893272
703.143178518
670.555546932
638.478653494
607.184679096
576.920236492
547.873782107
520.102411446
493.746007787
469.463264457
447.815554702
429.281250318
414.285227072
402.019077736
391.248181166
381.318373169
371.998874358
363.25517613
355.261085226
777.600626599
740.914741367
704.221931129
667.933204849
632.433005701
598.03210646
564.936933178
533.281247943
503.213996585
475.055704257
449.398904287
426.841508168
407.868499116
392.687752156
380.6494678
370.680301854
362.037186819
354.368653129
347.494930762
341.411397868
777.340397108
740.288527706
703.358320793
667.05700054
631.878669857
598.206031766
566.28507521
536.280144864
508.306028996
482.452811973
458.799656452
437.478052722
418.572841518
402.142353091
388.15836311
376.386748159
366.468168686
358.056579344
350.871872997
344.748687624
771.25592765
736.842132284
702.520063717
668.836133228
636.271260539
605.188122672
575.828864064
548.347816228
522.809751539
499.120277801
477.093376056
456.549616346
436.968037516
418.136763996
400.242175138
383.914790178
370.040720165
358.870066652
349.973905812
343.039062815
758.572381696
726.055926542
693.778142302
662.102801408
631.453804656
602.192893496
574.602637159
548.782528604
524.567302049
501.407105868
478.775465372
456.295526989
433.971063004
413.069242371
395.071646881
379.731210612
366.789092326
355.800066078
346.834157081
339.637029593
776.006087918
741.318036291
706.617135767
672.327159613
638.835764182
606.50438698
575.623117084
546.330319838
518.42582682
491.354817057
465.084598764
440.566217624
419.184355776
401.377535406
386.64973803
374.201127627
363.415135846
354.099773361
346.248198671
339.711263457
786.270312548
749.281614703
712.725738825
676.848773917
641.880960049
608.087046198
575.767660803
545.226411009
516.762684345
490.578521957
466.804131589
445.42770825
426.177577866
408.704794682
392.80375885
378.410255599
365.539703254
354.261252362
344.699289653
336.897775128
788.374315781
753.738089258
719.553435692
686.122654966
653.648894541
622.283633446
592.171924449
563.456784167
536.255998334
510.637451663
486.616477144
464.179933301
443.315661565
424.032860216
406.374838977
390.407248576
376.193389185
363.795844817
353.286877459
344.750761733
788.855990731
754.981975334
721.491039504
688.667623136
656.728825426
625.845177188
596.146493137
567.73423522
540.694450516
515.100644063
491.012240811
468.473832994
447.520426289
428.186126017
410.510610465
394.540873909
380.323374489
367.898320815
357.301714779
348.566398077
788.946434394
755.270800598
721.967802749
689.309434592
657.500921597
626.700537985
597.035301401
568.625237978
541.579820068
515.989198865
491.92339977
469.435681208
448.568107467
429.356700264
411.832056977
396.025618177
381.974054294
369.697486623
359.205343472
350.499782795
788.506312074
754.92795181
721.86965791
689.660081023
658.36769528
627.992225563
598.640675003
570.451233003
543.549341583
518.042380905
494.019952408
471.55054834
450.689296279
431.481418204
413.964735352
398.164802662
384.108214442
371.808561619
361.269553501
352.488719894
787.750742903
754.297297399
721.39034993
689.456846474
658.758053653
629.158361316
600.509885863
572.885455811
546.41356631
521.215801179
497.39532745
475.039701488
454.218855795
434.991984627
417.407159149
401.501832474
387.302544022
374.827410845
364.085893041
355.089803429
787.381457091
754.074516487
721.284343414
689.434744718
658.933827516
629.734590361
601.525543828
574.27283492
548.109420747
523.154057168
499.516244245
477.285905515
456.538933365
437.336190489
419.727687015
403.74855615
389.417646148
376.78506539
365.887574342
356.744637376
788.408103816
754.731407146
721.455263596
689.031933908
657.826135521
627.771759918
598.76555625
570.898915403
544.29700891
519.074865121
495.324160281
473.118306107
452.509704447
433.536861237
416.222773365
400.576725492
386.575599706
374.245093773
363.636882146
354.757128474
788.757221638
755.351322323
722.419431282
690.240458518
658.857256802
628.350460989
598.881168382
570.594508447
543.62650891
518.093921783
494.094827071
471.702542402
450.972087276
431.940005393
414.626735397
399.035871006
385.158088514
372.962692052
362.447786268
353.612401378
788.650139433
755.23555971
722.255620506
690.054549015
658.819652131
628.561059178
599.320125572
571.223262526
544.403286426
518.981345786
495.057773955
472.711933829
452.003231898
432.974386316
415.650468713
400.039533467
386.135294296
373.920156571
363.357870966
354.419296625
318.749231521
317.085930883
313.22190547
311.378085101
320.540924236
322.119672698
312.913011356
304.368280304
301.56406386
301.066676208
)
;

boundaryField
{
    emptyPatch
    {
        type            empty;
    }
    minY
    {
        type            fixedValue;
        value           uniform 300;
    }
    maxY
    {
        type            inletOutlet;
        inletValue      nonuniform List<scalar> 0();
        value           nonuniform List<scalar> 0();
    }
    maxX
    {
        type            fixedValue;
        value           nonuniform List<scalar> 0();
    }
    water_to_heater
    {
        type            copiedFixedValue;
        sourceFieldName T.liquid;
        value           nonuniform List<scalar> 
59
(
796.408565263
796.459896907
796.527323442
796.53609554
796.556140894
796.559871647
796.603829628
796.640372928
796.613423989
796.510524088
796.46691342
796.560517746
797.023274048
797.710217119
798.023667416
798.082354015
798.148120611
798.153882304
798.259015818
798.264646696
798.096316971
797.713679486
797.296456825
796.848524008
796.864605781
797.638931226
797.837767511
797.987216414
798.024429182
798.030013219
797.850829937
797.456388837
796.872637321
797.016340524
797.145561596
797.424882493
797.540958839
797.535708114
797.541508899
797.34158143
797.179663373
797.554424259
797.598773924
798.070542419
798.027785486
798.137179512
798.178292104
798.200481129
798.228502826
798.198097756
798.147557464
798.097131856
798.053628297
798.029015951
798.079711726
798.148334557
798.202323287
798.195495055
798.165350872
)
;
    }
    procBoundary0to1
    {
        type            processor;
        value           nonuniform List<scalar> 
38
(
301.167521648
301.635784343
303.633454935
309.773401425
312.967496951
311.550698492
305.750833536
303.517049592
304.157624868
314.01465777
320.620238313
318.311960957
312.694141119
317.429811567
316.228264724
313.231790385
311.090019395
309.065996316
310.293940261
312.046343826
313.609595061
315.044367892
316.476799771
317.568727048
317.2644251
316.700898646
316.893247938
306.738506484
305.860806333
304.136778956
303.455510536
307.093472247
306.925385992
303.922991562
301.419316656
300.522075915
300.337655832
301.167521648
)
;
    }
    procBoundary0to3
    {
        type            processor;
        value           nonuniform List<scalar> 
20
(
787.987412505
754.423676857
721.312326214
688.973399003
657.667613969
627.552820173
598.6876457
571.092777382
544.786942346
519.805086354
496.205238283
474.055194563
453.418435517
434.356548396
416.928716467
401.185749193
387.162682894
374.875261039
364.30243953
355.411201932
)
;
    }
}


// ************************************************************************* //
