/*--------------------------------*- C++ -*----------------------------------*\
| =========                 |                                                 |
| \\      /  F ield         | OpenFOAM: The Open Source CFD Toolbox           |
|  \\    /   O peration     | Version:  2312                                  |
|   \\  /    A nd           | Website:  www.openfoam.com                      |
|    \\/     M anipulation  |                                                 |
\*---------------------------------------------------------------------------*/
FoamFile
{
    version     2.0;
    format      ascii;
    arch        "LSB;label=32;scalar=64";
    class       volScalarField;
    location    "86";
    object      alphat.water;
}
// * * * * * * * * * * * * * * * * * * * * * * * * * * * * * * * * * * * * * //

dimensions      [1 -1 -1 0 0 0 0];

internalField   nonuniform List<scalar> 
1875
(
0.745278
0.842781
0.947722
1.03725
1.11518
1.17837
1.22957
1.27041
1.30406
1.33279
1.35804
1.37921
1.39703
1.41298
1.42094
1.42187
1.4131
1.38905
1.34424
1.27877
1.19203
1.0822
0.939775
0.739034
0.480398
0.987257
1.15841
1.2964
1.39169
1.4533
1.49065
1.51386
1.52518
1.5277
1.52314
1.51654
1.50614
1.49526
1.48551
1.47766
1.47429
1.47195
1.45719
1.43465
1.38394
1.30537
1.199
1.05452
0.865822
0.659789
1.39451
1.5967
1.7278
1.79956
1.83112
1.8364
1.82452
1.80267
1.77413
1.74153
1.70794
1.67392
1.63995
1.61004
1.58276
1.55498
1.52653
1.49693
1.46598
1.4195
1.34731
1.25094
1.12332
0.9713
0.827877
1.84579
1.99112
2.04855
2.05573
2.03384
1.99616
1.95093
1.9043
1.86053
1.81872
1.77868
1.73837
1.69803
1.6584
1.61935
1.58066
1.54196
1.50275
1.46238
1.40992
1.33852
1.24962
1.14102
1.01621
0.894561
2.22951
2.25708
2.2298
2.17515
2.10604
2.03351
1.96457
1.90279
1.84915
1.80244
1.76023
1.72052
1.68133
1.64145
1.60195
1.56283
1.52326
1.4846
1.43976
1.38439
1.31765
1.23702
1.14175
1.04157
0.939694
2.4354
2.43311
2.34894
2.23467
2.11342
2.0012
1.90643
1.83044
1.77118
1.72476
1.68554
1.64966
1.6153
1.58181
1.5477
1.51151
1.4749
1.43848
1.3924
1.33986
1.2789
1.20603
1.1213
1.02728
0.922774
2.70261
2.60637
2.43884
2.25943
2.08961
1.94293
1.82387
1.73338
1.6688
1.62333
1.58754
1.55596
1.52722
1.49973
1.4715
1.44322
1.41733
1.3831
1.34141
1.29231
1.23693
1.17028
1.09753
1.01956
0.935362
2.99464
2.77723
2.51662
2.27148
2.05902
1.87829
1.7387
1.6389
1.57418
1.53505
1.49983
1.47039
1.44922
1.43042
1.41069
1.39365
1.36744
1.3346
1.29649
1.25435
1.20554
1.14592
1.08225
1.01093
0.930393
3.30908
2.94085
2.58346
2.28248
2.03212
1.82143
1.66657
1.56338
1.5076
1.4701
1.44781
1.43566
1.42482
1.41285
1.39988
1.38188
1.36125
1.33726
1.30749
1.26985
1.22292
1.16718
1.10459
1.035
0.959782
3.50675
3.02941
2.61509
2.28798
2.0195
1.80306
1.65199
1.558
1.51126
1.48943
1.47744
1.47451
1.47409
1.47384
1.47199
1.46532
1.45242
1.4319
1.40294
1.36382
1.31586
1.25814
1.1905
1.11243
1.02892
3.47222
2.99827
2.60171
2.28714
2.02863
1.82273
1.68234
1.60256
1.57072
1.56712
1.57659
1.591
1.60701
1.62022
1.62955
1.63125
1.62334
1.60583
1.57682
1.53573
1.48219
1.41579
1.33671
1.24541
1.15127
3.21457
2.8699
2.55248
2.28352
2.05807
1.8777
1.75752
1.69504
1.67991
1.69338
1.71964
1.74928
1.77876
1.80393
1.82129
1.82902
1.82718
1.81284
1.78468
1.74153
1.6822
1.60569
1.51242
1.39819
1.27827
2.91183
2.70752
2.48596
2.27834
2.09451
1.94599
1.84812
1.8022
1.79918
1.82384
1.86151
1.90214
1.94174
1.97639
2.00258
2.01924
2.02531
2.01763
1.99469
1.95437
1.89398
1.81088
1.70236
1.56428
1.40696
2.71408
2.58929
2.43691
2.28187
2.13776
2.01954
1.9415
1.90743
1.91025
1.93908
1.98179
2.02845
2.0748
2.11727
2.15324
2.17972
2.19648
2.20039
2.18913
2.16012
2.10991
2.03454
1.92934
1.78668
1.60583
2.66777
2.55362
2.42886
2.30437
2.18954
2.09484
2.03102
2.00335
2.00747
2.03444
2.07568
2.12356
2.17333
2.22121
2.26439
2.30115
2.32931
2.34782
2.35289
2.34109
2.30945
2.25479
2.17418
2.06197
1.90683
2.64804
2.54796
2.44415
2.34329
2.24968
2.17106
2.11548
2.08977
2.09094
2.1134
2.15048
2.19608
2.24552
2.29565
2.34393
2.38792
2.42544
2.45426
2.47277
2.47795
2.46562
2.43161
2.37352
2.29259
2.18744
2.64738
2.56153
2.47754
2.39562
2.31783
2.25125
2.2006
2.17277
2.16753
2.18204
2.21187
2.25234
2.29942
2.34967
2.40096
2.45098
2.49726
2.53709
2.56716
2.58366
2.58291
2.5616
2.51506
2.44347
2.34717
2.66724
2.58186
2.51154
2.44685
2.38658
2.33179
2.28517
2.25442
2.24181
2.24693
2.26758
2.30064
2.34303
2.3917
2.44425
2.4989
2.55274
2.60281
2.64545
2.67606
2.68945
2.6794
2.63969
2.57037
2.47129
2.52869
2.51337
2.48746
2.45515
2.4208
2.38544
2.34999
2.32289
2.3074
2.3055
2.31786
2.34369
2.38116
2.42762
2.48063
2.53919
2.59995
2.6598
2.71482
2.75997
2.78901
2.79578
2.7714
2.7135
2.62213
2.23362
2.33952
2.38918
2.40826
2.40791
2.39858
2.38316
2.36684
2.35568
2.35305
2.36199
2.38309
2.41635
2.46015
2.51432
2.57681
2.64449
2.71412
2.78164
2.84186
2.88825
2.91363
2.91038
2.87367
2.80752
2.22235
2.29139
2.34126
2.37575
2.39437
2.40164
2.40169
2.39726
2.39253
2.39231
2.40076
2.42049
2.45218
2.49376
2.54979
2.61652
2.69135
2.77093
2.85109
2.92658
2.99085
3.03633
3.05477
3.04088
2.9932
2.17049
2.26151
2.33024
2.3778
2.40718
2.42394
2.43231
2.43601
2.43779
2.44077
2.44761
2.46447
2.49568
2.53787
2.59518
2.66609
2.74781
2.83704
2.92959
3.02035
3.10307
3.17085
3.21525
3.2347
3.22827
2.15279
2.28056
2.37786
2.44536
2.48834
2.5109
2.52012
2.52187
2.52089
2.52223
2.52832
2.54165
2.56695
2.60866
2.66622
2.73878
2.82503
2.92187
3.0251
3.12968
3.22957
3.31829
3.3878
3.43473
3.45847
2.24798
2.40176
2.52175
2.60618
2.65743
2.6832
2.68894
2.68376
2.67364
2.6641
2.66095
2.6671
2.68541
2.72075
2.77375
2.84558
2.93356
3.03512
3.14638
3.26258
3.37825
3.48766
3.58444
3.67025
3.7464
2.43973
2.62558
2.76631
2.86299
2.91994
2.94351
2.94249
2.92456
2.89944
2.8746
2.85635
2.84952
2.8577
2.88398
2.93052
2.99701
3.08272
3.18537
3.30099
3.42518
3.55279
3.67844
3.79661
3.91011
4.01314
2.76332
2.96913
3.11517
3.21032
3.26136
3.27528
3.26161
3.22812
3.18548
3.14266
3.10717
3.08486
3.07982
3.09543
3.13331
3.19345
3.27503
3.37604
3.49309
3.62225
3.75919
3.8998
4.04111
4.19028
4.34396
3.29269
3.45797
3.56711
3.63554
3.66353
3.6571
3.62433
3.57284
3.51241
3.4522
3.40035
3.36319
3.34528
3.35004
3.37886
3.43169
3.5078
3.60549
3.72155
3.85276
3.99542
4.14581
4.30121
4.46676
4.63407
3.94781
4.03402
4.07971
4.10198
4.09487
4.06078
4.00552
3.93598
3.86021
3.78612
3.72143
3.67266
3.6446
3.64042
3.66153
3.70783
3.77856
3.87183
3.98508
4.11567
4.26088
4.41847
4.58741
4.77466
4.97749
4.63542
4.61466
4.58844
4.56035
4.51756
4.4579
4.3839
4.30022
4.21332
4.13007
4.05743
4.00146
3.96664
3.95618
3.97125
4.01171
4.07672
4.16465
4.27334
4.40056
4.54418
4.70241
4.87398
5.06284
5.26147
5.1292
5.07255
5.01828
4.96739
4.90608
4.832
4.74703
4.65538
4.56271
4.47522
4.39911
4.33978
4.30145
4.28692
4.29717
4.33231
4.39148
4.47325
4.57587
4.69759
4.83695
4.99331
5.16683
5.363
5.5796
5.46724
5.42978
5.3814
5.32829
5.26171
5.18244
5.09336
4.99905
4.90503
4.81701
4.74061
4.68065
4.64087
4.62368
4.6298
4.65951
4.71207
4.78624
4.88051
4.99339
5.1238
5.2716
5.43723
5.62535
5.83301
5.81954
5.77871
5.72785
5.67118
5.60102
5.51904
5.42839
5.33383
5.24068
5.15422
5.07916
5.01945
4.97887
4.95908
4.96098
4.98459
5.02933
5.09406
5.17736
5.2778
5.39445
5.52748
5.67601
5.84214
6.02342
6.1806
6.1293
6.0712
6.0087
5.93416
5.84935
5.75742
5.66303
5.57104
5.48614
5.41234
5.35301
5.31132
5.28838
5.2851
5.30157
5.33706
5.39058
5.46074
5.54616
5.64618
5.76013
5.88553
6.01982
6.15359
6.52956
6.47641
6.41363
6.34586
6.26664
6.1784
6.08456
5.9896
5.89783
5.81317
5.73942
5.67999
5.63621
5.60905
5.5994
5.60727
5.63207
5.67284
5.72843
5.79821
5.88208
5.98064
6.09427
6.22444
6.37052
6.91372
6.84384
6.7678
6.69058
6.6042
6.51068
6.41351
6.31665
6.22375
6.13828
6.0635
6.00167
5.9539
5.92093
5.90335
5.90105
5.91339
5.93938
5.97817
6.029
6.0917
6.16685
6.25477
6.35444
6.46244
7.31167
7.22494
7.13241
7.04319
6.94781
6.8476
6.74576
6.64575
6.55072
6.46338
6.38597
6.31957
6.26605
6.22577
6.19887
6.18501
6.18336
6.19284
6.21223
6.24064
6.27738
6.32201
6.37395
6.42946
6.48351
7.74238
7.6248
7.50959
7.40385
7.29693
7.18864
7.08112
6.9769
6.87837
6.78758
6.7059
6.63467
6.57478
6.52654
6.48974
6.46381
6.44771
6.44012
6.43968
6.44494
6.45433
6.46618
6.4785
6.48405
6.47421
8.13487
8.00844
7.88097
7.76328
7.64678
7.53123
7.4181
7.30936
7.20682
7.11198
7.0259
6.94948
6.88316
6.82708
6.78087
6.74366
6.7143
6.69135
6.67328
6.65828
6.64423
6.62869
6.60893
6.57563
6.51839
8.54979
8.3997
8.25481
8.12363
7.99735
7.87465
7.75605
7.64284
7.53631
7.43751
7.3472
7.2659
7.19384
7.13091
7.07666
7.03013
6.99009
6.95515
6.92374
6.89404
6.86385
6.83055
6.79151
6.73765
6.65829
8.92481
8.77081
8.61808
8.47832
8.34488
8.21655
8.09338
7.97634
7.86636
7.76416
7.67026
7.58496
7.50831
7.4401
7.3798
7.32646
7.27894
7.23606
7.19633
7.15805
7.11928
7.07767
7.03118
6.97239
6.89142
9.31783
9.1447
8.97889
8.82943
8.68909
8.55576
8.42877
8.30864
8.19595
8.09117
7.99462
7.90646
7.82665
7.75491
7.69073
7.63322
7.58143
7.53429
7.49071
7.44934
7.40854
7.36522
7.31747
7.26027
7.18104
9.66353
9.49229
9.32375
9.17001
9.02584
8.88943
8.75997
8.63783
8.52342
8.41705
8.31891
8.22909
8.14752
8.07391
8.00781
7.94849
7.8952
7.84715
7.80354
7.76285
7.72369
7.68446
7.64355
7.59968
7.54047
10.0232
9.83819
9.66163
9.50248
9.35485
9.21622
9.08536
8.96216
8.84685
8.73978
8.64106
8.55076
8.46848
8.39426
8.32769
8.26816
8.2151
8.16801
8.12636
8.08932
8.05614
8.02519
7.99568
7.96969
7.93366
10.3293
10.1532
9.97944
9.82031
9.6723
9.5334
9.40234
9.27908
9.16381
9.05696
8.95861
8.86841
8.78626
8.71232
8.64621
8.58741
8.53565
8.49011
8.45047
8.4177
8.39166
8.37026
8.35423
8.34797
8.34122
10.6533
10.4672
10.2884
10.1274
9.97846
9.83933
9.70818
9.58566
9.47182
9.36611
9.26839
9.17869
9.09795
9.02491
8.95939
8.90151
8.85039
8.80625
8.76895
8.73829
8.71402
8.69663
8.68657
8.68807
8.69495
10.9345
10.7533
10.5775
10.4179
10.2702
10.1323
10.0033
9.88253
9.76991
9.66521
9.56841
9.48043
9.40043
9.32828
9.26366
9.20586
9.15487
9.1113
9.07499
9.04443
9.01927
8.99878
8.98267
8.9729
8.96177
11.2126
11.0255
10.8496
10.6914
10.5468
10.4119
10.2855
10.1669
10.0559
9.95277
9.85826
9.77148
9.69183
9.62041
9.5568
9.49978
9.45015
9.40662
9.36883
9.3372
9.31089
9.28733
9.26583
9.24759
9.22554
11.3998
11.2488
11.0917
10.9446
10.8061
10.6762
10.5527
10.4371
10.3292
10.2292
10.1366
10.0509
9.97355
9.90327
9.83994
9.78429
9.73505
9.69181
9.65434
9.62248
9.59556
9.57345
9.55457
9.54198
9.53495
11.684
11.5092
11.3444
11.1955
11.0582
10.9301
10.8103
10.6976
10.5921
10.4939
10.4027
10.3196
10.2436
10.1745
10.112
10.0562
10.0063
9.96324
9.92681
9.89567
9.86973
9.84893
9.83295
9.82488
9.82609
11.8951
11.7302
11.5719
11.4276
11.2954
11.1715
11.0549
10.9451
10.842
10.7456
10.6571
10.5753
10.4999
10.4315
10.3703
10.3148
10.266
10.2228
10.1849
10.1531
10.127
10.1054
10.0883
10.0785
10.0766
12.062
11.9225
11.7788
11.6445
11.5177
11.3988
11.2856
11.1787
11.0787
10.9857
10.8989
10.8181
10.7446
10.6775
10.6165
10.5618
10.513
10.4695
10.4313
10.3983
10.37
10.3462
10.3257
10.3101
10.2982
12.2913
12.1397
11.9931
11.8588
11.7339
11.6168
11.5068
11.403
11.3054
11.2139
11.1282
11.0496
10.977
10.911
10.8505
10.7958
10.7461
10.7022
10.664
10.6301
10.6005
10.5757
10.555
10.5409
10.5342
12.4992
12.3408
12.193
12.0598
11.9381
11.8241
11.7163
11.6151
11.5195
11.4295
11.3463
11.269
11.1973
11.1312
11.0714
11.0172
10.968
10.9235
10.8834
10.8483
10.8179
10.7913
10.7677
10.7486
10.7324
12.6019
12.4886
12.3637
12.2431
12.1277
12.0186
11.914
11.8144
11.7209
11.6335
11.5515
11.4749
11.4049
11.3401
11.2807
11.2264
11.1775
11.1332
11.0931
11.0573
11.0256
10.9979
10.975
10.9599
10.9569
12.8463
12.6978
12.5585
12.4321
12.3151
12.2054
12.1023
12.0044
11.9119
11.8251
11.7436
11.6685
11.5987
11.5353
11.4767
11.4228
11.3735
11.3293
11.2899
11.2539
11.2209
11.1918
11.165
11.1416
11.121
13.0042
12.865
12.7294
12.6044
12.4891
12.3804
12.2773
12.1804
12.0887
12.0023
11.9224
11.8481
11.7791
11.7155
11.6579
11.6059
11.5582
11.5148
11.4755
11.4401
11.4089
11.3809
11.3554
11.3333
11.3122
13.1341
13.0122
12.885
12.7644
12.6498
12.5419
12.4389
12.341
12.2493
12.1639
12.0843
12.0102
11.9427
11.8809
11.8245
11.7733
11.7277
11.6864
11.6492
11.6161
11.5864
11.5593
11.5354
11.5151
11.5007
13.3166
13.183
13.0485
12.9217
12.8025
12.6903
12.5851
12.4857
12.3927
12.3061
12.2257
12.1526
12.0856
12.0255
11.9711
11.922
11.8784
11.8403
11.8074
11.7785
11.7528
11.7307
11.7109
11.6945
11.6832
13.5124
13.3559
13.2045
13.0655
12.9382
12.8197
12.7089
12.6063
12.5108
12.4224
12.3422
12.2692
12.203
12.144
12.0922
12.0472
12.0084
11.9752
11.9472
11.9241
11.9061
11.892
11.88
11.8694
11.8559
13.6477
13.4895
13.3302
13.1823
13.0452
12.9192
12.8022
12.6941
12.5954
12.506
12.4249
12.3519
12.2878
12.2321
12.1839
12.143
12.1092
12.0823
12.0619
12.0486
12.0415
12.0406
12.0466
12.0602
12.0822
13.8095
13.6198
13.4364
13.2689
13.1164
12.978
12.8529
12.7393
12.6373
12.546
12.4644
12.3933
12.3314
12.2784
12.2339
12.1976
12.1694
12.1503
12.1405
12.139
12.1457
12.1609
12.1831
12.2105
12.2354
13.915
13.7058
13.4948
13.3018
13.13
12.9776
12.8428
12.7244
12.6207
12.5293
12.45
12.3814
12.3223
12.2721
12.2315
12.2003
12.1791
12.1678
12.1675
12.1788
12.2034
12.242
12.294
12.3609
12.4413
14.056
13.7631
13.4897
13.255
13.0567
12.8907
12.7506
12.6321
12.5312
12.4457
12.372
12.3082
12.2539
12.2085
12.1711
12.1423
12.1234
12.1158
12.1217
12.1447
12.1866
12.2503
12.3381
12.4495
12.5742
14.0852
13.6799
13.3308
13.0548
12.8401
12.674
12.5442
12.441
12.3572
12.2874
12.2276
12.1748
12.1276
12.085
12.0471
12.0149
11.9901
11.9766
11.9785
12.0011
12.0515
12.1382
12.2702
12.4542
12.6789
13.8569
13.2904
12.8753
12.5947
12.4082
12.2849
12.2017
12.1436
12.1
12.0632
12.029
11.9942
11.9567
11.9157
11.8722
11.8271
11.7829
11.7435
11.7152
11.7063
11.7299
11.804
11.9527
12.2067
12.5836
12.7645
12.1942
11.8925
11.7597
11.7185
11.7234
11.7482
11.7773
11.802
11.8174
11.8204
11.8095
11.784
11.7437
11.6886
11.6195
11.5377
11.4461
11.3492
11.2553
11.1776
11.14
11.1819
11.3711
11.8005
10.0714
10.1304
10.3689
10.6445
10.9034
11.1263
11.3091
11.4532
11.5613
11.636
11.6795
11.6937
11.6797
11.6379
11.5682
11.4701
11.3425
11.1834
10.9905
10.7615
10.4971
10.2026
9.8971
9.6282
9.52907
6.35516
7.87127
8.98869
9.77648
10.3452
10.7639
11.0752
11.3065
11.475
11.5917
11.6636
11.6953
11.6892
11.6465
11.5668
11.4488
11.2892
11.0814
10.8146
10.4737
10.0383
9.47311
8.70649
7.6116
6.12037
9.31688
9.62476
10.0032
10.3821
10.7444
11.0701
11.3456
11.5677
11.7388
11.8622
11.941
11.9781
11.9754
11.9335
11.853
11.7341
11.5754
11.3729
11.1228
10.8263
10.4969
10.1648
9.83169
9.5044
9.29914
21.3963
13.8899
12.026
11.4613
11.3843
11.5166
11.7132
11.9045
12.0635
12.1825
12.2604
12.2976
12.2956
12.2552
12.1773
12.0627
11.9112
11.7234
11.5085
11.2986
11.17
11.2726
11.8761
13.789
21.2093
51.4118
22.8045
15.0455
12.8673
12.1785
12.0308
12.1474
12.3289
12.4676
12.5713
12.6411
12.6743
12.6696
12.6291
12.5531
12.444
12.3033
12.1394
11.9814
11.9106
12.0831
12.8244
15.2247
23.5014
54.606
48.4736
25.6849
15.5965
11.1588
9.90598
9.56016
9.91221
10.5224
11.1164
11.543
11.7268
11.8301
12.0154
12.235
12.3559
12.3597
12.2965
12.1498
12.0811
12.0725
12.3531
13.6104
18.2725
32.4089
64.2968
29.1423
19.9538
10.5624
4.21464
1.61471
1.23474
1.59577
2.85922
4.20291
5.17697
5.43726
5.58901
5.99938
6.87471
7.67654
8.10972
8.17735
8.05274
7.97206
8.20403
9.26232
11.8462
17.1165
27.2291
45.2809
17.8453
14.4236
6.17754
1.11866
0.0445133
0.00922264
0.0166968
0.0655448
0.374903
0.744005
0.752932
0.857067
1.26166
1.81352
2.18832
2.24826
2.18727
1.97643
1.87156
1.97578
2.63492
4.88226
10.8689
19.7662
25.3844
10.0412
9.00014
3.77472
0.604693
0.0154163
0.000938754
0.000737627
0.000749999
0.00388613
0.0303652
0.0382156
0.0531641
0.0921977
0.12379
0.127134
0.109314
0.0966469
0.104399
0.164134
0.340577
0.782098
2.18562
6.39132
11.1515
11.112
)
;

boundaryField
{
    inlet
    {
        type            calculated;
        value           nonuniform List<scalar> 
25
(
0.000866617
0.000866617
0.000866617
0.000866617
0.000866617
0.000866617
0.000866617
0.000866617
0.000866617
0.000866617
0.000866617
0.000866617
0.000866617
0.000866617
0.000866617
0.000866617
0.000866617
0.000866617
0.000866617
0.000866617
0.000866617
0.000866617
0.000866617
0.000866617
0.000866617
)
;
    }
    outlet
    {
        type            calculated;
        value           nonuniform List<scalar> 
25
(
10.0412
0.000866612
0.000866612
0.000866612
0.000866612
0.000866612
0.000866612
0.000866612
0.000866612
0.000866612
0.000866612
0.000866612
0.000866612
0.000866612
0.000866612
0.000866612
0.000866612
0.000866612
0.000866612
0.000866612
0.000866612
0.000866612
0.000866612
11.1515
11.112
)
;
    }
    walls
    {
        type            compressible::alphatWallFunction;
        value           nonuniform List<scalar> 
150
(
0.0203721
0.0237017
0.0245128
0.0247912
0.0250891
0.0256224
0.0261939
0.0267469
0.0271493
0.0273941
0.0275443
0.027517
0.0274597
0.027389
0.0273294
0.0273287
0.0273586
0.0273801
0.0273776
0.0272937
0.0270438
0.0269303
0.0270568
0.0274384
0.0280305
0.0287414
0.0294831
0.0301838
0.0308146
0.0313742
0.0318761
0.0323367
0.0327737
0.0331954
0.0335939
0.0339604
0.0342998
0.0346261
0.034938
0.0352378
0.0355249
0.0358009
0.036065
0.0363189
0.0365625
0.036796
0.0370162
0.0372286
0.0374303
0.0376218
0.0378077
0.0379867
0.0381579
0.0383281
0.0384945
0.0386594
0.0388278
0.0390013
0.039181
0.0393755
0.0395898
0.0398312
0.0401078
0.0404362
0.0408406
0.0413714
0.04212
0.0431886
0.043358
0.0428404
0.0412201
0.0391104
0.0364636
0.0342535
0.0320974
0.0162284
0.0200973
0.0214285
0.0220853
0.0224286
0.0225773
0.022537
0.0224956
0.022571
0.0230013
0.0238429
0.0247396
0.025441
0.0259272
0.0263252
0.0266757
0.0269658
0.0272333
0.0275125
0.0278198
0.0281565
0.0285007
0.0288374
0.0291555
0.0294792
0.0298045
0.0301427
0.0304943
0.0308573
0.0312175
0.0315639
0.0318964
0.0322079
0.0324918
0.0327711
0.0330434
0.0333171
0.0336018
0.0339023
0.0342176
0.0345471
0.0348811
0.0352053
0.0355201
0.0358279
0.036122
0.0363978
0.0366448
0.0368695
0.037086
0.0372939
0.0374929
0.0376849
0.0378707
0.0380535
0.0382336
0.0384153
0.0386012
0.0387958
0.0390035
0.0392326
0.0394909
0.0397912
0.0401478
0.0405883
0.041166
0.0419787
0.0431391
0.0433378
0.0428051
0.041052
0.0392033
0.0376694
0.0360881
0.0338935
)
;
    }
    defaultFaces
    {
        type            empty;
    }
}


// ************************************************************************* //
