/*--------------------------------*- C++ -*----------------------------------*\
| =========                 |                                                 |
| \\      /  F ield         | OpenFOAM: The Open Source CFD Toolbox           |
|  \\    /   O peration     | Version:  2312                                  |
|   \\  /    A nd           | Website:  www.openfoam.com                      |
|    \\/     M anipulation  |                                                 |
\*---------------------------------------------------------------------------*/
FoamFile
{
    version     2.0;
    format      ascii;
    arch        "LSB;label=32;scalar=64";
    class       volScalarField;
    location    "0.85/water";
    object      alphat.gas;
}
// * * * * * * * * * * * * * * * * * * * * * * * * * * * * * * * * * * * * * //

dimensions      [1 -1 -1 0 0 0 0];

internalField   nonuniform List<scalar> 
1496
(
3.76884818139e-06
4.45136761505e-06
4.69439602017e-06
4.48973468262e-06
3.95378413246e-06
3.23953221892e-06
2.43280116166e-06
1.73233838321e-06
1.30346406125e-06
1.04608232295e-06
9.04237932759e-07
8.32243218097e-07
7.90010633947e-07
7.43887570163e-07
6.70965415471e-07
5.66744266284e-07
4.461187045e-07
3.32364821311e-07
2.42255700001e-07
1.73726619768e-07
3.54986671421e-06
4.3403677083e-06
4.63587109308e-06
4.55552561709e-06
4.17133083107e-06
3.56538204852e-06
2.80425318382e-06
2.02902218699e-06
1.50517640576e-06
1.15201920921e-06
9.42130161044e-07
8.3426746682e-07
7.83521840088e-07
7.44915398593e-07
6.81454391238e-07
5.80709514593e-07
4.60708557772e-07
3.49815980722e-07
2.65194712457e-07
2.00931312688e-07
3.31337308773e-06
4.02418810841e-06
4.37862100407e-06
4.4581666784e-06
4.25478915143e-06
3.78197934778e-06
3.09854084274e-06
2.35476829991e-06
1.76023749704e-06
1.30549247864e-06
1.01208020417e-06
8.49888984668e-07
7.7648005861e-07
7.37459159281e-07
6.814143894e-07
5.85015791916e-07
4.67705990838e-07
3.628460597e-07
2.86956157656e-07
2.29081156199e-07
3.03958127775e-06
3.652859824e-06
4.03132134727e-06
4.24572952451e-06
4.21212712202e-06
3.89090350919e-06
3.32581341613e-06
2.64497817755e-06
2.03817440475e-06
1.49972419536e-06
1.12399434554e-06
8.95003905947e-07
7.81828981045e-07
7.29556693228e-07
6.75464208867e-07
5.83295748913e-07
4.70447197465e-07
3.74126277104e-07
3.09449072872e-07
2.59861602494e-07
2.86852990272e-06
3.37876452838e-06
3.70020189561e-06
3.98509913993e-06
4.08064919857e-06
3.89557675447e-06
3.45025846204e-06
2.84337572699e-06
2.24453929316e-06
1.69215360487e-06
1.25981081042e-06
9.68986145347e-07
8.07239303024e-07
7.2911677638e-07
6.68695473118e-07
5.79097360689e-07
4.72082926736e-07
3.85701530852e-07
3.33562362091e-07
2.94072461103e-07
2.75868241373e-06
3.1761235302e-06
3.39968202469e-06
3.69130837213e-06
3.88190238348e-06
3.81721202348e-06
3.48816714203e-06
2.9692739643e-06
2.4077328438e-06
1.85843228892e-06
1.39396169226e-06
1.0559796092e-06
8.4934111265e-07
7.40465626083e-07
6.66501520436e-07
5.75351819868e-07
4.73581883285e-07
3.98048914821e-07
3.59056227249e-07
3.30831576368e-07
2.36745049127e-06
2.91478758366e-06
3.15060447947e-06
3.42730464999e-06
3.66200397756e-06
3.68455987603e-06
3.45680192966e-06
3.02987924478e-06
2.51751293912e-06
1.98852878914e-06
1.50480062635e-06
1.13648868895e-06
8.96436949257e-07
7.60339084415e-07
6.70375503879e-07
5.74291863701e-07
4.76386822509e-07
4.11070422041e-07
3.84990528054e-07
3.67608090208e-07
2.01052070603e-06
2.70525897211e-06
2.97662873588e-06
3.22284961153e-06
3.45544247802e-06
3.52349033502e-06
3.36869495358e-06
3.01851488819e-06
2.55557003793e-06
2.05099567499e-06
1.57451645199e-06
1.19501669266e-06
9.36657637254e-07
7.82149208756e-07
6.78034952032e-07
5.7543718431e-07
4.80456863722e-07
4.247694937e-07
4.11199564679e-07
4.02340844215e-07
1.87607604744e-06
2.57337474506e-06
2.87073606642e-06
3.08454461704e-06
3.27937232679e-06
3.35117302323e-06
3.23615963439e-06
2.94174443205e-06
2.52344307225e-06
2.049584474e-06
1.59398782058e-06
1.22182510224e-06
9.61280244388e-07
7.9911957682e-07
6.8507002028e-07
5.76573152918e-07
4.84874971894e-07
4.38837629605e-07
4.37132750793e-07
4.33424508133e-07
1.79772355635e-06
2.5123015235e-06
2.84617333423e-06
3.01673802705e-06
3.13642112567e-06
3.16896262644e-06
3.0604946585e-06
2.80049940258e-06
2.42122024831e-06
1.98408329538e-06
1.56212760691e-06
1.21356089829e-06
9.6575110456e-07
8.06026767184e-07
6.86692849038e-07
5.7476317985e-07
4.8856386662e-07
4.53159409436e-07
4.61634477181e-07
4.58380219253e-07
1.78247220044e-06
2.56301118742e-06
2.92424162288e-06
3.00832698496e-06
3.00630801336e-06
2.96060949756e-06
2.83224441927e-06
2.59131139935e-06
2.2492320574e-06
1.8585188671e-06
1.48366604809e-06
1.17285521427e-06
9.49888543564e-07
7.99864089178e-07
6.7890511627e-07
5.67685057558e-07
4.91097005665e-07
4.68047923954e-07
4.82732620795e-07
4.75253146282e-07
1.85041459775e-06
2.75203621306e-06
3.09233239895e-06
3.01412478499e-06
2.85080722872e-06
2.70576811253e-06
2.54554955335e-06
2.31870495323e-06
2.01934294973e-06
1.68678833297e-06
1.37032466424e-06
1.10784401819e-06
9.16864622017e-07
7.79141660932e-07
6.59371279408e-07
5.55061512611e-07
4.93251607333e-07
4.83506954793e-07
4.97117666961e-07
4.83784490442e-07
2.01562667443e-06
3.04707116499e-06
3.24444029983e-06
2.96116426647e-06
2.64513238794e-06
2.40959541265e-06
2.22130007917e-06
2.0130355837e-06
1.76378373122e-06
1.4957225237e-06
1.24185276768e-06
1.03095809422e-06
8.71099645434e-07
7.43615885527e-07
6.28938253238e-07
5.39368923089e-07
4.96662109529e-07
4.96281530407e-07
5.01924438692e-07
4.8634969437e-07
2.15781786974e-06
3.28408555968e-06
3.2431925287e-06
2.80808481634e-06
2.40118511802e-06
2.10877951558e-06
1.906598327e-06
1.7229424978e-06
1.52497315153e-06
1.31833831847e-06
1.12224917818e-06
9.5398137505e-07
8.15151712718e-07
6.95143996326e-07
5.9272420925e-07
5.2516390032e-07
5.00955170714e-07
5.0087585481e-07
4.9856830057e-07
4.84662736228e-07
2.22512304167e-06
3.27760458719e-06
3.09045608775e-06
2.59588887122e-06
2.16595256029e-06
1.85470019428e-06
1.65401297595e-06
1.49891060254e-06
1.34532497387e-06
1.18500415641e-06
1.02623039252e-06
8.79256236877e-07
7.49822655348e-07
6.40347473335e-07
5.59341743688e-07
5.15433492599e-07
5.0016673355e-07
4.95882471619e-07
4.91140945291e-07
4.76546126145e-07
2.23241644042e-06
3.14185055077e-06
2.86513695447e-06
2.37322165843e-06
1.98020463321e-06
1.69196735336e-06
1.50803038032e-06
1.37836440984e-06
1.24959758418e-06
1.1040966226e-06
9.49396293228e-07
8.03313014572e-07
6.81299109557e-07
5.91452735263e-07
5.35387669452e-07
5.0495716215e-07
4.90739947485e-07
4.85638808206e-07
4.78196068861e-07
4.57188023027e-07
2.22478669101e-06
2.85421425017e-06
2.62072216511e-06
2.20987602441e-06
1.89092589937e-06
1.65236950413e-06
1.49379500215e-06
1.37507008812e-06
1.23543456752e-06
1.06108947393e-06
8.8195128807e-07
7.32472059613e-07
6.26676652146e-07
5.60158303444e-07
5.17453404541e-07
4.90335460769e-07
4.77801390711e-07
4.70114987453e-07
4.5454865943e-07
4.22488063615e-07
2.34367338297e-06
2.65389111037e-06
2.50638957152e-06
2.21250525107e-06
1.96288878392e-06
1.76410774401e-06
1.61770784772e-06
1.47749329576e-06
1.27894457166e-06
1.0421695348e-06
8.36596012592e-07
6.93945411352e-07
6.06531557421e-07
5.49311670818e-07
5.06416589136e-07
4.79545185736e-07
4.63733671641e-07
4.46552231996e-07
4.1937583437e-07
3.7908031761e-07
2.56563715294e-06
2.78066258829e-06
2.70043545297e-06
2.46949802635e-06
2.23240455932e-06
2.02546047954e-06
1.8530930036e-06
1.65219987295e-06
1.36602356411e-06
1.06808715199e-06
8.49941221885e-07
7.1321451992e-07
6.25787871948e-07
5.60919633478e-07
5.1342666328e-07
4.80533877877e-07
4.51537152583e-07
4.1971678217e-07
3.81921872418e-07
3.38878834782e-07
2.96720527484e-06
3.20757309634e-06
3.14873888374e-06
2.90408028113e-06
2.61666370966e-06
2.35919225698e-06
2.14062791723e-06
1.87144637133e-06
1.49936674613e-06
1.14738554496e-06
9.08939807015e-07
7.60699138359e-07
6.61899981098e-07
5.92243945282e-07
5.42170086943e-07
4.97488159712e-07
4.50040408481e-07
4.01214987663e-07
3.53362561096e-07
3.08312271129e-07
3.44913753246e-06
3.67702456105e-06
3.55269140004e-06
3.24585171056e-06
2.91047918974e-06
2.63318192472e-06
2.40198367144e-06
2.08189393165e-06
1.62306933463e-06
1.21518988603e-06
9.51947536682e-07
7.91200826599e-07
6.90536448411e-07
6.23188912384e-07
5.69931625147e-07
5.16668857707e-07
4.56916317625e-07
3.93485188477e-07
3.35590606929e-07
2.89377911916e-07
3.34177919655e-06
3.65322689167e-06
3.62173013547e-06
3.3920840055e-06
3.0905368887e-06
2.81690182101e-06
2.57165939837e-06
2.22020332347e-06
1.71776325176e-06
1.27610245222e-06
9.99069652549e-07
8.27767456252e-07
7.19343895984e-07
6.46436822398e-07
5.86726686004e-07
5.26536644127e-07
4.5954204515e-07
3.88075409819e-07
3.27415387114e-07
2.98422175649e-07
2.57739184545e-06
3.59174956658e-06
3.777948865e-06
3.56386842294e-06
3.23524553805e-06
2.93148835644e-06
2.64684534787e-06
2.25524171453e-06
1.75569455225e-06
1.33689227144e-06
1.06202740579e-06
8.80827211524e-07
7.597508857e-07
6.77223529081e-07
6.12350694208e-07
5.46486741179e-07
4.68016852599e-07
3.90435570912e-07
3.42473677795e-07
3.40699251792e-07
2.34329293166e-06
3.6175155799e-06
3.9722963712e-06
3.75331012214e-06
3.38791831309e-06
3.04194060474e-06
2.70059570924e-06
2.27055880343e-06
1.79191776022e-06
1.40612706212e-06
1.1392936884e-06
9.48668006025e-07
8.10698487261e-07
7.15724862069e-07
6.45439825702e-07
5.73904023665e-07
4.85496101419e-07
4.07280261695e-07
3.72303223547e-07
3.924740538e-07
2.27811584366e-06
3.63245617842e-06
4.06916431174e-06
3.87151309559e-06
3.51226524328e-06
3.14601002527e-06
2.75505953575e-06
2.29746076563e-06
1.83774779154e-06
1.47423443955e-06
1.21062943941e-06
1.01120806872e-06
8.5994351881e-07
7.53807325662e-07
6.75995532889e-07
5.95585942284e-07
4.95688168918e-07
4.21416805957e-07
4.01258340895e-07
4.37111258136e-07
2.25408579341e-06
3.63677899121e-06
4.09148145156e-06
3.90195946588e-06
3.56939277076e-06
3.208261354e-06
2.78765168134e-06
2.31724832789e-06
1.87342458685e-06
1.52312243825e-06
1.26000744849e-06
1.05639832839e-06
9.00089393796e-07
7.86438237171e-07
6.97812344524e-07
6.00596465767e-07
4.94191665846e-07
4.29622790079e-07
4.31280680814e-07
4.75188676919e-07
2.25424650711e-06
3.66687005596e-06
4.08432449527e-06
3.86227961679e-06
3.54886675431e-06
3.20516119136e-06
2.77049399208e-06
2.2996730544e-06
1.87491812237e-06
1.54104727383e-06
1.28593822925e-06
1.08577009426e-06
9.30041408353e-07
8.10007099122e-07
7.04619629746e-07
5.86069968219e-07
4.84477091065e-07
4.39791528683e-07
4.68463769761e-07
5.04591417951e-07
2.28108958286e-06
3.71332044605e-06
4.05299060351e-06
3.75847127489e-06
3.44760676853e-06
3.12021706412e-06
2.68653355811e-06
2.2352542581e-06
1.84307546615e-06
1.5331224938e-06
1.29230279608e-06
1.10119716272e-06
9.49097581136e-07
8.1954369571e-07
6.90263930893e-07
5.61446673759e-07
4.75285702122e-07
4.60414831626e-07
5.13344464294e-07
5.16306180135e-07
2.32902829207e-06
3.77793254387e-06
4.02300876139e-06
3.63597622025e-06
3.30976609207e-06
2.98123530053e-06
2.55130501502e-06
2.13242287969e-06
1.78125995116e-06
1.50200109529e-06
1.28104161449e-06
1.10208824818e-06
9.52415110407e-07
8.08717238068e-07
6.55331155066e-07
5.34658299352e-07
4.76030805622e-07
4.97052950654e-07
5.60548737592e-07
5.05707768322e-07
2.39966345623e-06
3.87035855178e-06
4.02268019774e-06
3.53554999236e-06
3.17380829697e-06
2.82358411136e-06
2.39695142476e-06
2.01261504338e-06
1.70151439374e-06
1.45347139616e-06
1.25334308203e-06
1.08533244833e-06
9.3319883289e-07
7.6991239315e-07
6.12806841148e-07
5.15513808882e-07
4.94983993434e-07
5.4972606962e-07
6.00152558896e-07
4.68274360534e-07
2.48474421684e-06
3.99466923261e-06
4.07975363304e-06
3.49076645129e-06
3.06780316981e-06
2.67758949926e-06
2.25221841085e-06
1.89738720537e-06
1.61797558389e-06
1.39446749099e-06
1.21015699856e-06
1.04804443897e-06
8.92044407398e-07
7.07757816423e-07
5.7341411207e-07
5.1438872227e-07
5.37073083438e-07
6.10662231905e-07
6.20911295739e-07
3.89671900487e-07
2.57805394344e-06
4.15078127996e-06
4.21474546504e-06
3.52996790051e-06
3.01704562838e-06
2.56904877492e-06
2.13736218898e-06
1.80198325209e-06
1.54250079245e-06
1.33226004571e-06
1.15296512896e-06
9.91542357078e-07
8.17627523621e-07
6.45979188348e-07
5.51553325131e-07
5.39783756929e-07
6.00385365217e-07
6.67713397745e-07
6.20872944271e-07
3.04005593663e-07
2.66365812494e-06
4.325299524e-06
4.43217328547e-06
3.67645983009e-06
3.05046536746e-06
2.52387666892e-06
2.06897020071e-06
1.73892473798e-06
1.48690023841e-06
1.27772554139e-06
1.09348174025e-06
9.12572044123e-07
7.32420705683e-07
6.02956429194e-07
5.58967795948e-07
5.9421928376e-07
6.74080842869e-07
7.11171769597e-07
6.0892783088e-07
2.99187668472e-07
2.7166861741e-06
4.4777535551e-06
4.67885969909e-06
3.91721938417e-06
3.18228518663e-06
2.5600083063e-06
2.05518046452e-06
1.71200410239e-06
1.4546869266e-06
1.23215844723e-06
1.03187727033e-06
8.32128359321e-07
6.71952300147e-07
5.93984168613e-07
6.00345387175e-07
6.69970823261e-07
7.43203232369e-07
7.38476573563e-07
5.90018658484e-07
2.88917263086e-07
2.72525031939e-06
4.55111566908e-06
4.87473631825e-06
4.17682977102e-06
3.3845449825e-06
2.68978325683e-06
2.11315548727e-06
1.72860423314e-06
1.45374136867e-06
1.20983036826e-06
9.79957523367e-07
7.78813370894e-07
6.53621597662e-07
6.22343532523e-07
6.68584353657e-07
7.50924469508e-07
7.98456821755e-07
7.53323753157e-07
5.69430076568e-07
2.77420600868e-07
2.699771886e-06
4.50363189146e-06
4.96697587859e-06
4.41316414459e-06
3.62620919209e-06
2.87409694142e-06
2.22393600369e-06
1.78345589886e-06
1.47900524247e-06
1.20926089831e-06
9.43718624258e-07
7.52863563387e-07
6.64165560272e-07
6.7214032388e-07
7.43969281931e-07
8.21229087526e-07
8.38931539499e-07
7.61891707406e-07
5.51756225356e-07
2.75516526752e-07
2.62825392024e-06
4.25778323761e-06
4.84121659717e-06
4.50977478207e-06
3.82484399157e-06
3.0582558816e-06
2.3493523728e-06
1.85090380665e-06
1.51172229221e-06
1.21620275152e-06
9.16620059013e-07
7.30082770237e-07
6.75822853276e-07
7.19469633654e-07
8.08443283673e-07
8.75362089387e-07
8.68722887898e-07
7.69669837498e-07
5.44263625075e-07
2.91475946757e-07
3.60379382486e-08
3.05499519038e-08
2.52832690992e-08
2.14216540806e-08
2.05178988062e-08
2.50653547064e-08
2.98778867011e-08
4.20006799838e-08
2.48298615249e-07
3.23300588714e-07
1.98072303835e-07
2.26501990191e-07
2.72408903368e-07
3.4906847177e-07
6.23667700314e-07
3.50514642754e-06
1.1099688515e-07
6.75081980259e-08
5.23644228379e-08
4.43568176956e-08
3.856064402e-08
3.23321072535e-08
2.66180996073e-08
2.22212942775e-08
2.0581666687e-08
2.47555127646e-08
3.11081315811e-08
5.54357329446e-08
5.21479951701e-07
7.18293423683e-07
2.06771952541e-07
2.31004872918e-07
2.78782790432e-07
3.62691385133e-07
7.16520048973e-07
3.67283358207e-06
1.33449850663e-07
7.90507991675e-08
5.8432349063e-08
4.89821653279e-08
4.17359749472e-08
3.48172919145e-08
2.84616128057e-08
2.31040084861e-08
2.08234632095e-08
2.69685359926e-08
2.72191519257e-08
1.37303072261e-07
7.91523237582e-07
1.05960469251e-06
2.15951519626e-07
2.36486288904e-07
2.85390881164e-07
3.77286628083e-07
9.82276260934e-07
3.95566355717e-06
1.5731542644e-07
9.28292163012e-08
6.63779922617e-08
5.47116834582e-08
4.59518906199e-08
3.83161539728e-08
3.07518630938e-08
2.3795362611e-08
2.13940837988e-08
3.33566337811e-08
3.72893900865e-08
3.08153439185e-07
9.31390824141e-07
1.19728862851e-06
2.2222583646e-07
2.37487023828e-07
2.85587614439e-07
3.83328372337e-07
1.6521381598e-06
4.33522497169e-06
1.83192251464e-07
1.09196384777e-07
7.69722151795e-08
6.23799421295e-08
5.17619197314e-08
4.30379338314e-08
3.32878437317e-08
2.44418608216e-08
2.26897166211e-08
3.49463208683e-08
7.45582773416e-08
4.23918929413e-07
1.03456149228e-06
1.26591651849e-06
2.22731259158e-07
2.27739492907e-07
2.66769920478e-07
4.61733107494e-07
2.7006870475e-06
4.71038647172e-06
2.12591923851e-07
1.29502900683e-07
9.14963545478e-08
7.29487188826e-08
5.97158160138e-08
4.93143252105e-08
3.58962291812e-08
2.53993121219e-08
3.18005585605e-08
5.26537882199e-08
1.02267309026e-07
5.14715596218e-07
1.11015314518e-06
1.28240605801e-06
2.16995167544e-07
2.08977127285e-07
2.33013759464e-07
4.61836638254e-07
3.3478263789e-06
4.85422168149e-06
2.46659640162e-07
1.55452866938e-07
1.11365998299e-07
8.75921745751e-08
7.09725528585e-08
5.74553558702e-08
3.8687729972e-08
2.66182353105e-08
3.43449651707e-08
7.25428097494e-08
1.2211898912e-07
5.82545024184e-07
1.1477102302e-06
1.17548682552e-06
2.05404523173e-07
1.86773573991e-07
2.00452320581e-07
6.37789047606e-07
2.91167245905e-06
4.35275462257e-06
2.85086436564e-07
1.88568953553e-07
1.38380263221e-07
1.08022851691e-07
8.68401082919e-08
6.71507275489e-08
4.18440950886e-08
2.76796551585e-08
4.22042089846e-08
6.5608722553e-08
1.5063191394e-07
6.31683818003e-07
1.15686299549e-06
8.32090505334e-07
1.87499728994e-07
1.61841789507e-07
1.74116193521e-07
9.40408050862e-07
1.69393574035e-06
2.37613084392e-06
3.24715026521e-07
2.29438894691e-07
1.74051807217e-07
1.35492440115e-07
1.06942724476e-07
7.70020224456e-08
4.48598390658e-08
3.31676011247e-08
5.22694019684e-08
5.4462389539e-08
1.90954897547e-07
6.848741553e-07
1.13232007866e-06
3.98781342244e-07
1.58406151182e-07
1.31808793405e-07
1.5105314387e-07
9.33125551614e-07
6.3321100726e-07
1.2348984076e-10
3.61250122007e-07
2.75697815773e-07
2.17280380036e-07
1.68652553162e-07
1.28076122852e-07
8.52732501343e-08
4.61856575303e-08
3.43487391221e-08
4.94433564614e-08
5.10775135089e-08
2.40009831424e-07
7.35599523362e-07
9.15929250586e-07
2.45799376567e-07
1.21504711472e-07
1.03318073819e-07
1.26906461315e-07
5.12749769704e-07
1.86076194751e-07
2.05909778322e-32
3.93931058797e-07
3.21776913721e-07
2.62455367384e-07
2.01932039173e-07
1.45554577072e-07
8.97776800571e-08
4.53224251015e-08
3.10532246568e-08
3.89582364888e-08
5.4296409849e-08
2.8580735286e-07
6.97122819722e-07
3.89657286381e-07
1.50471414567e-07
9.29636002579e-08
8.42961260928e-08
1.04414995292e-07
1.56371709255e-07
2.60988813509e-08
1.35386631542e-32
4.2121619036e-07
3.62611872515e-07
3.01754810388e-07
2.27985640277e-07
1.55371071285e-07
8.95986074934e-08
4.28447370821e-08
2.69897662373e-08
3.07142957763e-08
6.12787140949e-08
3.13147904988e-07
3.90403355469e-07
2.03650385446e-07
1.2427933239e-07
7.54101244027e-08
7.15153948376e-08
8.72269129739e-08
1.04180858844e-07
3.89574717138e-09
9.72621359452e-33
4.41850145912e-07
3.93236651238e-07
3.28094269453e-07
2.40704691753e-07
1.56132868191e-07
8.54923241279e-08
3.95739811026e-08
2.32969267934e-08
2.61221049415e-08
6.44591061028e-08
2.51917699876e-07
1.56710121435e-07
1.31811430603e-07
1.02983678332e-07
6.08663413162e-08
5.85573246073e-08
7.33039613445e-08
6.96856392019e-08
1.12874826188e-09
7.24912145219e-33
4.54538505575e-07
4.09079059641e-07
3.3568478633e-07
2.37921088687e-07
1.48937802432e-07
7.85525933144e-08
3.58794643528e-08
2.0300589592e-08
2.29314598937e-08
5.36675200891e-08
1.08272755027e-07
1.03348916571e-07
1.11465900411e-07
8.09178523735e-08
4.37596392337e-08
4.2118181223e-08
5.70945061385e-08
5.29551748348e-08
3.32377717194e-10
5.73603907691e-33
4.56421640352e-07
4.06444036142e-07
3.23811798752e-07
2.23789348095e-07
1.35912329974e-07
6.96964133812e-08
3.17721380414e-08
1.78701722077e-08
1.86777258517e-08
3.63928519629e-08
7.22353450286e-08
9.61815332674e-08
8.98889839712e-08
5.13179564046e-08
2.26484930372e-08
2.46044002822e-08
3.76985692211e-08
3.69729415039e-08
3.56462019196e-10
5.0130264677e-33
4.44135955687e-07
3.84149643593e-07
2.99246811228e-07
2.043343567e-07
1.20556327275e-07
6.05160136828e-08
2.76194856547e-08
1.62788686615e-08
1.51780930074e-08
2.57689199833e-08
5.52600397946e-08
8.38960019998e-08
6.08777999594e-08
2.18722984699e-08
7.601247641e-09
1.04810902918e-08
2.24757389394e-08
1.98322702532e-08
9.62343441328e-10
4.98210119197e-33
4.13897352374e-07
3.49389749004e-07
2.71341744488e-07
1.8631358236e-07
1.07321523663e-07
5.30126699699e-08
2.84910591197e-08
1.57941620684e-08
1.40355788945e-08
1.93479859595e-08
4.68968329868e-08
6.42859535559e-08
3.70314924684e-08
8.2319142166e-09
2.53429238812e-09
3.2106547862e-09
9.12013021986e-09
6.75193734634e-09
4.81841794845e-10
1.94336481886e-33
3.72034001915e-07
3.12743487018e-07
2.47888470764e-07
1.74687700521e-07
9.85833772056e-08
4.83431034123e-08
3.17712737242e-08
1.60725585226e-08
1.38190294715e-08
1.75096294913e-08
3.4330209466e-08
4.73330955543e-08
2.66064495797e-08
6.01822985063e-09
1.73287383631e-09
1.19899241859e-09
2.12107764613e-09
1.54561400392e-09
4.10078150266e-12
1.16726514238e-33
3.29990544438e-07
2.80455002864e-07
2.3424899518e-07
1.68152749895e-07
9.26888712505e-08
4.63148970217e-08
3.33484032299e-08
1.79039797392e-08
1.08918296945e-08
1.39876679342e-08
2.32129265217e-08
3.61520749503e-08
3.59937521809e-08
1.48953533111e-08
4.94261996805e-09
2.45125735354e-09
1.45569427609e-09
7.40004985007e-10
1.36096908958e-11
9.49774340906e-34
2.9355085267e-07
2.60038921817e-07
2.27969049398e-07
1.59762427905e-07
8.54691415465e-08
4.51345474818e-08
3.48883305119e-08
1.80193721873e-08
9.6808939999e-09
1.13096678775e-08
1.6002535359e-08
2.45460566232e-08
3.70691070758e-08
4.35751743008e-08
2.90358370853e-08
1.54599669371e-08
8.68615129535e-09
3.71681258124e-09
3.79199490885e-10
6.60396327149e-34
2.70302877905e-07
2.54734478723e-07
2.24161706735e-07
1.39759580711e-07
7.35120727932e-08
4.19271580513e-08
2.45705542263e-08
1.31494814241e-08
9.7253220093e-09
1.00271641797e-08
1.23225543156e-08
1.7488491089e-08
2.66979720022e-08
3.87599747245e-08
5.01282567508e-08
4.9728292378e-08
3.50524896179e-08
1.80285226924e-08
1.78757972509e-09
5.40525729875e-34
2.72627777712e-07
2.70500293586e-07
2.15251386872e-07
1.06333882627e-07
5.86898108778e-08
3.56873851232e-08
2.17391337155e-08
1.25875922414e-08
1.00301762366e-08
9.67741709e-09
1.0837945336e-08
1.42663455473e-08
2.13071023445e-08
3.17661158654e-08
4.26932379404e-08
5.16657859332e-08
5.37629101977e-08
3.77887090122e-08
2.14522889154e-09
5.26133745399e-34
3.11510087511e-07
3.03746320037e-07
1.8391109271e-07
7.60010785428e-08
4.44903127536e-08
2.73368835008e-08
1.82458423025e-08
1.24630587159e-08
1.04646922837e-08
1.00095064044e-08
1.08984959247e-08
1.39801622418e-08
2.06952532224e-08
3.06960567466e-08
4.04566975676e-08
4.77913847813e-08
5.33400362588e-08
5.25146275861e-08
3.35120396764e-09
6.37572102671e-34
3.71524678053e-07
3.12780347463e-07
1.36981447505e-07
5.87984968982e-08
3.62866512751e-08
2.30765816757e-08
1.6693592821e-08
1.28744688394e-08
1.08383873119e-08
1.08079940551e-08
1.19643614315e-08
1.56429011427e-08
2.31175517073e-08
3.30229343607e-08
4.1602793704e-08
4.72221625894e-08
5.1047676451e-08
6.66586286639e-08
4.14602572148e-09
6.35880217308e-34
4.12394105036e-07
2.79295166466e-07
1.05097870585e-07
5.17296636511e-08
3.31615515955e-08
2.15374911758e-08
1.62923770944e-08
1.35214566359e-08
1.13857621026e-08
1.17726378706e-08
1.36365192565e-08
1.85477324928e-08
2.70607451271e-08
3.68061196608e-08
4.46830616023e-08
4.89258866844e-08
6.50666960506e-08
1.69360972914e-07
3.88911144684e-09
6.18296651126e-34
4.21378089935e-07
2.22814736862e-07
9.03996897122e-08
4.96891398951e-08
3.19863785791e-08
2.13903903446e-08
1.66411638597e-08
1.42769486826e-08
1.18334821362e-08
1.28410616802e-08
1.5829603007e-08
2.21968125933e-08
3.14282567318e-08
4.14427583503e-08
4.87166831866e-08
5.66977529831e-08
2.64519685886e-07
3.79931833822e-07
3.68301812049e-09
5.91409333419e-34
4.01436576108e-07
1.74888158354e-07
8.37804600773e-08
4.77426941445e-08
3.16457616118e-08
2.20198584996e-08
1.74354390597e-08
1.50446015012e-08
1.20356888085e-08
1.4018648235e-08
1.84734315767e-08
2.62450346308e-08
3.61217571814e-08
4.67176987683e-08
5.19294139858e-08
1.82017912098e-07
3.45699979817e-07
3.809252552e-07
3.77775051909e-09
5.90432427106e-34
3.56183941674e-07
1.55129720933e-07
8.17370980789e-08
4.69562989146e-08
3.19904543513e-08
2.30482720416e-08
1.84088037706e-08
1.56613795965e-08
1.19645460763e-08
1.54109579825e-08
2.15300449055e-08
3.04219774766e-08
4.12035201436e-08
5.13595045184e-08
7.70459027549e-08
3.45491776429e-07
3.14841069645e-07
3.02638356245e-07
3.71177192386e-09
6.43342053993e-34
2.90551344486e-07
1.41314270066e-07
7.79696023192e-08
4.65708571926e-08
3.26211284705e-08
2.41715139239e-08
1.93007096797e-08
1.58167171587e-08
1.17602517777e-08
1.72550222839e-08
2.51019345016e-08
3.46033160827e-08
4.6191488642e-08
5.3844027396e-08
2.09955258094e-07
3.28691066633e-07
2.88446252672e-07
3.10823909583e-07
3.48841160388e-09
7.81218897563e-34
2.54271456994e-07
1.32687162809e-07
7.4316187447e-08
4.63838137562e-08
3.33044592892e-08
2.51706241438e-08
1.99531467385e-08
1.49543347057e-08
1.18966040403e-08
1.99896421821e-08
2.93156859723e-08
3.88625012724e-08
4.98671284986e-08
7.102257233e-08
3.25769766448e-07
2.93596021207e-07
2.61350636911e-07
2.85775698126e-07
2.7656903022e-09
1.02651128414e-33
2.32504645185e-07
1.26599672463e-07
7.19080515677e-08
4.66133439709e-08
3.40405900126e-08
2.59450811965e-08
2.00830351249e-08
1.28289912565e-08
1.35098332585e-08
2.41268500354e-08
3.36420780263e-08
4.28450747595e-08
5.0538323219e-08
1.08896632469e-07
2.94275879885e-07
2.47958949524e-07
2.18095931659e-07
1.49631869028e-07
1.1513108462e-09
1.35176043866e-33
2.08212541889e-07
1.18047504706e-07
6.9714019959e-08
4.68853984659e-08
3.4701659239e-08
2.64716083558e-08
1.99032787345e-08
1.1529063465e-08
1.74447609069e-08
2.9299386575e-08
3.74222291911e-08
4.46117940534e-08
4.70771099469e-08
2.4204458462e-07
2.41461120257e-07
2.05418687382e-07
1.78887146799e-07
2.90176907886e-08
2.75919243719e-11
1.75505340308e-33
1.85285261421e-07
1.08202416388e-07
6.70850744111e-08
4.66592911506e-08
3.47947756944e-08
2.61865309889e-08
1.80228489232e-08
1.33188203751e-08
2.31055120681e-08
3.41200633117e-08
3.98976465601e-08
4.33463471406e-08
5.90619563927e-08
2.44125289938e-07
2.00098650871e-07
1.71964739651e-07
1.45101496582e-07
4.2153535417e-09
5.32193523948e-19
2.271652904e-33
1.68880940585e-07
1.00272671082e-07
6.48891784287e-08
4.62085061573e-08
3.43689501312e-08
2.49965848233e-08
1.59480433581e-08
1.80019093091e-08
2.96636566941e-08
3.75772310043e-08
4.0121068977e-08
3.95396442808e-08
8.1687359015e-08
2.03644883025e-07
1.68347912603e-07
1.45449195758e-07
9.57383959445e-08
1.05466929198e-08
5.50990230216e-17
3.13518110439e-33
1.57193172594e-07
9.5213935393e-08
6.36747321094e-08
4.57805194265e-08
3.34136425954e-08
2.30912300559e-08
1.84760766651e-08
2.58533830211e-08
3.56118283563e-08
3.89570667058e-08
3.80120105463e-08
3.43074998701e-08
1.21809516374e-07
1.68628903042e-07
1.43137455766e-07
1.23898628556e-07
6.49768422512e-08
9.32188027811e-09
6.83280665817e-16
4.23689748813e-33
1.49445560685e-07
9.27301955892e-08
6.32170894117e-08
4.50327651707e-08
3.22681155947e-08
2.50107194331e-08
2.68371880772e-08
3.44114284845e-08
3.9038706982e-08
3.78652183433e-08
3.41486937864e-08
3.35629167012e-08
1.12924074699e-07
1.4127355407e-07
1.22813776363e-07
1.05125705994e-07
5.4340101324e-08
1.11870100992e-08
1.37523222341e-13
4.88148698408e-33
1.47523468343e-07
9.38124651509e-08
6.39159912662e-08
4.55064663244e-08
3.60421285126e-08
3.3998888871e-08
3.69964204926e-08
3.99294762832e-08
3.89870795726e-08
3.45846779024e-08
2.92986227956e-08
2.53723747864e-08
7.62431848655e-08
1.18272548413e-07
1.04113098458e-07
8.74020660024e-08
4.69915650972e-08
1.18965992236e-08
4.86426803828e-11
5.03655385242e-33
1.61954437895e-07
1.02976210237e-07
7.02800909888e-08
5.45518543627e-08
4.73014489744e-08
4.46686769795e-08
4.33572143629e-08
4.0554341938e-08
3.56180980592e-08
2.95873118021e-08
2.38198603084e-08
1.80823319544e-08
2.03965990285e-08
7.3342995715e-08
8.31750943103e-08
6.79594426882e-08
3.44839855003e-08
5.79865578469e-09
1.42956248148e-09
1.38334670952e-07
)
;

boundaryField
{
    emptyPatch
    {
        type            empty;
    }
    minY
    {
        type            zeroGradient;
    }
    maxY
    {
        type            calculated;
        value           nonuniform List<scalar> 
40
(
2.62823336323e-06
4.25774807185e-06
4.8411769378e-06
4.50973798723e-06
3.82481287653e-06
3.05823106666e-06
2.34933337461e-06
1.85088891634e-06
1.51171021864e-06
1.2161931183e-06
9.16613245008e-07
7.30078257686e-07
6.75817650072e-07
7.19460853836e-07
8.0842872448e-07
8.75342982121e-07
8.68704942875e-07
7.69657246003e-07
5.44257887756e-07
2.91473908568e-07
1.61953322818e-07
1.02975517418e-07
7.02800134677e-08
5.45523871006e-08
4.73019519269e-08
4.46688788929e-08
4.33571407521e-08
4.05540955439e-08
3.56177351697e-08
2.95868481289e-08
2.38194005503e-08
1.80819739102e-08
2.03959784432e-08
7.33398362722e-08
8.31708562133e-08
6.79555974745e-08
3.44818044338e-08
5.79823775644e-09
1.42946761087e-09
1.38326004969e-07
)
;
    }
    maxX
    {
        type            compressible::alphatPhaseChangeJayatillekeWallFunction;
        Prt             0.85;
        Cmu             0.09;
        kappa           0.41;
        E               9.8;
        dmdt            uniform 0;
        value           nonuniform List<scalar> 
38
(
1.53687483375e-08
1.20545386581e-08
9.91661265669e-09
8.45934520115e-09
7.64363260369e-09
7.25160336578e-09
6.59696974906e-09
4.97532136309e-09
2.81093628674e-09
1.43280662588e-09
6.75595729775e-10
3.14886794613e-10
2.00208993419e-10
1.55124910424e-10
8.73789968857e-11
1.75669305262e-11
6.52570028942e-12
7.46176435984e-12
4.95530806702e-12
2.0281759433e-12
1.48557188212e-12
4.79848405205e-12
1.49298765125e-11
2.40879933797e-11
2.37509776429e-11
1.88056143237e-11
1.41818997231e-11
1.09077078323e-11
8.05317366917e-12
4.879252689e-12
2.1292602335e-12
6.60729356631e-13
1.98123894745e-13
9.68383977946e-14
4.86952554051e-13
1.89684655278e-12
3.65201463769e-12
6.47077079571e-12
)
;
    }
    water_to_heater
    {
        type            compressible::alphatWallBoilingWallFunction;
        phaseType       vapor;
        relax           constant 1;
        partitioningModel
        {
            type            Lavieville;
            alphaCrit       0.2;
        }
        otherPhase      liquid;
        dmdt            uniform 0;