/*--------------------------------*- C++ -*----------------------------------*\
| =========                 |                                                 |
| \\      /  F ield         | OpenFOAM: The Open Source CFD Toolbox           |
|  \\    /   O peration     | Version:  2312                                  |
|   \\  /    A nd           | Website:  www.openfoam.com                      |
|    \\/     M anipulation  |                                                 |
\*---------------------------------------------------------------------------*/
FoamFile
{
    version     2.0;
    format      ascii;
    arch        "LSB;label=32;scalar=64";
    class       volScalarField;
    location    "0.85/water";
    object      T.gas;
}
// * * * * * * * * * * * * * * * * * * * * * * * * * * * * * * * * * * * * * //

dimensions      [0 0 0 1 0 0 0];

internalField   nonuniform List<scalar> 
1496
(
422.989650067
360.101417519
327.366119837
310.433871914
303.446532099
301.362641363
300.837597786
300.69494312
300.618557829
300.543037334
300.466439221
300.393110633
300.325099886
300.261502424
300.201731259
300.147719446
300.102317069
300.068521378
300.047676631
300.036925252
425.084740807
358.800216888
328.379521223
311.973011906
304.597774971
301.910817122
301.057345968
300.783676754
300.685117294
300.60476314
300.523775327
300.442787505
300.36448513
300.291987739
300.224159726
300.163405746
300.112945236
300.076211043
300.054291711
300.043188336
413.037495993
354.463101044
328.188090779
313.10708482
305.665240844
302.517275521
301.333688182
300.909688786
300.750929992
300.652993244
300.569718639
300.486072748
300.401874711
300.321525457
300.246119599
300.178825719
300.123572933
300.084254688
300.061571165
300.050159317
405.739860511
349.280417632
326.55450445
313.514926967
306.493652558
303.143242302
301.685934869
301.091859899
300.854372202
300.70341702
300.60581771
300.520935402
300.434405727
300.34861614
300.266842895
300.193872443
300.134452406
300.093083697
300.069836641
300.057951767
403.06945987
345.448010605
324.334087395
313.06957813
306.814409034
303.550992353
301.97532012
301.258439158
300.935796162
300.753710465
300.639720939
300.550227829
300.462018637
300.372443866
300.286130536
300.20882112
300.146380219
300.103460093
300.079381358
300.066649373
412.906305546
349.133092679
324.189366214
312.829950871
306.930144734
303.810220886
302.201477001
301.409342055
301.022538428
300.805710774
300.671543699
300.575099279
300.48589855
300.394020398
300.304630722
300.223939102
300.159112431
300.11494248
300.090102379
300.07626038
454.759162873
359.550979633
325.779162494
312.905839741
306.992980098
303.966478695
302.374153339
301.543368875
301.110440438
300.863866962
300.703246307
300.596442395
300.505917152
300.413523073
300.322402944
300.23935004
300.172575098
300.127500782
300.101772354
300.086726022
498.87820007
369.761584796
328.066142926
313.327440081
307.065596653
304.045352787
302.47096152
301.63119639
301.17319166
300.902677949
300.729066352
300.613427044
300.521440307
300.430467533
300.338996852
300.25476931
300.186943289
300.140930296
300.114343447
300.097862037
513.226720176
376.064128158
330.059947108
313.830252837
307.143455185
304.057062494
302.500685451
301.669659627
301.206260235
300.925159118
300.744929829
300.624394305
300.531541436
300.443370119
300.352711586
300.269102764
300.20118425
300.154948305
300.127278624
300.109222802
519.025537199
378.654274081
330.599231753
313.766140855
306.982704266
303.937467204
302.442134901
301.652714705
301.205440897
300.928027802
300.748839023
300.627838566
300.535500446
300.450548646
300.362483275
300.28089803
300.214382029
300.168381779
300.139951077
300.119733482
521.346251102
377.975170542
328.825014929
312.43082652
306.279117384
303.577929056
302.26703733
301.571325471
301.16741546
300.909947818
300.740236956
300.622965151
300.532836831
300.451320296
300.367017714
300.288880188
300.225026931
300.180380763
300.151227974
300.12923877
521.66283339
373.895798279
324.242620628
309.688442625
304.972125217
302.974188585
301.97965826
301.430390244
301.093533308
300.870722883
300.718343073
300.608952135
300.523121325
300.44562293
300.365749476
300.292231701
300.232403543
300.189612271
300.160020609
300.137515147
518.939428043
364.159125499
317.945098544
306.582485751
303.523640699
302.292997832
301.643538085
301.254399291
300.996219579
300.815296902
300.684236489
300.586049352
300.50662692
300.433746391
300.35873722
300.290827045
300.235753374
300.195410205
300.166742851
300.144637536
513.025095711
351.036831388
313.223318198
304.593177504
302.476586102
301.73888316
301.341817314
301.081333305
300.892804957
300.751333413
300.642892421
300.557297318
300.485302724
300.416158321
300.346897035
300.28524248
300.235430308
300.198721154
300.172572248
300.151254982
505.39227545
344.169493016
310.732925857
303.530932653
301.86636671
301.368944161
301.11564965
300.939320807
300.802049344
300.691717813
300.601936589
300.527385255
300.460949606
300.394367042
300.331944893
300.276933156
300.233664576
300.202607816
300.178699207
300.158854551
502.295912339
341.869987268
309.740910248
303.107501449
301.584213839
301.166819587
300.976207154
300.843842479
300.73604031
300.644760572
300.566952175
300.498628147
300.433777679
300.373199328
300.317365984
300.270884407
300.236047646
300.208935839
300.187085486
300.169182981
489.563870938
344.587221723
310.653794771
303.329179057
301.568393786
301.093627294
300.908038099
300.790530781
300.694734637
300.611271745
300.537380939
300.471245938
300.411626911
300.357262674
300.310326005
300.273934889
300.24411716
300.219794992
300.199765947
300.183524335
449.45752089
345.343755491
312.460810165
303.98256938
301.744665284
301.115913179
300.892079347
300.76803775
300.672003733
300.588941621
300.516871668
300.45477329
300.401053533
300.354308688
300.317375607
300.286036204
300.259473099
300.236642548
300.217074876
300.200695362
412.895201093
341.12981738
313.164450523
304.560445028
302.008253377
301.219282836
300.928654805
300.779317891
300.673669357
300.587402239
300.515747889
300.457541748
300.409611621
300.369128191
300.33533581
300.307130856
300.281865207
300.258263965
300.236819952
300.218271497
393.278077122
337.798963184
314.335443119
305.901019279
302.823345451
301.619061379
301.105080136
300.857858533
300.716875177
300.619005011
300.545081763
300.486712554
300.43664175
300.395087818
300.36324915
300.335773639
300.308848156
300.281567516
300.255616607
300.232019807
394.895340579
346.594606666
323.329433939
311.65201377
305.806084633
302.943584451
301.615528463
301.041959851
300.797477881
300.671622044
300.590534533
300.52685848
300.473311038
300.43024902
300.396247056
300.365757597
300.334263642
300.301055045
300.26852226
300.238519114
444.834577669
378.15419815
338.984722003
318.554351798
308.78612002
304.201983687
302.114236552
301.243414381
300.904650223
300.751632999
300.657438336
300.582052753
300.517487271
300.465202477
300.423597204
300.386878059
300.350048917
300.310946878
300.272156498
300.236162839
554.821637253
402.180393267
344.908409581
320.539056442
309.669868436
304.661319268
302.360242378
301.379343837
300.996236497
300.827518537
300.720797842
300.633284078
300.557251314
300.494673201
300.444450632
300.39986405
300.355392204
300.310033479
300.265989609
300.229424443
600.740879207
410.691868171
344.723060427
319.599337249
309.188832638
304.548060516
302.398154605
301.447945402
301.060510976
300.883738826
300.768946857
300.671635674
300.585124021
300.513812415
300.455697188
300.403164186
300.35141386
300.301539271
300.256897177
300.220561189
609.23093471
410.992770714
342.438612839
317.826004306
308.280603868
304.211301066
302.332574969
301.468823359
301.095314575
300.915440614
300.794682862
300.690531609
300.597868569
300.520948314
300.45566897
300.397076437
300.341351227
300.290376471
300.246091968
300.211031694
609.761867142
408.090925246
339.183772813
315.666093368
307.148434391
303.732198777
302.184609678
301.444640857
301.100674056
300.922841411
300.798735993
300.692119196
300.597914429
300.518570241
300.447483057
300.386052875
300.328913013
300.277786362
300.235170697
300.201565705
608.381521099
403.366288346
335.49801879
313.395914362
305.942945687
303.178475833
301.973466777
301.377898995
301.079307062
300.911532385
300.788878953
300.682849297
300.589810347
300.509637131
300.435084545
300.371918281
300.315677081
300.265818639
300.22559173
300.193097769
605.681856278
398.262462499
331.880143381
311.301344006
304.85353825
302.655610366
301.749163821
301.292753973
301.043269445
300.889145413
300.771015462
300.668373454
300.577904193
300.497373407
300.422281129
300.359445491
300.303561703
300.255898412
300.217927128
300.185801501
602.234645153
393.611406163
328.661588343
309.52159473
303.960882552
302.219948244
301.542633721
301.199842536
300.997175372
300.859645184
300.749071341
300.651657714
300.564391167
300.484980507
300.409759019
300.348628159
300.293931143
300.248567908
300.211959875
300.179396522
599.050890479
389.850727854
326.115175089
308.147714989
303.292257162
301.892607372
301.375855087
301.113191479
300.948000676
300.82713307
300.7258765
300.634858053
300.551274101
300.474748641
300.402033307
300.340565353
300.287478242
300.244052083
300.207705889
300.173669872
596.589513736
387.33527101
324.389487515
307.197166414
302.829235324
301.664060352
301.253280744
301.042000988
300.902785407
300.796071057
300.704498925
300.620779328
300.544130109
300.467397345
300.396913231
300.336027421
300.284557272
300.242275097
300.205101019
300.167427225
595.310018867
386.189096306
323.525794874
306.647009826
302.538067803
301.514665873
301.169952077
300.989848112
300.866921134
300.770765005
300.687859344
300.613788896
300.541914086
300.46401274
300.395477302
300.335470204
300.285158208
300.242911673
300.203867513
300.1589882
595.183435433
386.306131101
323.517614999
306.480181379
302.39391411
301.428527639
301.120137583
300.9581114
300.845013481
300.756704167
300.681839184
300.613066307
300.542560445
300.465810792
300.39833083
300.339052385
300.289059517
300.245660414
300.204122182
300.155853887
595.912036018
386.906512317
324.441722301
306.737969519
302.390500013
301.39335727
301.096081573
300.94311905
300.835152961
300.751264791
300.682665316
300.616291669
300.546037005
300.472107602
300.405396588
300.346414674
300.295819602
300.250317107
300.205744942
300.153780623
594.657098432
388.11008219
326.31330836
307.782574808
302.701910223
301.444788596
301.09782642
300.94258044
300.836471624
300.754407804
300.687599396
300.622254998
300.551713097
300.481281671
300.415493529
300.356518837
300.304573626
300.256381171
300.208669896
300.153094865
582.726118037
389.277311748
328.496856052
309.159436576
303.242527988
301.59104509
301.131280048
300.954571343
300.845878847
300.763061906
300.695085134
300.628226436
300.559334991
300.491446817
300.426887326
300.367971578
300.31437127
300.26351608
300.213308116
300.154742841
560.728713737
388.650723167
329.981461649
310.253714863
303.756369538
301.76208496
301.176989916
300.969726154
300.856102096
300.772815607
300.703341107
300.635117839
300.56716736
300.500848853
300.437643504
300.378911571
300.323755527
300.270947091
300.219327332
300.160836222
300.015350425
300.015067969
300.014272684
300.01274818
300.010181588
300.007423318
300.005556624
300.004565762
300.003867501
300.003501544
300.003583486
300.003807557
300.004118327
300.004428818
300.004553942
300.004333345
300.030328945
300.024415866
300.020853958
300.019712453
300.019378721
300.019003275
300.018000462
300.015835085
300.012322243
300.008702292
300.006265238
300.004903381
300.004098566
300.003791456
300.003912942
300.00418424
300.004550063
300.004882759
300.004999861
300.004709711
300.035933861
300.029429979
300.025656665
300.02433618
300.0238351
300.023296808
300.021900486
300.018817241
300.014216443
300.009742326
300.006819015
300.005203006
300.004208236
300.0040997
300.00426441
300.00457667
300.004995064
300.005337829
300.005447444
300.005060799
300.04211568
300.035040497
300.030982129
300.029350735
300.028596746
300.027768941
300.025708248
300.021506689
300.015772308
300.010503469
300.007279223
300.005360899
300.004301728
300.004419236
300.004623128
300.004958712
300.005424291
300.005795887
300.005911544
300.005427184
300.048897269
300.041152866
300.036704551
300.03463123
300.033552781
300.032259478
300.029298052
300.023818497
300.017024262
300.011114041
300.007692339
300.005255642
300.004432048
300.004755822
300.004984817
300.005352772
300.005880085
300.006308048
300.00645759
300.005923951
300.056176205
300.047734874
300.042758652
300.040156262
300.038601466
300.03670051
300.032647556
300.025866137
300.018137074
300.011861702
300.0075785
300.005257547
300.004622586
300.00515853
300.005376541
300.00580388
300.006399634
300.006923216
300.007206663
300.006733436
300.064060255
300.054798961
300.049104967
300.045843285
300.043723111
300.041156311
300.035869784
300.02787304
300.019336992
300.012694493
300.007402299
300.005352199
300.004870334
300.005605956
300.005827584
300.006324454
300.007011569
300.007637485
300.008577477
300.008244498
300.072654416
300.062350583
300.055709667
300.051671335
300.048906733
300.045665623
300.039134126
300.030030798
300.020710229
300.012705058
300.007399042
300.005524484
300.005205278
300.006082677
300.006405898
300.006969348
300.007775652
300.008427215
300.011339835
300.011642577
300.081932091
300.070360589
300.062587862
300.057673085
300.05425308
300.050277391
300.042564915
300.032329548
300.022062348
300.012228665
300.007406528
300.005738528
300.00568602
300.006607758
300.007206613
300.007841357
300.008797767
300.009510333
300.016153903
300.020081706
300.091542186
300.078641286
300.06974466
300.063966099
300.059872268
300.055084041
300.046211721
300.034511543
300.023023187
300.012010796
300.007447429
300.00599936
300.006324808
300.00724585
300.008303021
300.00909795
300.010500545
300.012906705
300.029822929
300.035114842
300.101158171
300.086990714
300.077131307
300.070632887
300.065863777
300.06010462
300.049943441
300.036232083
300.023528905
300.012035553
300.00755204
300.006301946
300.006973342
300.008202092
300.009988687
300.011274917
300.014345535
300.026198121
300.069716108
300.065104934
300.110230719
300.095262241
300.084732892
300.077749562
300.072342731
300.06535086
300.053598531
300.037391453
300.02368511
300.012180765
300.007610855
300.006775929
300.007914541
300.010140325
300.014050161
300.016357349
300.023760293
300.054250604
300.149798299
300.137806107
300.118278537
300.103297708
300.092706387
300.085611833
300.079500206
300.07096562
300.057025499
300.03806195
300.023603797
300.012060087
300.007687178
300.007748999
300.01008919
300.015647507
300.026465585
300.031166325
300.04548438
300.102775093
300.265723874
300.256265391
300.125835456
300.111465324
300.101540238
300.094500308
300.087379369
300.077083436
300.060055031
300.038331479
300.02276831
300.011725655
300.008371299
300.010006301
300.015574271
300.031087391
300.06194501
300.078200977
300.09906324
300.165840087
300.418673537
300.420770852
300.133670815
300.120769999
300.111948448
300.104718044
300.096251969
300.083676727
300.062365049
300.038047776
300.020606894
300.011350888
300.010893244
300.016135103
300.032315399
300.068070449
300.144631299
300.203703319
300.22218749
300.268454642
300.605743084
300.635768414
300.143099998
300.13237379
300.124314545
300.116265993
300.106136684
300.090536562
300.063805079
300.036695554
300.018276439
300.012772594
300.019138398
300.034130191
300.069507715
300.145046745
300.313843208
300.452874366
300.439087881
300.480241933
300.920530875
300.965426212
300.155727351
300.14633431
300.138267777
300.12874145
300.116738318
300.097504507
300.06486765
300.033608162
300.016809721
300.017996903
300.033441723
300.06684955
300.133261333
300.276269742
300.539927462
300.694740102
300.750555948
300.856085869
301.465340967
301.561084836
300.171098573
300.161922588
300.152356151
300.141380054
300.12748302
300.104666655
300.06643027
300.031114121
300.015525321
300.021450417
300.04194117
300.08859346
300.183969186
300.370460041
300.633747674
300.830656568
301.009236997
301.296602743
301.975682583
302.131961249
300.187632605
300.176417701
300.165243846
300.153031209
300.137399889
300.112144604
300.070227737
300.031407938
300.014555061
300.01780709
300.031497042
300.065748029
300.14609798
300.325596397
300.587722837
300.825252262
301.070605637
301.435643439
302.178993247
302.546789695
300.201782989
300.187867841
300.1752268
300.161469916
300.144415025
300.118467267
300.075143757
300.031145354
300.014081762
300.013521409
300.018408737
300.03125693
300.066824881
300.168809691
300.373447566
300.657329648
300.982168199
301.403893094
302.124559805
302.819493192
300.210503068
300.194388102
300.179380357
300.163769271
300.144560096
300.116550439
300.071616475
300.028248922
300.013885182
300.011525454
300.012301962
300.015456304
300.023999467
300.049680751
300.129572579
300.314271048
300.674528693
301.193535526
301.960390566
302.973062208
300.21272543
300.193705746
300.175831526
300.156263518
300.130895668
300.09905695
300.055828717
300.023556012
300.014239567
300.01142958
300.010750898
300.011415092
300.013633802
300.019315831
300.036253473
300.094598463
300.287230335
300.786394082
301.721515437
303.002382045
300.208910622
300.186760095
300.165106056
300.13864845
300.105564208
300.07533496
300.043793942
300.023069951
300.01559793
300.012140013
300.010963297
300.011080574
300.012218472
300.015043077
300.022941326
300.049764729
300.146950086
300.494240449
301.481104583
302.93602303
300.20119564
300.17671146
300.150930784
300.117228129
300.083987268
300.059924139
300.038061794
300.023531219
300.0168255
300.01302962
300.011769465
300.011751294
300.012670882
300.014967167
300.021021308
300.040960274
300.115679662
300.426190481
301.496869112
302.979470217
300.191754602
300.165702647
300.13509596
300.097928296
300.068811837
300.049974281
300.034721568
300.024124598
300.01775722
300.014014751
300.012744112
300.012755706
300.013735359
300.016109602
300.021743287
300.039081874
300.113706159
300.704347753
301.696666528
303.215167215
300.182097637
300.154050304
300.120307278
300.0831214
300.05872111
300.044091504
300.032922
300.024765151
300.018819349
300.015153065
300.013924613
300.014128434
300.015637996
300.019018764
300.025072134
300.040078332
300.113184819
301.535006622
301.936197951
303.516859883
300.17261275
300.140542843
300.103378388
300.071699585
300.052281042
300.040854719
300.032236224
300.025615698
300.020191111
300.016582401
300.015447031
300.016108735
300.019099619
300.024661474
300.032280334
300.045190614
300.200620127
301.787476353
302.175142956
303.850279743
300.163427479
300.129657971
300.090499023
300.063953426
300.048623803
300.039471117
300.032456211
300.026811977
300.021910399
300.018391435
300.017506886
300.018999105
300.024357616
300.033133501
300.0430772
300.076294024
300.391501723
301.762381372
302.429922037
304.18640862
300.153636529
300.115485349
300.080610917
300.059066667
300.046936069
300.039340118
300.033404198
300.028385808
300.02392479
300.020592508
300.020213406
300.022989144
300.031344842
300.043787562
300.055527689
300.125527904
300.450758559
301.986479255
302.732273171
304.509946848
300.14436653
300.10369065
300.07382144
300.056573374
300.04669824
300.04012236
300.034920615
300.030306806
300.026151395
300.023132943
300.023475087
300.028045573
300.03982414
300.055639776
300.073835482
300.151360951
300.369966541
302.126127195
303.123572349
304.862685097
300.13683382
300.095814148
300.07032482
300.056145706
300.04765358
300.041636811
300.036749144
300.032530479
300.028523199
300.0258914
300.027131176
300.033863967
300.048917286
300.066119935
300.112438028
300.192384081
300.445675037
302.390487398
303.622279946
305.281183152
300.1273243
300.090584777
300.069242446
300.057294574
300.049682857
300.044000634
300.039273969
300.035061199
300.030907913
300.028732435
300.031008089
300.039767784
300.056799355
300.074011207
300.151301491
300.256704983
300.682483752
302.786946572
304.033207793
305.738308543
300.118940507
300.087585117
300.069819691
300.059405614
300.052240935
300.046628066
300.041915348
300.037395026
300.03314456
300.031513536
300.034782433
300.045046565
300.062079372
300.090519695
300.172304362
300.309680004
300.816771576
302.996542328
304.194886063
306.175194246
300.114499386
300.087100066
300.071694911
300.062037065
300.054936017
300.049176411
300.044214073
300.03926915
300.035060732
300.034005789
300.037990084
300.048698264
300.064471523
300.105347511
300.180874001
300.345414635
300.942102687
302.922188574
304.240852822
306.747655362
300.112909619
300.088292272
300.074204065
300.064799189
300.057580405
300.051692739
300.045973585
300.04053623
300.03653984
300.035991889
300.04030507
300.050521967
300.064770359
300.109275421
300.179844124
300.358969384
300.99915468
303.058926965
304.688297529
307.922721658
300.112920212
300.090161014
300.076804581
300.067609622
300.060263176
300.05330027
300.046846672
300.041210708
300.037534415
300.037361383
300.041640638
300.050993962
300.064795868
300.10395778
300.170444531
300.356093935
300.979627789
303.692160857
306.224042617
310.374146694
300.114232631
300.092739773
300.080186856
300.070639875
300.06180977
300.053872506
300.046919993
300.041370429
300.03810071
300.038209893
300.042305319
300.050750977
300.062809421
300.095379817
300.160010468
300.358877749
301.034576461
304.127519778
310.228430791
314.234580986
300.118895405
300.097424923
300.083830733
300.07233959
300.062171563
300.053434618
300.04630378
300.041081996
300.038339112
300.038989468
300.043621722
300.052392434
300.066517644
300.087371574
300.152585616
300.431630035
301.705384506
310.49183979
313.093855392
317.42395682
)
;

boundaryField
{
    emptyPatch
    {
        type            empty;
    }
    minY
    {
        type            fixedValue;
        value           nonuniform List<scalar> 0();
    }
    maxY
    {
        type            inletOutlet;
        inletValue      uniform 373;
        value           nonuniform List<scalar> 
40
(
560.728709407
388.650723392
329.981461672
310.253714872
303.756369539
301.762084957
301.176989913
300.96972615
300.856102093
300.772815603
300.703341101
300.635117828
300.567167347
300.500848845
300.437643503
300.378911574
300.323755525
300.27094708
300.219327325
300.16083622
300.118895405
300.097424922
300.083830732
300.072339588
300.06217156
300.053434612
300.046303772
300.041081989
300.038339108
300.038989471
300.043621731
300.052392453
300.066517681
300.087371634
300.152586081
300.431633119
301.7053975
310.491856638
313.093861235
317.423963459
)
;
    }
    maxX
    {
        type            fixedValue;
        value           uniform 300;
    }
    water_to_heater
    {
        type            copiedFixedValue;
        sourceFieldName T.liquid;
        value           nonuniform List<scalar> 
59
(
789.280350333
789.270901012
789.270962709
789.290631031
789.289442083
789.325008221
789.324447086
789.384328682
789.386398256
789.489579925
789.526877187
789.733751932
789.740245674
789.860067179
789.86288686
789.966110018
789.967181483
790.056288639
790.055606627
790.133032157
790.130034712
790.190584627
790.186881762
790.226694884
790.224956354
790.237412447
790.224961135
790.157830264
790.134925538
790.143105525
790.14579126
790.150308556
790.147430508
790.145162148
790.157639105
790.293608129
790.340701242
790.298032192
790.303018324
790.272684114
790.273299006
790.250874398
790.249783362
790.226053293
790.22380438
790.188974441
790.187457069
790.130227152
790.128580101
790.039608344
790.039079165
789.901071262
789.901524899
789.723239912
789.721571668
789.501905464
789.486066603
789.307579055
789.276648444
)
;
    }
    procBoundary0to1
    {
        type            processor;
        value           nonuniform List<scalar> 
41
(
399.587550967
349.316301331
321.53538104
307.251251347
301.947717529
300.907013776
300.695762769
300.609853894
300.539629933
300.470957003
300.405823863
300.345154868
300.287669631
300.232422401
300.180012516
300.132291024
300.09175405
300.061053937
300.041572993
300.031309303
300.011847567
300.011598452
300.010941111
300.00979369
300.007998957
300.006042859
300.004747688
300.004137629
300.003582137
300.003248228
300.00329032
300.003463561
300.003718224
300.003987661
300.004109784
300.003927021
300.025317908
300.020042456
300.016669304
300.015623043
300.015623043
)
;
    }
}


// ************************************************************************* //
