/*--------------------------------*- C++ -*----------------------------------*\
| =========                 |                                                 |
| \\      /  F ield         | OpenFOAM: The Open Source CFD Toolbox           |
|  \\    /   O peration     | Version:  2312                                  |
|   \\  /    A nd           | Website:  www.openfoam.com                      |
|    \\/     M anipulation  |                                                 |
\*---------------------------------------------------------------------------*/
FoamFile
{
    version     2.0;
    format      ascii;
    arch        "LSB;label=32;scalar=64";
    class       volScalarField;
    location    "0.42/water";
    object      alphat.gas;
}
// * * * * * * * * * * * * * * * * * * * * * * * * * * * * * * * * * * * * * //

dimensions      [1 -1 -1 0 0 0 0];

internalField   nonuniform List<scalar> 
1497
(
1.22604033827e-06
1.15343645288e-06
1.06154928901e-06
9.15528514613e-07
7.54306536294e-07
6.08371713082e-07
4.80368325981e-07
3.54915493985e-07
2.21636230324e-07
1.10847834324e-07
5.01867110805e-08
2.62803045354e-08
1.80579499514e-08
2.86587794744e-06
3.11750605359e-06
2.82352468428e-06
2.3469260341e-06
1.89844808537e-06
1.55263981764e-06
1.32473533777e-06
1.19889921293e-06
1.1279327725e-06
1.03897384559e-06
8.98734117785e-07
7.44946505817e-07
6.07182060851e-07
4.83380557482e-07
3.55134441389e-07
2.17945823184e-07
1.07876618093e-07
4.9377940661e-08
2.63095482628e-08
1.81073397505e-08
2.82778368821e-06
3.07824421429e-06
2.76434849635e-06
2.27791698422e-06
1.84077306995e-06
1.51218321714e-06
1.29861605978e-06
1.18241444239e-06
1.11514436859e-06
1.02696377204e-06
8.90202222228e-07
7.42594003813e-07
6.10393256505e-07
4.86903436964e-07
3.52397412409e-07
2.10132374347e-07
1.02145772162e-07
4.74725975863e-08
2.60285820075e-08
1.8102841108e-08
2.79158011061e-06
2.99816208093e-06
2.66675218005e-06
2.18757798959e-06
1.7761784879e-06
1.47563183226e-06
1.28574522219e-06
1.18477671575e-06
1.12106517713e-06
1.0303407616e-06
8.94612487036e-07
7.50876127097e-07
6.20497712875e-07
4.92994148788e-07
3.49143331514e-07
2.01252469221e-07
9.6389882774e-08
4.58629202307e-08
2.59569166374e-08
1.82277234725e-08
2.75305807747e-06
2.89711682465e-06
2.57110874532e-06
2.11473585721e-06
1.73314351668e-06
1.46387384857e-06
1.30104420133e-06
1.21467228843e-06
1.14886649887e-06
1.05002684544e-06
9.1262660165e-07
7.70182139915e-07
6.38067164158e-07
5.02746420994e-07
3.47636162964e-07
1.94921912669e-07
9.33374115167e-08
4.57076504096e-08
2.64984264437e-08
1.8626038759e-08
2.76850561071e-06
2.87612900445e-06
2.55604643021e-06
2.11598489653e-06
1.74817533753e-06
1.4996090459e-06
1.35546136253e-06
1.27206803586e-06
1.19333876035e-06
1.08208266009e-06
9.42144745853e-07
7.99412337513e-07
6.62973465505e-07
5.17603161678e-07
3.52039670433e-07
1.96157086642e-07
9.54393387415e-08
4.78031122716e-08
2.79151505656e-08
1.94018416312e-08
2.88235975682e-06
2.99660419413e-06
2.6681645998e-06
2.21141481257e-06
1.83386514515e-06
1.58529689003e-06
1.43734687115e-06
1.33920742195e-06
1.24119511542e-06
1.11874282796e-06
9.78006316791e-07
8.36051135127e-07
6.95303628594e-07
5.41741264531e-07
3.6961225509e-07
2.09977069377e-07
1.04547219731e-07
5.27433358189e-08
3.04426155767e-08
2.06761339007e-08
3.05433199967e-06
3.17470053623e-06
2.83589665425e-06
2.35898868044e-06
1.96178393373e-06
1.69093539542e-06
1.51987278806e-06
1.40053027682e-06
1.28611968114e-06
1.15574701502e-06
1.01484037149e-06
8.74565183335e-07
7.33793703986e-07
5.79470188483e-07
4.06729051338e-07
2.39677819082e-07
1.22028732081e-07
6.11754599422e-08
3.44154390708e-08
2.26426248238e-08
3.176159916e-06
3.25827107669e-06
2.9351884298e-06
2.48383504515e-06
2.08648663376e-06
1.78690956073e-06
1.58552515678e-06
1.4494481431e-06
1.32651478411e-06
1.19219225509e-06
1.05207041555e-06
9.15063418571e-07
7.78171916743e-07
6.28774231861e-07
4.58900221455e-07
2.8426420339e-07
1.48531728945e-07
7.37799942732e-08
4.03024299299e-08
2.55930847668e-08
2.95302050771e-06
3.10587092034e-06
2.90335691616e-06
2.54991615999e-06
2.17545271756e-06
1.85041555388e-06
1.61729611391e-06
1.46985571171e-06
1.34975230702e-06
1.21953795431e-06
1.08419815208e-06
9.53829538175e-07
8.25135617125e-07
6.84542655806e-07
5.19110908345e-07
3.36667258982e-07
1.82021921389e-07
9.07896304033e-08
4.86013127197e-08
2.99048949327e-08
2.55876406172e-06
2.99262333602e-06
2.93727665143e-06
2.62853388935e-06
2.23945118573e-06
1.8818129037e-06
1.62079790069e-06
1.45821551794e-06
1.34226064878e-06
1.22431482326e-06
1.10170887704e-06
9.84156755136e-07
8.68274585054e-07
7.38893246572e-07
5.78782635005e-07
3.90200320393e-07
2.19015995356e-07
1.11646437858e-07
5.97170078168e-08
3.60022684675e-08
2.42379785974e-06
3.04667936367e-06
3.07458982257e-06
2.72195439366e-06
2.26119812663e-06
1.86132956358e-06
1.59153796368e-06
1.42742091672e-06
1.31519113552e-06
1.21076503115e-06
1.10623577859e-06
1.00670771332e-06
9.06251194532e-07
7.87732826122e-07
6.31686012755e-07
4.38349123142e-07
2.5561484031e-07
1.35544791759e-07
7.39976982647e-08
4.43770828542e-08
2.43074277118e-06
3.18010222572e-06
3.20795466477e-06
2.77953489976e-06
2.24715416457e-06
1.80825809092e-06
1.53435595965e-06
1.37873391713e-06
1.27762082584e-06
1.19114851598e-06
1.10848144027e-06
1.0289625405e-06
9.42783505809e-07
8.31662394286e-07
6.76356378857e-07
4.79109907292e-07
2.90649260373e-07
1.62447572181e-07
9.1977353602e-08
5.57376753965e-08
2.4659577623e-06
3.2421478585e-06
3.21615246084e-06
2.76543997304e-06
2.21461880702e-06
1.7547923976e-06
1.47037035915e-06
1.32249630661e-06
1.23947544547e-06
1.1767967908e-06
1.11895750895e-06
1.05895705974e-06
9.83455471507e-07
8.74431422758e-07
7.14946870438e-07
5.14435640617e-07
3.25808360543e-07
1.93369763384e-07
1.1466983553e-07
7.12516322679e-08
2.56609399117e-06
3.14623012384e-06
3.09574350799e-06
2.68232886682e-06
2.16108797438e-06
1.70802455091e-06
1.42051152106e-06
1.28088312569e-06
1.21901663628e-06
1.1830850461e-06
1.14967564123e-06
1.1050213009e-06
1.03359926362e-06
9.18216143861e-07
7.49304794254e-07
5.48235428715e-07
3.64295816366e-07
2.30006662621e-07
1.43983520015e-07
9.26286180857e-08
2.6838027229e-06
3.09878912862e-06
3.00785116218e-06
2.615583752e-06
2.12290308312e-06
1.68795919139e-06
1.40602045932e-06
1.27667334072e-06
1.23618435833e-06
1.22495025211e-06
1.20993146094e-06
1.17106723734e-06
1.09150918577e-06
9.59961944836e-07
7.81774626877e-07
5.85855989211e-07
4.09194989263e-07
2.74905571122e-07
1.82928556023e-07
1.21779713852e-07
2.80011457252e-06
3.13239527401e-06
2.9832017291e-06
2.59110341795e-06
2.11690406922e-06
1.70426396672e-06
1.43786666621e-06
1.32270891352e-06
1.3009455551e-06
1.3058956768e-06
1.29571376945e-06
1.24658277072e-06
1.14688901067e-06
9.98748035144e-07
8.18558116198e-07
6.31171824983e-07
4.62160970274e-07
3.31866709665e-07
2.34451907541e-07
1.60308291714e-07
2.90705613623e-06
3.18591002412e-06
2.99896325092e-06
2.61638937149e-06
2.16016062649e-06
1.76823246953e-06
1.51810259278e-06
1.41516587663e-06
1.40266041155e-06
1.40831764866e-06
1.38639003656e-06
1.31666446582e-06
1.19777869222e-06
1.04086340959e-06
8.62078127627e-07
6.80723905994e-07
5.24407720724e-07
4.03497219325e-07
2.99145600324e-07
2.08642308995e-07
3.0339617114e-06
3.28045195051e-06
3.09822721978e-06
2.72852054464e-06
2.28074168825e-06
1.89138191182e-06
1.63745532956e-06
1.5306260784e-06
1.51299716186e-06
1.50768230155e-06
1.46736678302e-06
1.37780478218e-06
1.24461388193e-06
1.07920655557e-06
8.97753018683e-07
7.29980985703e-07
5.95913754345e-07
4.83899906266e-07
3.72221378477e-07
2.64011579774e-07
3.22485977462e-06
3.50642107439e-06
3.3496121884e-06
2.95793638062e-06
2.48431724191e-06
2.05960253777e-06
1.76869327601e-06
1.63820317813e-06
1.60725663935e-06
1.58735146619e-06
1.5255014941e-06
1.41311501034e-06
1.26063903753e-06
1.08655429497e-06
9.17418696185e-07
7.77749432738e-07
6.66848243384e-07
5.61018692582e-07
4.43380983967e-07
3.1785389923e-07
3.47209214634e-06
3.7796796519e-06
3.6278470059e-06
3.19616494732e-06
2.68786120593e-06
2.21959167529e-06
1.88045612917e-06
1.71693948046e-06
1.66533820072e-06
1.62259716569e-06
1.53106259336e-06
1.39289312871e-06
1.23083394807e-06
1.06906666769e-06
9.28804739063e-07
8.18944341146e-07
7.2516194093e-07
6.22401904404e-07
4.97426477079e-07
3.56437659972e-07
3.22971306466e-06
3.72600158036e-06
3.68437705516e-06
3.30200251725e-06
2.80668054203e-06
2.32235208766e-06
1.95134146221e-06
1.75754414187e-06
1.67541511545e-06
1.59984689297e-06
1.48167667429e-06
1.3341619494e-06
1.18246948548e-06
1.04571157218e-06
9.35918733501e-07
8.47685023642e-07
7.61688757687e-07
6.5647106603e-07
5.21803631199e-07
3.67386757395e-07
2.5215797041e-06
3.59207858669e-06
3.72737545299e-06
3.35633468315e-06
2.83502253839e-06
2.33919095128e-06
1.97088079234e-06
1.76411849243e-06
1.64691670662e-06
1.5365571163e-06
1.40608865356e-06
1.26535315614e-06
1.1337088108e-06
1.0225589416e-06
9.34177006462e-07
8.57729899324e-07
7.72747475055e-07
6.5957938409e-07
5.11636170511e-07
3.45636017859e-07
2.29262428546e-06
3.54398097764e-06
3.77872538728e-06
3.36804766485e-06
2.79974502044e-06
2.30141659254e-06
1.95487163618e-06
1.74882126791e-06
1.60432162288e-06
1.4646847845e-06
1.32544933686e-06
1.19624676464e-06
1.08394821602e-06
9.93577387547e-07
9.21161528255e-07
8.51064327503e-07
7.61131088293e-07
6.33287242285e-07
4.67784657235e-07
2.94760407787e-07
2.23060130998e-06
3.56101416351e-06
3.78745004698e-06
3.29200553329e-06
2.68937850045e-06
2.21646131728e-06
1.90711877928e-06
1.70950532462e-06
1.54957620035e-06
1.39328019623e-06
1.24799807974e-06
1.1268353185e-06
1.03204365344e-06
9.6093321404e-07
9.01487627257e-07
8.32509600323e-07
7.29531676931e-07
5.78528364664e-07
3.95722069151e-07
2.2839470345e-07
2.27376973782e-06
3.61714181713e-06
3.65117392738e-06
3.06741814044e-06
2.48669998207e-06
2.07625672953e-06
1.81570778524e-06
1.63304804472e-06
1.47032020356e-06
1.31175907658e-06
1.17122564631e-06
1.06204064957e-06
9.85472511378e-07
9.31472247085e-07
8.79720643232e-07
8.02550057814e-07
6.75155866908e-07
4.98089354744e-07
3.11101753658e-07
1.67176600052e-07
2.38146849314e-06
3.58452919451e-06
3.37248606766e-06
2.78090026084e-06
2.27000186152e-06
1.91084067173e-06
1.6837920675e-06
1.51793299022e-06
1.36516516535e-06
1.21990045187e-06
1.09688796883e-06
1.00790568505e-06
9.50976789003e-07
9.09327228475e-07
8.548675686e-07
7.55732702102e-07
5.98228732162e-07
4.06633226334e-07
2.3607795256e-07
1.2579353209e-07
2.51109931019e-06
3.70032658738e-06
3.46189768313e-06
2.82313708277e-06
2.20382396957e-06
1.76189327407e-06
1.51575317205e-06
1.36554400554e-06
1.23984759639e-06
1.12537372027e-06
1.03281671891e-06
9.70521872319e-07
9.31497206325e-07
8.92601447814e-07
8.20330760519e-07
6.90510425662e-07
5.11006450139e-07
3.24707279783e-07
1.85201160778e-07
1.06172369867e-07
2.59742058797e-06
3.97821855038e-06
3.81933518803e-06
3.133118313e-06
2.3837700954e-06
1.75738453419e-06
1.37666676762e-06
1.20064783476e-06
1.10917891816e-06
1.04069577482e-06
9.88235447324e-07
9.53545517868e-07
9.24419108146e-07
8.73042484966e-07
7.71556729436e-07
6.15659670664e-07
4.31199218054e-07
2.67200987089e-07
1.60458034986e-07
1.01949851999e-07
2.67472262261e-06
4.16551962284e-06
4.08552194431e-06
3.47686212165e-06
2.70145094891e-06
1.94092582367e-06
1.37406149747e-06
1.08996636569e-06
1.00066166131e-06
9.78699878473e-07
9.67985852155e-07
9.53521409674e-07
9.18785996707e-07
8.41835685258e-07
7.13353218546e-07
5.46181514147e-07
3.7386017576e-07
2.38225962384e-07
1.54376983457e-07
1.05803889696e-07
2.86815459956e-06
4.02642560192e-06
4.10540442254e-06
3.62993522428e-06
2.91486539577e-06
2.13062519026e-06
1.45508556357e-06
1.05866676504e-06
9.40491914855e-07
9.49171536555e-07
9.67684504681e-07
9.55976540035e-07
9.02019133846e-07
8.00977296768e-07
6.58806728336e-07
4.96387928395e-07
3.45104477414e-07
2.30332633643e-07
1.59001597839e-07
1.20587941923e-07
3.11327044043e-06
3.87657760705e-06
3.94616131709e-06
3.54420019078e-06
2.90067605457e-06
2.16351366881e-06
1.48602231337e-06
1.05481348289e-06
9.25791524762e-07
9.49641500121e-07
9.73583866173e-07
9.48932352491e-07
8.76195401908e-07
7.62491827731e-07
6.20847353901e-07
4.73153724092e-07
3.38425390673e-07
2.36112883931e-07
1.79760916691e-07
1.50459644438e-07
3.11329789756e-06
3.63986008457e-06
3.6279968848e-06
3.24799959624e-06
2.67245498123e-06
2.02074583706e-06
1.41988061932e-06
1.0429126604e-06
9.44499155417e-07
9.71075962315e-07
9.77998104874e-07
9.34791318185e-07
8.51237732909e-07
7.37108099466e-07
6.06123831274e-07
4.71929601619e-07
3.48461394915e-07
2.63482480162e-07
2.20459867214e-07
1.91254015282e-07
2.93020310851e-06
3.29759281258e-06
3.20749905123e-06
2.84847800715e-06
2.34986414684e-06
1.805743235e-06
1.32680701308e-06
1.0545239283e-06
9.95965153361e-07
1.00093435443e-06
9.76304372719e-07
9.18495624853e-07
8.35125299068e-07
7.30834114014e-07
6.125934315e-07
4.89700086695e-07
3.84239054133e-07
3.15439653015e-07
2.75200780602e-07
2.38443009646e-07
2.71286943988e-06
2.97408573059e-06
2.85207767374e-06
2.52009837406e-06
2.08905327487e-06
1.64993325085e-06
1.30042396023e-06
1.12239290785e-06
1.06442309506e-06
1.02033422784e-06
9.65605968906e-07
9.05033011198e-07
8.32889138266e-07
7.43397907014e-07
6.39111737225e-07
5.34571293017e-07
4.46637965558e-07
3.8318768766e-07
3.37953973927e-07
2.91144830524e-07
2.61892760352e-06
2.85275146463e-06
2.72223658385e-06
2.38686327565e-06
1.98749138317e-06
1.62870727042e-06
1.37428304134e-06
1.22485654146e-06
1.11573913035e-06
1.02031356068e-06
9.50748194383e-07
8.99727793068e-07
8.45059896497e-07
7.73608405927e-07
6.88883970879e-07
6.02212501596e-07
5.22817266478e-07
4.57873832789e-07
4.05144874896e-07
3.4952739131e-07
2.74652328045e-06
2.99363393641e-06
2.81941974976e-06
2.43071603707e-06
2.02981990788e-06
1.72241385436e-06
1.50704608871e-06
1.32620755175e-06
1.15229017606e-06
1.01561749513e-06
9.39249541294e-07
9.01950991276e-07
8.68671082356e-07
8.20308227242e-07
7.55314289761e-07
6.79921576523e-07
6.03167946737e-07
5.3406939697e-07
4.74113526488e-07
4.12524556975e-07
2.99271721982e-06
3.22726941411e-06
2.97019720213e-06
2.52315392732e-06
2.13731319925e-06
1.87389012543e-06
1.6668222318e-06
1.44032995102e-06
1.20280811697e-06
1.02289540122e-06
9.36334939875e-07
9.11599309348e-07
9.01274908538e-07
8.75761432304e-07
8.269253146e-07
7.59062613146e-07
6.82394363815e-07
6.08304891305e-07
5.41868896701e-07
4.76621599106e-07
1.54423526169e-08
1.55758899713e-08
1.88610425955e-08
2.59025063935e-08
3.46157943886e-08
4.2471629454e-08
5.00745723346e-08
5.96487131539e-08
6.95469098364e-08
7.42031411382e-08
7.22854347497e-08
6.76490300257e-08
6.29489588891e-08
5.7600741451e-08
5.16393060739e-08
4.94072727279e-08
4.88596640093e-08
1.09473209871e-07
1.70929473243e-07
2.39773325885e-07
1.52468254458e-08
1.48202492059e-08
1.6839833011e-08
2.18023410852e-08
2.87110790781e-08
3.6121127994e-08
4.52898707424e-08
5.59857224785e-08
6.3344895285e-08
6.61370570843e-08
6.56864786255e-08
6.28178714521e-08
5.89919857127e-08
5.41446408444e-08
4.77192894203e-08
4.65649383167e-08
5.60480525845e-08
1.21622471425e-07
1.83999429117e-07
2.71993865989e-07
1.50963504448e-08
1.42717852083e-08
1.54200672891e-08
1.88820728985e-08
2.42639639247e-08
3.15124696485e-08
4.17573329582e-08
5.20749900265e-08
5.76417697968e-08
6.02695188071e-08
6.03404412661e-08
5.79894646798e-08
5.46836045533e-08
5.01143371663e-08
4.34661836081e-08
4.35371865881e-08
6.48283410312e-08
1.34853668103e-07
1.9677704237e-07
3.17430082561e-07
1.50555212823e-08
1.39103415967e-08
1.44479224214e-08
1.69090890695e-08
2.1247259677e-08
2.80935898186e-08
3.86325930662e-08
4.83617640587e-08
5.28085110553e-08
5.51192213421e-08
5.51992467645e-08
5.31894775429e-08
5.03612631003e-08
4.55737825095e-08
3.86091591669e-08
4.05163500016e-08
7.65916313444e-08
1.48884756603e-07
2.06235679549e-07
3.32800520019e-07
1.51757070292e-08
1.37182533144e-08
1.37928931341e-08
1.5589306133e-08
1.92776380314e-08
2.55819140296e-08
3.54322220766e-08
4.43726437105e-08
4.8125555509e-08
5.00168627264e-08
5.00382292735e-08
4.84489316288e-08
4.60991621811e-08
4.0384524065e-08
3.30936999602e-08
3.53351901389e-08
9.10394815212e-08
1.64867910944e-07
2.1476176935e-07
3.59596047549e-07
1.54994629889e-08
1.36886089569e-08
1.33699003698e-08
1.46903851383e-08
1.79017209413e-08
2.35047609116e-08
3.19508776162e-08
3.98108146848e-08
4.32958781622e-08
4.47673183118e-08
4.48342893152e-08
4.37266293614e-08
4.17645216739e-08
3.4625284741e-08
2.79235529095e-08
3.17957521543e-08
1.09745610616e-07
1.86144990633e-07
2.2804974362e-07
4.26197837142e-07
1.60926753617e-08
1.38485324347e-08
1.31519406487e-08
1.40731269102e-08
1.68189561919e-08
2.15525696521e-08
2.82135149782e-08
3.46757438239e-08
3.81266098539e-08
3.93513661475e-08
3.96063770969e-08
3.89315934589e-08
3.69875846985e-08
2.86528778799e-08
2.36845751526e-08
3.43401664765e-08
1.74926991924e-07
2.12771597062e-07
2.49753145783e-07
5.60965928819e-07
1.70757434898e-08
1.42732864018e-08
1.31617891006e-08
1.36678577035e-08
1.58502579888e-08
1.95734185726e-08
2.44414371067e-08
2.91864979854e-08
3.25037635811e-08
3.38618908865e-08
3.4376068925e-08
3.39504090625e-08
3.13282596915e-08
2.28049396077e-08
2.05704596526e-08
5.66199750711e-08
2.23775317423e-07
2.42826645829e-07
2.79374160911e-07
6.82547210211e-07
1.86408011091e-08
1.50874927203e-08
1.34591615401e-08
1.34609330212e-08
1.49386330708e-08
1.7559438633e-08
2.08301490626e-08
2.3867848586e-08
2.66870818287e-08
2.84476884891e-08
2.91707337131e-08
2.86315044224e-08
2.51565513199e-08
1.75806668937e-08
1.91169343368e-08
7.89552790604e-08
2.85370447725e-07
3.23334279518e-07
3.09194846126e-07
7.66321392695e-07
2.10414265111e-08
1.64618825469e-08
1.41423866061e-08
1.34975980565e-08
1.41464447073e-08
1.56628611614e-08
1.75046846332e-08
1.92634278426e-08
2.13616264894e-08
2.32145888447e-08
2.40017740317e-08
2.31266125271e-08
1.92948329011e-08
1.34659842616e-08
2.44135609925e-08
1.20296175403e-07
3.36305683886e-07
3.65157187028e-07
3.30087988794e-07
8.82415046902e-07
2.45737195535e-08
1.86008423735e-08
1.53527773164e-08
1.38796585959e-08
1.36046194625e-08
1.40214219878e-08
1.47391559383e-08
1.56456334012e-08
1.7015594298e-08
1.85035853216e-08
1.9164827348e-08
1.79736135134e-08
1.4048181645e-08
1.51097270813e-08
3.74174229996e-08
1.59343753502e-07
3.7133780713e-07
3.80973223274e-07
3.36994235957e-07
6.96641976944e-07
2.96296026213e-08
2.17614015489e-08
1.72529388042e-08
1.47273290572e-08
1.34408152764e-08
1.28732214496e-08
1.27465316851e-08
1.2992737024e-08
1.37138746117e-08
1.46796671815e-08
1.50674137024e-08
1.33181430339e-08
1.05466001412e-08
2.10615395569e-08
4.43538015682e-08
2.21145600415e-07
4.3893615921e-07
4.14894558462e-07
3.41486462557e-07
5.21098047144e-07
3.68047612642e-08
2.63222136267e-08
2.00438520509e-08
1.61708430575e-08
1.37966579556e-08
1.23487465351e-08
1.15125092171e-08
1.11559197241e-08
1.13134505503e-08
1.18237810813e-08
1.16452500103e-08
9.70501534594e-09
1.52093115954e-08
2.06360342913e-08
6.50581115262e-08
2.9637075935e-07
5.31393719074e-07
4.70094697138e-07
3.67356000174e-07
3.65702897482e-07
4.69666463606e-08
3.28081086345e-08
2.40127283375e-08
1.83805757206e-08
1.47561938791e-08
1.24004699079e-08
1.086235557e-08
9.91533346202e-09
9.5884161e-09
9.71548620106e-09
8.94985573592e-09
1.2568791936e-08
1.70864845386e-08
1.92624639558e-08
1.0056111924e-07
3.74315470719e-07
6.28758981695e-07
4.98448196413e-07
4.19424932581e-07
3.65613508975e-07
6.11912020786e-08
4.18436645495e-08
2.94968583759e-08
2.15092009453e-08
1.63211832409e-08
1.28905140447e-08
1.05621848013e-08
9.02550605529e-09
8.29028784604e-09
8.03647064944e-09
1.01619663812e-08
1.53544328035e-08
1.38717034735e-08
2.07419590084e-08
1.47622938862e-07
4.42418767426e-07
7.06593718944e-07
4.21722546225e-07
4.96055557307e-07
5.18433003389e-07
8.0604147541e-08
5.40319130067e-08
3.67687992622e-08
2.56071256574e-08
1.8393284364e-08
1.36244429708e-08
1.03738809863e-08
8.24735699624e-09
7.21284609065e-09
6.68526915319e-09
1.1206615967e-08
1.25087234751e-08
1.0613548152e-08
2.82820709085e-08
1.97473672831e-07
5.21076891225e-07
5.34930149544e-07
4.5708984923e-07
5.77784538062e-07
1.00812950089e-06
1.06109037327e-07
6.97313650273e-08
4.58573320654e-08
3.05270576044e-08
2.07385724686e-08
1.43425521963e-08
1.00616728155e-08
7.37413990009e-09
6.18222905619e-09
7.53795046187e-09
1.16215022081e-08
9.69557028083e-09
9.15338246382e-09
4.48865987463e-08
2.59536821616e-07
6.02284368468e-07
3.87298719379e-07
4.80477746798e-07
6.09063495053e-07
1.61730631057e-06
1.37754459924e-07
8.86398501748e-08
5.63005792451e-08
3.57937263351e-08
2.29399943295e-08
1.47240968281e-08
9.39742298274e-09
6.28572388613e-09
5.14258202509e-09
6.55195616028e-09
9.82228325085e-09
7.90113929428e-09
1.20971335373e-08
7.7003716301e-08
3.34694232182e-07
3.48410235231e-07
4.17215134506e-07
5.23492956221e-07
6.04012827679e-07
1.63920670584e-06
1.73388962324e-07
1.09011668278e-07
6.6757815031e-08
4.04543083312e-08
2.43947782207e-08
1.44459562235e-08
8.24124850978e-09
4.97017770628e-09
4.11443941231e-09
5.63650848194e-09
7.34933049367e-09
8.19342361255e-09
2.3511505494e-08
1.25787015595e-07
2.4657289381e-07
3.21254667285e-07
4.70735856634e-07
5.82118299257e-07
5.90368091778e-07
1.40880210184e-06
2.06885787927e-07
1.26720858311e-07
7.4663880206e-08
4.3072731129e-08
2.44231703324e-08
1.32937623029e-08
6.63156232528e-09
3.55104875483e-09
3.27706332e-09
4.91647716436e-09
5.78227164976e-09
1.14531031178e-08
4.48311133909e-08
9.36239956568e-08
2.0194483755e-07
3.5831929984e-07
5.61559391797e-07
6.47161053904e-07
5.80702662628e-07
1.15374307875e-06
2.28256278087e-07
1.35556301794e-07
7.669911907e-08
4.21757929442e-08
2.25366724389e-08
1.12359382105e-08
4.77119675668e-09
2.24714433899e-09
2.46680992505e-09
4.41984491707e-09
5.5383106227e-09
1.40430471961e-08
2.90609487479e-08
8.71796435431e-08
2.16700597878e-07
4.30331664513e-07
6.61282980968e-07
7.20928329473e-07
5.89742876008e-07
7.39251784484e-07
2.28176414445e-07
1.30283968242e-07
7.06981571606e-08
3.71968534218e-08
1.87196720786e-08
8.43519557448e-09
2.95415877316e-09
1.26771904096e-09
1.74158839824e-09
3.9461297872e-09
4.68157111699e-09
8.04936389491e-09
3.13059222084e-08
8.46144323356e-08
2.45806484441e-07
5.06594441828e-07
7.62627795822e-07
8.08738277069e-07
6.34602452722e-07
6.05762536149e-07
2.03869505893e-07
1.10871015066e-07
5.78380826319e-08
2.92448825429e-08
1.36309582121e-08
5.30681055296e-09
1.49313319972e-09
6.72688064962e-10
1.21625990047e-09
3.01957119078e-09
2.15301706892e-09
7.1646398763e-09
2.6998198564e-08
8.52179659311e-08
2.74402166908e-07
5.80531906425e-07
8.61753913788e-07
9.22045469595e-07
7.38256902607e-07
6.24655329773e-07
1.62239614737e-07
8.41464889962e-08
4.27158386667e-08
2.07256356692e-08
8.47108703482e-09
2.54514800259e-09
6.38651676979e-10
3.1960057442e-10
6.68196156622e-10
1.32731167815e-09
1.3691060628e-09
4.88286427545e-09
2.19303155565e-08
8.57612805639e-08
2.99844189029e-07
6.42078750565e-07
9.45733903941e-07
1.06401322118e-06
9.7734353478e-07
8.16785782369e-07
1.18177408435e-07
6.02012007387e-08
3.04865202508e-08
1.39606782114e-08
4.53684143688e-09
9.70316223677e-10
3.25265319853e-10
1.80022806662e-10
4.18538063868e-10
9.16882484044e-10
7.86404899938e-10
2.27573505652e-09
1.43805523377e-08
8.50427140058e-08
3.17089104266e-07
6.65119788301e-07
9.83181094017e-07
1.20157246335e-06
1.60913098706e-06
1.3975551036e-06
8.57370197564e-08
4.54820258281e-08
2.34727775619e-08
9.81018576417e-09
2.29495868101e-09
4.56017439244e-10
2.38786483785e-10
1.53041065965e-10
3.13745093309e-10
7.10233392796e-10
5.0601576548e-10
9.68536191716e-10
7.84468685038e-09
8.61652496062e-08
3.24691611201e-07
6.48172203532e-07
9.58374214902e-07
1.3364773079e-06
2.12256478882e-06
3.5742849827e-06
6.93020949697e-08
3.97610696331e-08
2.05106798847e-08
7.31621126704e-09
1.2011532893e-09
2.66039560356e-10
1.76249376525e-10
1.6740782275e-10
2.55292883765e-10
4.82138228245e-10
3.41459385041e-10
6.49911638222e-10
5.10404637006e-09
9.0076036785e-08
3.31130218851e-07
6.19290286431e-07
8.88887233109e-07
1.61339082115e-06
2.89965023017e-06
1.35521041494e-05
6.5148106227e-08
3.92272925051e-08
1.92067137762e-08
5.5062910827e-09
5.78073974278e-10
2.12491714893e-10
1.84659551312e-10
1.95975964193e-10
2.67185990141e-10
3.89325690568e-10
2.59724383522e-10
5.78656158765e-10
4.22867866746e-09
9.44935486676e-08
3.36640497193e-07
5.90441522436e-07
8.07722188574e-07
1.57631540186e-06
6.97044219154e-06
1.97732433846e-05
6.71742762498e-08
4.11814761642e-08
1.8995221832e-08
4.29988122191e-09
3.89785783326e-10
2.39006782162e-10
2.29307495539e-10
2.64603424432e-10
3.31047751014e-10
4.01918984369e-10
2.74423605193e-10
5.62551485585e-10
3.89468506374e-09
9.58486020325e-08
3.3518226031e-07
5.63541577587e-07
9.81390622656e-07
2.51501459931e-06
9.88442093126e-06
1.77851719453e-05
7.52431068641e-08
4.74598465906e-08
2.0250206833e-08
3.63648582637e-09
4.04854092939e-10
3.0549089952e-10
3.20802653692e-10
3.77557267659e-10
4.61529083102e-10
4.87984742204e-10
3.30344064039e-10
5.53000216196e-10
3.59493597594e-09
8.85916302351e-08
3.26470695677e-07
5.35751936828e-07
1.1791871153e-06
5.58455895024e-06
8.4219805172e-06
1.27616689895e-05
9.30647950766e-08
5.77064174117e-08
2.27017213063e-08
3.50802874265e-09
5.29890056222e-10
4.31250182336e-10
4.65836769847e-10
5.62791792026e-10
6.68317870581e-10
6.58086880747e-10
4.27194167755e-10
5.24072779902e-10
3.10061497471e-09
7.71294145932e-08
3.07894084892e-07
7.20984939113e-07
3.67074666299e-06
5.97705387817e-06
7.20385437502e-06
9.33388151596e-06
1.18445548781e-07
7.0494121102e-08
2.647992981e-08
3.9632557258e-09
8.24895811778e-10
6.43444081062e-10
6.9333417377e-10
8.33425831727e-10
9.81536940899e-10
9.28162148986e-10
5.94424885635e-10
4.73803031851e-10
2.45146572317e-09
6.23014170873e-08
3.84475361833e-07
2.2803531733e-06
4.80150934848e-06
5.64507661603e-06
6.44863898835e-06
6.90921897752e-06
1.47875377566e-07
8.54447486318e-08
3.25225378112e-08
6.47475184395e-09
1.57008654126e-09
9.60307348901e-10
1.00529398707e-09
1.21248401952e-09
1.40802508105e-09
1.34695627467e-09
8.88258090311e-10
4.63032016035e-10
1.98018911302e-09
6.07608671908e-08
1.06357961944e-06
3.56370936053e-06
4.58341774973e-06
5.29573505189e-06
6.15878198403e-06
5.11907354919e-06
1.81245543e-07
1.0548683364e-07
4.35716852301e-08
1.21196283067e-08
3.20780221006e-09
1.4766881e-09
1.45618147919e-09
1.72783419045e-09
1.97511763313e-09
2.00264743237e-09
1.56170067284e-09
4.81394420463e-10
1.9994095348e-09
7.522871932e-08
1.63426498122e-06
3.25651412433e-06
4.33029289548e-06
5.03485261711e-06
5.903710321e-06
3.93292036111e-06
2.21701027993e-07
1.34057491798e-07
6.17754458626e-08
2.1915287678e-08
6.84313133598e-09
2.55994987826e-09
2.14665580123e-09
2.44398046549e-09
2.75711132263e-09
3.04782706968e-09
2.80436053884e-09
6.22755340552e-10
2.37335530803e-09
1.02697514699e-07
1.32315645666e-06
2.94963847177e-06
4.1374124848e-06
4.90406545045e-06
5.72805367766e-06
3.00701035643e-06
2.71789589047e-07
1.74464440814e-07
9.00323395902e-08
3.84646657928e-08
1.44802459424e-08
5.21609382633e-09
3.19762872083e-09
3.36228240112e-09
3.69867400062e-09
4.48590414903e-09
4.48646656667e-09
9.89941882248e-10
3.08569318096e-09
1.0105888497e-07
1.07845805589e-06
2.70265561109e-06
4.0014178041e-06
4.89743334581e-06
5.73801527819e-06
2.19608795456e-06
3.31651526076e-07
2.28779604877e-07
1.3166626474e-07
6.48544392708e-08
2.86609730853e-08
1.16187856476e-08
5.43283595297e-09
4.52851219491e-09
4.6985108124e-09
6.17405907162e-09
6.25666459493e-09
1.5230872964e-09
4.29363430941e-09
1.03751417757e-07
9.28432478834e-07
2.51357672031e-06
3.89071970761e-06
4.95635812991e-06
5.90078346191e-06
1.59737837856e-06
3.97329851628e-07
2.95280544317e-07
1.8869856368e-07
1.04390058158e-07
)
;

boundaryField
{
    emptyPatch
    {
        type            empty;
    }
    minY
    {
        type            zeroGradient;
    }
    maxY
    {
        type            calculated;
        value           nonuniform List<scalar> 0();
    }
    maxX
    {
        type            compressible::alphatPhaseChangeJayatillekeWallFunction;
        Prt             0.85;
        Cmu             0.09;
        kappa           0.41;
        E               9.8;
        dmdt            uniform 0;
        value           nonuniform List<scalar> 
37
(
1.72735793332e-06
9.18746844545e-07
4.03355454135e-07
1.49550689064e-07
6.53433133773e-08
1.01353051895e-07
1.9323032636e-07
3.01953863265e-07
4.14619142416e-07
5.41667862081e-07
7.13931714284e-07
8.88491236905e-07
9.75064423832e-07
1.00961701791e-06
1.0192668935e-06
9.82176362915e-07
9.73981459046e-07
1.02721203497e-06
1.08946593663e-06
1.12545784503e-06
1.12529697612e-06
1.04217511497e-06
8.60525596074e-07
5.93657879201e-07
3.31899027879e-07
1.64650221064e-07
7.92547508381e-08
4.55136981108e-08
4.31436081142e-08
5.20380650353e-08
6.66583339147e-08
8.24466049713e-08
9.59196044828e-08
1.11871279624e-07
1.3342985092e-07
1.62887661334e-07
2.05026841694e-07
)
;
    }
    water_to_heater
    {
        type            compressible::alphatWallBoilingWallFunction;
        phaseType       vapor;
        relax           constant 1;
        partitioningModel
        {
            type            Lavieville;
            alphaCrit       0.2;
        }
        otherPhase      liquid;
        dmdt            uniform 0;
        dDep            uniform 1e-05;
        qQuenching      uniform 0;
        alphatConv      uniform 0;
        value           nonuniform List<scalar> 
60
(
4.25396118582e-07
4.25396118582e-07
4.41358678262e-07
4.41358678262e-07
4.24381092561e-07
4.24381092561e-07
4.00546731071e-07
2.4028524749e-07
1.13586797105e-07
1.13586797105e-07
9.81761883629e-08
9.81761883629e-08
1.80177123614e-07
1.80177123614e-07
7.2408019655e-07
1.93191704434e-06
2.08911348445e-06
2.08911348445e-06
2.09101959849e-06
2.09101959849e-06
1.92088513099e-06
1.92088513099e-06
1.0438668989e-06
3.85015863106e-07
1.57800060735e-07
1.57800060735e-07
9.0164819302e-08
9.0164819302e-08
6.05310055286e-08
6.05310055286e-08
5.59062733044e-08
1.20932458887e-07