/*--------------------------------*- C++ -*----------------------------------*\
| =========                 |                                                 |
| \\      /  F ield         | OpenFOAM: The Open Source CFD Toolbox           |
|  \\    /   O peration     | Version:  2312                                  |
|   \\  /    A nd           | Website:  www.openfoam.com                      |
|    \\/     M anipulation  |                                                 |
\*---------------------------------------------------------------------------*/
FoamFile
{
    version     2.0;
    format      ascii;
    arch        "LSB;label=32;scalar=64";
    class       volScalarField;
    location    "0.355/water";
    object      Tf.gasAndLiquid;
}
// * * * * * * * * * * * * * * * * * * * * * * * * * * * * * * * * * * * * * //

dimensions      [0 0 0 1 0 0 0];

internalField   nonuniform List<scalar> 
1496
(
345.348948252
312.581544373
304.498279182
302.159137209
301.325777168
300.931722835
300.721327881
300.592957457
300.501408482
300.425247128
300.35732238
300.295707211
300.239432646
300.187075201
300.139661777
300.097911044
300.062411635
300.034708925
300.017003382
300.008121847
332.962489797
309.720365118
303.458367715
301.724942009
301.139873921
300.857909489
300.687532173
300.571109276
300.480979479
300.406108145
300.340473028
300.281589731
300.227101234
300.176383439
300.131184285
300.092111387
300.05943164
300.03416395
300.017704207
300.009038803
328.960871256
309.102707792
303.036685119
301.441928381
300.998927886
300.791501787
300.652150338
300.545409968
300.458706929
300.385979292
300.323079154
300.267067556
300.214829822
300.166782878
300.124652996
300.088750466
300.058984274
300.035808523
300.020017976
300.011186072
326.005869619
310.448369286
303.447127585
301.382447805
300.921156412
300.741413557
300.619118951
300.520370566
300.437234173
300.367059271
300.307101698
300.253886691
300.204366481
300.159727891
300.121147389
300.088595692
300.061668219
300.040179956
300.024501298
300.014790213
323.18732344
310.873959848
304.134976357
301.543011054
300.903446906
300.710368659
300.593618122
300.49925606
300.41892057
300.351299107
300.294112527
300.243440794
300.197218218
300.156494921
300.121706798
300.092490238
300.067881173
300.047353899
300.031299897
300.019789107
320.759627181
310.584289918
304.676327817
301.862428001
300.956951457
300.701488899
300.577205883
300.483547743
300.405173216
300.339825981
300.284907703
300.236943815
300.194660042
300.1582241
300.127216379
300.100602173
300.077294007
300.057005272
300.040011105
300.026277121
318.599913232
309.70861989
304.710045484
302.099178852
301.046009428
300.709085756
300.567843262
300.472710211
300.395956091
300.332709556
300.280312406
300.235880157
300.198122196
300.165858308
300.137666537
300.112302643
300.089249249
300.068511845
300.050197772
300.034057909
316.600043093
308.538858811
304.312196847
302.083827673
301.08390524
300.715396261
300.562043884
300.466121217
300.391693118
300.331566082
300.282679303
300.242312221
300.208416597
300.178789503
300.151814146
300.126627059
300.103062735
300.081245911
300.061133944
300.042488111
314.959785742
307.373286271
303.737318327
301.892488356
301.044299592
300.708886836
300.561363731
300.468332168
300.396503084
300.339333273
300.293517485
300.256096301
300.224162314
300.195421485
300.16850072
300.142777144
300.118079904
300.094487426
300.072009052
300.050641802
314.258636375
306.779344546
303.428985982
301.813817641
301.061019567
300.737508038
300.583902504
300.487298027
300.414624192
300.357785752
300.312996862
300.276160485
300.244007579
300.214578241
300.186723453
300.159777152
300.133390975
300.107446235
300.082088518
300.057587176
315.533670434
307.901612432
304.299694675
302.403652399
301.400113966
300.904808519
300.666436259
300.536664155
300.451437586
300.389192645
300.341213449
300.301530164
300.266682635
300.234860617
300.204973506
300.176133633
300.147598335
300.118947117
300.090379726
300.062497414
323.251591096
312.347487442
306.635415017
303.607707315
302.016810309
301.209655313
300.820430817
300.626085518
300.512880398
300.435513366
300.377612973
300.330749625
300.290395794
300.254351264
300.221234642
300.189771551
300.158735256
300.127300576
300.095595058
300.064951252
342.218380868
316.679604833
307.946147137
304.085411284
302.256438321
301.370637959
300.941851338
300.721166788
300.5872422
300.491658878
300.418589846
300.360607454
300.312215702
300.270465168
300.2332749
300.198748319
300.165177699
300.131313612
300.097054657
300.064129431
351.772029254
318.345586282
307.85827988
303.761838667
302.05419781
301.3092305
300.958520282
300.766968327
300.637396241
300.535126829
300.451651602
300.383437927
300.327203362
300.28005902
300.239185236
300.202008413
300.166359425
300.130441171
300.094220568
300.059769603
353.912230192
317.813836473
306.835797862
303.05225192
301.696232095
301.165688729
300.91703999
300.767903741
300.652865334
300.553435645
300.467086459
300.393548165
300.332677822
300.282172424
300.238848628
300.199746319
300.162473135
300.125076803
300.087848534
300.052469521
352.987912209
316.173661372
305.743289282
302.464933947
301.418278691
301.042919408
300.867125578
300.750390262
300.649082145
300.555289467
300.468841488
300.393413458
300.330658158
300.278613513
300.233944103
300.193629243
300.155247286
300.117064017
300.079530697
300.043912428
351.344551285
315.040220641
305.058589395
302.118231541
301.255782269
300.964607163
300.826475663
300.72626408
300.635576989
300.547068318
300.462491523
300.387565088
300.324801522
300.272398407
300.227075969
300.185939794
300.146654791
300.108717617
300.071079214
300.039076714
349.722711613
314.041287553
304.539309519
301.8924353
301.155805314
300.914004429
300.792313856
300.702167276
300.618753326
300.534661248
300.453042546
300.380145469
300.318451947
300.266170131
300.220267046
300.178074089
300.138658411
300.101822877
300.066324628
300.039533058
346.049807189
312.225826778
303.873692158
301.687768628
301.083469054
300.878538106
300.767577555
300.681884735
300.602125931
300.521557521
300.443513665
300.373583092
300.313399721
300.261060984
300.214033716
300.17128758
300.133241143
300.098679077
300.067629521
300.04433831
338.379772278
309.573195521
303.275967738
301.535516749
301.034735403
300.858877838
300.75011061
300.665276735
300.587075217
300.509540008
300.435490058
300.36884812
300.309772963
300.25674002
300.209268475
300.167882614
300.132231079
300.101378574
300.074437437
300.052978128
332.748147424
309.147353225
303.240592234
301.49248666
301.023272418
300.847604401
300.738020481
300.652050062
300.574259842
300.499569254
300.42961971
300.365569195
300.306938521
300.254231505
300.208226457
300.169536767
300.137410173
300.110498204
300.086252148
300.065135984
327.366528377
310.435991792
304.242407644
301.810153191
301.084238499
300.853505875
300.732706466
300.642723028
300.564412611
300.492342041
300.425773253
300.363441956
300.306240662
300.255543651
300.212423369
300.176985108
300.149637129
300.125489657
300.102312235
300.080531085
322.30567725
310.658071885
304.9719375
302.231540991
301.202505816
300.874050907
300.73228701
300.636809521
300.557851003
300.488114366
300.42385653
300.363825341
300.309401169
300.262017435
300.222444989
300.191696581
300.168006273
300.145129436
300.121780531
300.098413394
318.501830288
309.575010587
304.888861835
302.40047906
301.292391809
300.893246788
300.731981335
300.632909549
300.554543641
300.486824472
300.424918464
300.368245385
300.317726162
300.274279602
300.239541787
300.213549726
300.19085868
300.167723267
300.143173756
300.117643657
315.991892268
308.157865543
304.31613594
302.270941639
301.288400746
300.894202162
300.729151585
300.630838993
300.554639212
300.489216515
300.430659952
300.378246605
300.332163348
300.29398975
300.264417605
300.239686756
300.215929238
300.190922662
300.164373851
300.136371242
314.571214905
307.092339066
303.748198908
302.057260418
301.235848371
300.886200848
300.730193068
300.634849792
300.560957281
300.49818171
300.443289443
300.39532709
300.354582624
300.32130276
300.293688025
300.267855724
300.241293571
300.213305378
300.183841394
300.152837416
314.04375355
306.614295467
303.499223257
302.005929772
301.272505048
300.93201889
300.762826205
300.658252362
300.580489217
300.517282723
300.46444147
300.420124918
300.383426215
300.352528162
300.323804534
300.295175477
300.265169302
300.233541549
300.200377469
300.165940807
314.852946494
307.36922385
304.184554149
302.623132193
301.737046566
301.214185165
300.91179588
300.735538654
300.625343867
300.549979782
300.494349894
300.450970913
300.415521245
300.382997331
300.350947509
300.318254761
300.284079931
300.248399672
300.211702065
300.174289011
320.726006315
311.647980114
306.955731553
304.341738314
302.774531887
301.800633473
301.215643237
300.884535317
300.702349675
300.598590244
300.532928489
300.485515391
300.445510959
300.407931651
300.37080887
300.3330372
300.294404375
300.255059576
300.215176541
300.17492286
338.996617624
317.56447952
309.366921191
305.45938467
303.355085608
302.138481764
301.419835089
301.009758311
300.782709956
300.653969006
300.573408845
300.514830719
300.466122169
300.42166677
300.378658481
300.335958801
300.293376526
300.250963711
300.208707694
300.166558296
355.529390504
320.541278479
309.708463275
305.298414898
303.197951203
302.069182897
301.421658627
301.043935408
300.821866006
300.685092067
300.593696805
300.525568246
300.469321368
300.419011476
300.371301409
300.325105311
300.280187194
300.236343064
300.193234641
300.150559751
360.542647621
320.324342231
308.584225276
304.401972429
302.655397017
301.788656905
301.298180497
300.999088615
300.808423784
300.679332977
300.586463797
300.514605903
300.454813997
300.401612738
300.351610663
300.304082892
300.25871139
300.215059441
300.172571649
300.130604683
358.470435922
317.982686406
306.896855414
303.359197677
302.064875512
301.473455214
301.137875982
300.918656871
300.764355004
300.649340116
300.561201518
300.490406747
300.430393961
300.376054924
300.325668575
300.278571785
300.234273615
300.192076899
300.151055153
300.109734942
351.881073082
314.442515771
305.041092065
302.418073704
301.570175196
301.204960155
300.990247138
300.835492848
300.713454228
300.613550857
300.531314969
300.462956473
300.402974048
300.348809046
300.299237286
300.253569132
300.211065878
300.170617863
300.130423533
300.089649924
340.182280914
310.035973678
303.325936
301.711590121
301.237463104
301.021072788
300.88161948
300.769639136
300.670013512
300.580624727
300.503451649
300.436123042
300.376704149
300.323427469
300.275194639
300.231192778
300.19042181
300.150926301
300.110757873
300.072228587
328.040748096
306.938221329
302.516587328
301.422995869
301.072067468
300.911703554
300.807377499
300.71851777
300.632755461
300.551776624
300.477701513
300.411670487
300.353197662
300.301062017
300.254215236
300.211711093
300.171868627
300.13229533
300.093596396
300.058352303
323.042495815
306.887420043
302.498481047
301.342656598
300.987626272
300.844589317
300.756613524
300.679904772
300.60337168
300.527459231
300.455550208
300.390609695
300.33310193
300.282036584
300.236250263
300.194341889
300.154320412
300.115706691
300.079825396
300.0511965
300.00111361
300.000893038
300.000725291
300.000600382
300.000514317
300.000430236
300.0003486
300.000265188
300.000197554
300.000142864
300.000094272
300.00005972
300.00003963
300.000027793
300.000021022
300.000018546
300.004316446
300.002856654
300.002160817
300.001701075
300.001344887
300.001073911
300.000866591
300.000703388
300.000599525
300.00049482
300.000391576
300.000292313
300.000211879
300.000144641
300.000090575
300.000057373
300.000038378
300.000027967
300.000021781
300.000019411
300.005300251
300.003631876
300.002688475
300.002076789
300.0016351
300.001298191
300.001024852
300.000829635
300.000695302
300.000565964
300.000442749
300.000325943
300.000229388
300.000148434
300.000088486
300.000055259
300.000038078
300.000028657
300.000022807
300.000020468
300.006925403
300.004685902
300.00338039
300.002546786
300.001979246
300.001557295
300.001201247
300.000974888
300.000798055
300.000642538
300.000497964
300.000362714
300.000251038
300.000156533
300.000088963
300.000055727
300.000038889
300.00002969
300.000024069
300.000021635
300.009184331
300.006103982
300.004309427
300.003166505
300.002398949
300.001835817
300.00141403
300.001131988
300.000908744
300.000721875
300.000553001
300.000399174
300.00027327
300.000167699
300.000093518
300.000057974
300.000040365
300.000030955
300.000025515
300.000022877
300.012260499
300.008009154
300.005548426
300.003989063
300.002927893
300.002180053
300.001670224
300.001308389
300.001030292
300.000803234
300.000606737
300.000434625
300.0002951
300.000181518
300.000101342
300.000061667
300.000042451
300.000032394
300.000026953
300.000024055
300.016314011
300.010499609
300.007124529
300.005003769
300.003598554
300.002637437
300.001975174
300.001505946
300.001157242
300.000880881
300.000652586
300.000462777
300.000312639
300.000195444
300.000112319
300.000067188
300.00004482
300.00003363
300.00002792
300.000024896
300.021329626
300.013489024
300.008958984
300.006217023
300.004390816
300.003142873
300.002288053
300.001693066
300.001263696
300.00093557
300.000675178
300.000468799
300.000314065
300.000200631
300.000119257
300.000071788
300.000046735
300.000033971
300.000027725
300.000024652
300.026863591
300.016672685
300.010971505
300.007431688
300.005107104
300.003551984
300.002509476
300.001800407
300.001301643
300.000933782
300.000649103
300.000434521
300.00028343
300.000181133
300.000112421
300.00006952
300.000045391
300.0000325
300.000026118
300.000022931
300.032002832
300.019802681
300.012679586
300.008277016
300.005479652
300.003685507
300.00252011
300.001752588
300.001225368
300.000840304
300.000544704
300.000339089
300.000207494
300.00012733
300.000079984
300.000052191
300.000035889
300.000026633
300.000021772
300.000019407
300.036156144
300.022085453
300.013535736
300.008392495
300.005307336
300.003442848
300.002284378
300.001541895
300.00103675
300.000650438
300.000364584
300.000193374
300.000103151
300.000059916
300.00004034
300.000029314
300.00002055
300.000015819
300.000013772
300.000013038
300.038826765
300.022863655
300.013174528
300.007676608
300.004656613
300.002944113
300.001917933
300.001261271
300.000806886
300.000414653
300.000166123
300.00006601
300.000030639
300.000019979
300.000014446
300.000009666
300.00000646
300.000004332
300.000003294
300.00000373
300.039224622
300.021786143
300.011650446
300.006454947
300.003866445
300.002445731
300.001563772
300.000991496
300.000584176
300.000194746
300.000046231
300.000014005
300.000006049
300.000003316
300.000001073
300.000000839
300.000000671
300.000000313
300.000000103
300.000000892
300.036867479
300.018915913
300.009499821
300.005327466
300.003262445
300.002022663
300.001242094
300.000757661
300.000380118
300.000078814
300.000008139
300.000001134
300.000001388
300.000002442
300.00000309
300.000002815
300.000001307
300
300
300.000000828
300.03184214
300.015061883
300.007808588
300.00467031
300.002823291
300.00165656
300.000942543
300.000541761
300.000240677
300.000024433
300.000000477
300
300.000000578
300.000002557
300.000005371
300.000006785
300.000006407
300.000004163
300.000000014
300.000000798
300.025406904
300.012486408
300.007211535
300.004427977
300.002560206
300.001357422
300.000666917
300.000305998
300.000118252
300.00001585
300.000000326
300.000000068
300.000000264
300.000001367
300.000002698
300.000004549
300.000006002
300.00000639
300.000004338
300.000002458
300.021610381
300.012015142
300.007416444
300.004580586
300.002510184
300.001165908
300.000478414
300.000168015
300.000064397
300.000018095
300
300.000000017
300.000000002
300.000001053
300.00000159
300.000002052
300.000002663
300.000003242
300.0000039
300.000003088
300.021451836
300.01304547
300.008334826
300.005076356
300.002691681
300.001190679
300.000467366
300.000153959
300.000052106
300.000017585
300.000002849
300
300.000000001
300.000000178
300.000000692
300.000001382
300.000001615
300.000001624
300.00000134
300.000003087
300.024104031
300.015491053
300.010051027
300.006100855
300.003242956
300.001485513
300.000606699
300.000213564
300.00006194
300.000014441
300.00000295
300
300
300
300.000000014
300.000000231
300.000000722
300.000000966
300.000000567
300.000003172
300.029352423
300.019607847
300.012834617
300.007919829
300.004362362
300.002120426
300.000899644
300.000322794
300.000092796
300.000018607
300
300
300
300.000001538
300.000000148
300.000000005
300.000000037
300.000000094
300.000000166
300.000004013
300.037268629
300.02587738
300.017111042
300.010939353
300.006279927
300.00318222
300.001385015
300.00049396
300.000131897
300.000024642
300
300
300
300.000003896
300.000000931
300.00000017
300
300
300.000000225
300.000009501
300.047984729
300.034588497
300.023315241
300.01543416
300.009280366
300.004856403
300.002155881
300.000761602
300.000187319
300.000025872
300.000006907
300
300
300.000004862
300.000001667
300.000000521
300
300.000000002
300.000000959
300.000043138
300.061297853
300.045638441
300.031833841
300.021629122
300.013549524
300.007465849
300.003413131
300.001200562
300.000284141
300.000033279
300.00001119
300
300.00000436
300.000004944
300.000001807
300.000000765
300.000000036
300.000000437
300.000020752
300.000222344
300.076634796
300.058381191
300.042746966
300.029575414
300.019121918
300.011114807
300.00544384
300.002016067
300.000481343
300.000060143
300.000010984
300.000007906
300.000008369
300.00000489
300.000001861
300.000000797
300.000004756
300.000072488
300.000479303
300.001074368
300.09296887
300.07182027
300.054459336
300.038890128
300.025921772
300.015822242
300.008428933
300.00349248
300.00093295
300.000138754
300.00000753
300.000013589
300.000006871
300.000003777
300.000001615
300.00000754
300.000075985
300.000789574
300.00367752
300.006074234
300.108703332
300.084699557
300.064841722
300.047882107
300.033223213
300.021242691
300.012318331
300.005827094
300.001881591
300.000342537
300.000014059
300.000008885
300.000004935
300.000008859
300.000019613
300.000069397
300.000476638
300.00421171
300.015889053
300.024641884
300.122273557
300.095532589
300.07282735
300.054098546
300.038854272
300.026347857
300.016437502
300.008755154
300.003361151
300.000774259
300.000049233
300.000008977
300.000024272
300.000059705
300.000142916
300.000408721
300.002264664
300.016307312
300.047265826
300.066568623
300.132713134
300.102967421
300.077523565
300.056989999
300.041110186
300.029067148
300.019391357
300.011241989
300.004864023
300.001317711
300.000097822
300.000036334
300.000115054
300.000298141
300.000726905
300.001835195
300.008087202
300.038646506
300.105197285
300.135985357
300.138034121
300.105494268
300.077841274
300.055982997
300.039914935
300.028548166
300.01977068
300.011982757
300.005381729
300.001440283
300.00010736
300.000128181
300.000398405
300.00110513
300.002688615
300.005609207
300.016179051
300.062722573
300.178322648
300.223543346
300.136187454
300.101467746
300.072514746
300.050536639
300.035240567
300.024967286
300.017235298
300.010334662
300.004495257
300.001094816
300.000148335
300.00035366
300.001062713
300.003015943
300.007267286
300.013259236
300.022346651
300.065395463
300.234858937
300.314559058
300.126273862
300.090425408
300.061665367
300.041140296
300.027770842
300.018818026
300.011689166
300.006258477
300.002666616
300.000693794
300.00023074
300.000649377
300.002043526
300.005971842
300.014610989
300.026567702
300.036562757
300.060211033
300.245083517
300.403431997
300.109903116
300.07439558
300.047699915
300.030191913
300.019093655
300.010719139
300.004707416
300.002125359
300.000901869
300.000333713
300.000363239
300.001047254
300.003350232
300.009694051
300.023450166
300.043360056
300.061489343
300.084545666
300.245805428
300.481019571
300.090389964
300.056989498
300.034142812
300.020027735
300.010100526
300.003598007
300.001626006
300.000815634
300.000395746
300.000314107
300.000601983
300.0017861
300.005530411
300.015331195
300.035421408
300.063854819
300.091809994
300.120537595
300.259826589
300.524159351
300.070981409
300.04129
300.022782574
300.011150101
300.003923875
300.001726539
300.000933107
300.000586251
300.000387601
300.000449185
300.001014265
300.003104074
300.009370021
300.024600984
300.053180013
300.091945242
300.131978894
300.176249598
300.353249351
300.575355226
300.053984492
300.02855169
300.014133412
300.006018789
300.002707548
300.001412091
300.000855659
300.000639724
300.000485944
300.000658166
300.00164052
300.005179068
300.015235917
300.037780061
300.075586776
300.128313014
300.19188309
300.322721746
300.553869601
300.606208049
300.040440816
300.020079402
300.010263808
300.005280323
300.002792619
300.001594457
300.001024531
300.000800964
300.000635301
300.000913413
300.002405936
300.0076716
300.021905767
300.051208749
300.098996577
300.163840664
300.294731584
300.528477807
300.616402187
300.586099713
300.032323551
300.017926981
300.010265116
300.00579728
300.003336704
300.002037004
300.001350946
300.001036454
300.00085264
300.001167212
300.003065428
300.009709227
300.027082035
300.060415871
300.115896975
300.197546524
300.411747887
300.57855605
300.602316196
300.560043435
300.031686241
300.019269355
300.011666658
300.006927234
300.004210801
300.002706931
300.001813597
300.001361108
300.001128594
300.001409809
300.003434926
300.010546479
300.028734922
300.063534242
300.113608767
300.207665134
300.429458689
300.576452151
300.594100637
300.549210667
)
;

boundaryField
{
    emptyPatch
    {
        type            empty;
    }
    minY
    {
        type            calculated;
        value           nonuniform List<scalar> 0();
    }
    maxY
    {
        type            calculated;
        value           nonuniform List<scalar> 
40
(
323.042374218
306.887421105
302.498483307
301.342656371
300.987625575
300.844588612
300.756612887
300.679904195
300.603371156
300.527458715
300.455549672
300.39060913
300.333101321
300.282035907
300.236249495
300.194341022
300.154319547
300.115705954
300.07982495
300.05119636
300.031686232
300.019269371
300.011666666
300.006927237
300.004210803
300.002706932
300.001813598
300.001361109
300.001128595
300.00140981
300.003434929
300.010546502
300.028735037
300.063534637
300.113609073
300.207665212
300.429458633
300.57645218
300.594100795
300.549210744
)
;
    }
    maxX
    {
        type            calculated;
        value           nonuniform List<scalar> 
38
(
300
300
300
300
300
300
300
300
300
300
300
300
300
300
300
300
300
300
300
300
300
300
300
300
300
300
300
300
300
300
300
300
300
300
300
300
300
300
)
;
    }
    water_to_heater
    {
        type            calculated;
        value           nonuniform List<scalar> 
59
(
795.120609512
795.08458669
795.027031759
794.941350321
794.909480135
794.848959305
794.826653133
794.799401147
794.788185756
794.798937181
794.795330243
794.849406398
794.853810038
794.943226376
794.943195505
795.052050902
795.04706113
795.153070254
795.157986928
795.381945022
795.423394158
795.483231716
795.48700341
795.541710753
795.542306036
795.584558789
795.582482963
795.599138784
795.591453145
795.584188902
795.55987385
795.516885647
795.47878572
795.406721578
795.331308836
795.264164105
795.26010482
795.276980304
795.279886783
795.318654617
795.32121841
795.352451915
795.351882279
795.373645267
795.369416483
795.388199981
795.481444879
795.469225421
795.568081026
795.501842297
795.523203898
795.403873014
795.389218436
795.243615133
795.193833646
795.022652016
794.927377337
794.819428958
794.786519304
)
;
    }
    procBoundary0to1
    {
        type            processor;
        value           nonuniform List<scalar> 
41
(
350.118278785
315.502870635
305.648676547
302.592439224
301.468318718
300.982853889
300.746946999
300.611865184
300.519263143
300.442143587
300.372179647
300.307999479
300.250159417
300.197360623
300.148893005
300.105261476
300.06731796
300.037077896
300.017540287
300.007919626
300.00093863
300.000754471
300.000614405
300.000514807
300.000444563
300.000375711
300.000309662
300.000243262
300.000185825
300.000140177
300.000097926
300.000062372
300.000040123
300.000027871
300.000020653
300.000017917
300.003937225
300.002367466
300.00176234
300.001400381
300.001400381
)
;
    }
}


// ************************************************************************* //
