/*--------------------------------*- C++ -*----------------------------------*\
| =========                 |                                                 |
| \\      /  F ield         | OpenFOAM: The Open Source CFD Toolbox           |
|  \\    /   O peration     | Version:  2312                                  |
|   \\  /    A nd           | Website:  www.openfoam.com                      |
|    \\/     M anipulation  |                                                 |
\*---------------------------------------------------------------------------*/
FoamFile
{
    version     2.0;
    format      ascii;
    arch        "LSB;label=32;scalar=64";
    class       volScalarField;
    location    "0.1/water";
    object      alpha.gas;
}
// * * * * * * * * * * * * * * * * * * * * * * * * * * * * * * * * * * * * * //

dimensions      [0 0 0 0 0 0 0];

internalField   nonuniform List<scalar> 
1496
(
0.669869898827
0.665747294985
0.669869898827
0.704447349311
0.708898313058
0.704614645787
0.696959233018
0.636346383379
0.539181709244
0.441468486796
0.359065891771
0.328517216434
0.327518944219
0.355989315206
0.545337446817
0.556519136875
0.559564260613
0.556519136875
0.462534803016
0.260738664042
0.667200571458
0.669869898827
0.667401731959
0.708743671944
0.704614645787
0.707601361612
0.704427451427
0.642564377886
0.541294603768
0.438893786471
0.353678648342
0.328136703234
0.328517216434
0.341224442543
0.526875844427
0.559631889993
0.556519136875
0.557984845042
0.462147649511
0.261371692364
0.673857750784
0.667732267085
0.690328120726
0.704457216108
0.708724176006
0.704457216108
0.705536320402
0.649847547383
0.54526831655
0.437530257705
0.348684912684
0.328517216434
0.327342913718
0.328517216434
0.499320573249
0.556519136875
0.559423398335
0.556519136875
0.462323836414
0.262287043987
0.704591956258
0.685159380698
0.7043733494
0.708060262245
0.704457216108
0.707593493555
0.7043733494
0.659101715186
0.553906818914
0.439814510783
0.34855001377
0.328052066874
0.328517216434
0.327342893325
0.459410577821
0.558410011587
0.556519136875
0.557923186956
0.462728667108
0.263449313268
0.708789076049
0.704462102808
0.706770664923
0.7043733494
0.70796960715
0.7043733494
0.705739527455
0.669864257817
0.569667199671
0.448464336152
0.351294111072
0.328517216434
0.327283776567
0.328517216434
0.412390794347
0.556519136875
0.559039746084
0.556519136875
0.462942075886
0.263928295452
0.704591956258
0.705856244901
0.704203939501
0.70759511143
0.7043733494
0.707248746841
0.704203939501
0.681545128872
0.593138958299
0.467548662023
0.360804730828
0.328086779998
0.328517216434
0.32667743379
0.368962016685
0.54720009658
0.556519136875
0.557735960399
0.461959125926
0.262828575744
0.708262152235
0.704109489234
0.706818051927
0.704203939501
0.707572773548
0.704203939501
0.705730022371
0.692078701378
0.621054849257
0.497817477877
0.380120923602
0.328517216434
0.327499469672
0.328517216434
0.328621239345
0.511217023743
0.558028176416
0.556519136875
0.458106239765
0.257938577811
0.704109489234
0.705329745791
0.70398698471
0.706960348157
0.704203939501
0.7068110733
0.70398698471
0.699799626053
0.645594594189
0.532858441982
0.408139022319
0.330200646569
0.328517216434
0.326828767355
0.328517216434
0.455395668066
0.556519136875
0.557065175562
0.449386215326
0.247460659979
0.706041546375
0.703967940827
0.705693845698
0.70398698471
0.706772950965
0.70398698471
0.705558770827
0.703030272147
0.658608568066
0.559378604665
0.436754092524
0.339672769502
0.327892488796
0.328517216434
0.326507402646
0.39981862059
0.547978016425
0.556519136875
0.434039559172
0.230544221942
0.703889578487
0.700782307662
0.703967940827
0.705651868634
0.70398698471
0.705568079866
0.703967940827
0.702805620842
0.659179794156
0.567542236169
0.453342162584
0.351547814845
0.328517216434
0.327092080796
0.328517216434
0.356922220885
0.522498829458
0.541587813519
0.410853351449
0.207492110383
0.704260107064
0.678811624207
0.700448020568
0.703967940827
0.705051081052
0.703967940827
0.704361290622
0.697132762634
0.651555489176
0.56436473597
0.454738365476
0.355666075853
0.328058550342
0.328517216434
0.326163433906
0.328517216434
0.481203619141
0.514240060534
0.379445657664
0.179320274006
0.702346747068
0.641592460918
0.68034762797
0.701174493551
0.703967940827
0.70311390945
0.696256183837
0.673179198128
0.623638909331
0.546190829074
0.447009802983
0.353173723817
0.328517216434
0.32712700043
0.328517216434
0.326261184567
0.444353827323
0.482153336185
0.341239597534
0.14926888405
0.684103338754
0.60592767118
0.649197982586
0.681897215074
0.690621124201
0.680935825643
0.65724056127
0.618859849188
0.568343424551
0.501587762481
0.417748994623
0.341199764645
0.327988511374
0.328517216434
0.32564550999
0.328517216434
0.440339585583
0.457892899054
0.305200980046
0.125862721511
0.649764185436
0.5908154778
0.616992168414
0.648092456542
0.653464960515
0.627887185582
0.584115970247
0.537569379504
0.488454935025
0.430585160063
0.367108693635
0.328889842695
0.328517216434
0.326626030614
0.328517216434
0.328071691528
0.484660935217
0.457873893006
0.28703138341
0.118577144414
0.614865217088
0.589675719034
0.59241860255
0.616501915794
0.611122243792
0.561807294436
0.498956558242
0.446960670917
0.401030817191
0.3584181275
0.331322339865
0.328517216434
0.327428664723
0.328517216434
0.325515991238
0.456652917951
0.588076593955
0.469600362974
0.292909950622
0.125365553018
0.590892472658
0.5908154778
0.589895396312
0.604775981202
0.589929359697
0.517519240092
0.434811228658
0.376292918844
0.342328537367
0.329498493474
0.328517216434
0.327914792593
0.328517216434
0.325993269191
0.431021787085
0.620581766762
0.628154776144
0.510971461445
0.339557537443
0.162149936627
0.5908154778
0.58883487212
0.5908154778
0.612608689874
0.591730389419
0.512964316951
0.419463646786
0.352622192171
0.328601014748
0.328517216434
0.328165949876
0.328517216434
0.330823198221
0.424826839181
0.612942178352
0.629917186905
0.626363909268
0.570594787521
0.415357292877
0.225228048031
0.589532255675
0.600053437755
0.631206214897
0.649451375096
0.616436941556
0.541701953426
0.444023037077
0.361280937451
0.328517216434
0.32820153147
0.328517216434
0.335152937142
0.436623369895
0.587194755077
0.628912894736
0.626363909268
0.629104406911
0.608676480645
0.469845727974
0.278583103295
0.651747685198
0.695302839067
0.709310774937
0.703531747676
0.677350531387
0.63354721099
0.55673728878
0.440931529716
0.343393299559
0.328517216434
0.328017044097
0.391973714304
0.541416539364
0.626092782931
0.626363909268
0.630065969265
0.626363909268
0.620453536125
0.495372135446
0.308210203191
0.766837569548
0.77015422325
0.752026542481
0.744369220446
0.736272238262
0.72388743165
0.692977284183
0.609003614327
0.444555077161
0.340445935544
0.328520739934
0.410358234813
0.542739490898
0.626185671924
0.628338047768
0.626363909268
0.628750801569
0.622311677465
0.505948622007
0.322031232674
0.844829971129
0.788017849455
0.760387422194
0.75925034145
0.759342186886
0.75789798108
0.750358934895
0.719289249875
0.606228002387
0.42565563751
0.354252964447
0.392134221069
0.499341646036
0.614054190393
0.626363909268
0.62928387945
0.626363909268
0.622007413155
0.508272783858
0.32593805765
0.856333698073
0.787594987477
0.761452960068
0.761317613
0.761188742934
0.76125065865
0.7607829632
0.748778871905
0.697402459553
0.545275468086
0.402745208006
0.355174665085
0.414912585647
0.563812917217
0.627167384586
0.626363909268
0.628258650726
0.619368315821
0.505270685478
0.32385378946
0.858636980694
0.784736885562
0.760525641195
0.761188742934
0.761293977014
0.760926154874
0.760794600678
0.756014362018
0.720608979829
0.613037046703
0.455604939497
0.344396605804
0.345261909591
0.473984322825
0.622249199533
0.628410524221
0.626363909268
0.612574771386
0.492407875948
0.312242717721
0.856865677324
0.780710332562
0.756903024005
0.760183837009
0.760926154874
0.760794600678
0.760654401863
0.758088745509
0.724809100156
0.634910803326
0.491487374825
0.346026577606
0.305120617678
0.389753845427
0.59475447236
0.626363909268
0.627795385066
0.602116990796
0.471100455178
0.2922225662
0.858944674155
0.779067045981
0.752394666664
0.755655081976
0.760786958334
0.760654401863
0.760621884908
0.757158535813
0.723251830238
0.638127224567
0.507535348599
0.360523507151
0.282954729308
0.335910919718
0.549645663365
0.627455526735
0.626363909268
0.589695405879
0.446897024792
0.270393062122
0.857122167152
0.782030455639
0.749401648508
0.747358739684
0.756416887685
0.758557787151
0.75783635963
0.748943235257
0.712642187748
0.633434921681
0.50958863564
0.366331345661
0.271557090431
0.308710146304
0.514210792439
0.626363909268
0.627202136018
0.575302886838
0.421551264156
0.248946975367
0.859367040478
0.788129196608
0.746167887075
0.735799922605
0.741275831438
0.744282792232
0.7412666602
0.725459993072
0.687163600844
0.615458232955
0.503296848212
0.364659710366
0.266993460438
0.298738505789
0.498539337301
0.626687706662
0.626363909268
0.5576252585
0.3941142542
0.227068759342
0.856987156878
0.788585313235
0.738677310988
0.719299266179
0.715022248395
0.712094412806
0.70421106964
0.68531807371
0.649254355459
0.585573569787
0.48454996089
0.354092281405
0.26433758785
0.296898286234
0.49697666674
0.626363909268
0.626463817857
0.534319154029
0.363649274287
0.203880386946
0.859489935462
0.777167161063
0.72193160339
0.695023270725
0.679173829808
0.665987319188
0.652783678187
0.635216664291
0.605503645903
0.550623031202
0.45787811748
0.335320678875
0.261828471275
0.297814155041
0.502162638388
0.626504530767
0.615892177834
0.503764129217
0.329711660492
0.178981038572
0.85649257461
0.750438872617
0.691208923797
0.657955752568
0.63202597804
0.61032347023
0.594703759281
0.58105730034
0.559191154884
0.51266921107
0.426198775942
0.311264456344
0.260384528766
0.304796215278
0.517886393225
0.626363909268
0.596855210542
0.46635351923
0.292066055505
0.152371288823
0.859549367922
0.694264259912
0.64407218004
0.60224464803
0.569037371688
0.544364659835
0.531607246974
0.52384684991
0.509263153314
0.46899290079
0.387323230633
0.283521523243
0.259342806434
0.324457329877
0.540286343911
0.623025534863
0.569035169488
0.422355919198
0.251165120808
0.124590097099
0.856021094577
0.633445601723
0.580333143486
0.525288447011
0.488865500288
0.468596107912
0.463501689315
0.46235397982
0.453251517151
0.415983198284
0.339396646145
0.260356753139
0.259616408789
0.362965914663
0.556892330263
0.600933284766
0.52923888971
0.372701734919
0.208148623472
0.0972460310139
0.859062615469
0.579074413862
0.502873996337
0.432180727836
0.398904863248
0.389507754724
0.392822617251
0.397294980294
0.389579569502
0.35255429884
0.28617725111
0.253966738009
0.26995564903
0.416430239464
0.556816415569
0.563318642354
0.479765918358
0.319533675671
0.165371989856
0.0733097553175
0.855701255489
0.523754191286
0.417378696542
0.337242109568
0.316628967742
0.317468574261
0.326874050596
0.331562333785
0.321249013882
0.285981726074
0.248328987848
0.251986278672
0.312698363885
0.464850074763
0.540392889168
0.523018961978
0.427040124532
0.26693835495
0.126808606612
0.0559048876474
0.856434211955
0.453844086615
0.329886443442
0.263295778335
0.257333903834
0.262374289846
0.269954201004
0.268736004322
0.254023197876
0.232341382455
0.233990661169
0.271329299234
0.390096953848
0.490498287665
0.514967212622
0.486166492692
0.378132692856
0.219855428741
0.0966613619808
0.0455510393088
0.829926113522
0.370474046426
0.285417901697
0.247840575217
0.240381093308
0.23218051993
0.224331402959
0.214139627007
0.207702939233
0.2108352976
0.240052980603
0.332124659763
0.452862344195
0.495481940522
0.50081537826
0.460514777056
0.341235962086
0.184336066475
0.0775293760853
0.0407276110551
0.769233604912
0.31179682534
0.293983088834
0.266545455838
0.25030658963
0.232544004475
0.213510892464
0.198433539576
0.195240237618
0.20657690777
0.25548450649
0.368626107346
0.465519135633
0.497146981563
0.494115303187
0.444412762755
0.319978457734
0.164369958655
0.0669675718343
0.037690071187
0.00990055506585
0.0067762025154
0.00543274705498
0.00409454452012
0.00224199105644
0.000626417466653
5.53933008732e-05
7.45653544688e-07
2.3862781226e-15
5.74150902699e-15
1.11854775587e-14
1.33707685514e-14
1.32848913301e-14
1.26286484676e-14
1.8325956969e-14
1.00536028176e-14
0.107044682055
0.0469000334441
0.0275703026799
0.0172224144986
0.010201675436
0.00687823904638
0.00549216955073
0.00418341808603
0.00234849426606
0.000679772556521
6.22374023528e-05
8.72844531747e-07
1.87289694994e-15
5.38963889333e-15
1.09121351174e-14
1.32945031712e-14
1.31900156047e-14
1.256949005e-14
1.82845820871e-14
9.94875540815e-15
0.108018363576
0.0473780543054
0.027878367428
0.0175532015021
0.0104471159457
0.00696580083138
0.0055334078469
0.00425205306527
0.00243625562911
0.000723715519566
6.76845429234e-05
9.96138485723e-07
2.38627812271e-15
5.06129470585e-15
1.06288483827e-14
1.32032890979e-14
1.30947495136e-14
1.25657887536e-14
1.81641831577e-14
9.93174950629e-15
0.109003606524
0.047769608207
0.028074660734
0.0177738772326
0.0106248175776
0.007031020455
0.00555914960382
0.00429510118502
0.00250231638013
0.000757791779791
7.14911276431e-05
1.1407418138e-06
1.87289694957e-15
4.76700804165e-15
1.03329798007e-14
1.31012903944e-14
1.30161105923e-14
1.2567003302e-14
1.79910524686e-14
9.92783212089e-15
0.109941967713
0.048027499356
0.0281387009096
0.0178575797479
0.010709373113
0.00706087133124
0.0055669649638
0.00430994268852
0.00253522530841
0.000779454148269
7.41988442262e-05
1.29463950034e-06
2.3862781229e-15
4.50800118099e-15
1.00320852208e-14
1.29970738018e-14
1.29584678639e-14
1.25878796557e-14
1.77697440093e-14
9.92150405788e-15
0.11036044286
0.0480530535739
0.0280636333819
0.0178159310198
0.0107001101499
0.00705419044141
0.00555683439222
0.00430382640334
0.00253592178657
0.000782566529455
7.47094544096e-05
1.38416823448e-06
1.87289694904e-15
4.2985345663e-15
9.75252475684e-15
1.28995119627e-14
1.29130930861e-14
1.26106475211e-14
1.75094666163e-14
9.91572101909e-15
0.109848413895
0.0476784184886
0.0276844401228
0.0175235482361
0.0105363080661
0.00698277835399
0.00550980817055
0.00425844715596
0.00249571958542
0.00076336611831
7.16594664283e-05
1.37714286549e-06
2.3862781224e-15
4.14749866846e-15
9.54102453499e-15
1.28114455681e-14
1.28700350078e-14
1.26203263639e-14
1.72307046787e-14
9.90788159359e-15
0.107203126564
0.0464800410988
0.0268687551686
0.0168554941846
0.010121857162
0.00681609219928
0.00541692830909
0.00415410983721
0.00237867886851
0.000700406512656
6.22653916215e-05
1.25365397177e-06
1.87289694892e-15
4.08436269203e-15
9.43353392643e-15
1.27329722542e-14
1.28191203156e-14
1.26174280982e-14
1.69591273308e-14
9.90604831101e-15
0.101449510002
0.0441891162183
0.025525604688
0.0157872883561
0.00947541295272
0.00656647494935
0.00527748833083
0.00398805653516
0.00218524171653
0.000598956225587
4.86174305066e-05
1.01533873199e-06
2.38627812242e-15
4.13934858785e-15
9.46334782469e-15
1.26664459619e-14
1.27548658324e-14
1.25972603387e-14
1.67013560667e-14
9.89965390676e-15
0.0923175745382
0.0407046623918
0.0235768746791
0.0143173243984
0.00866207255951
0.00625974507787
0.00508954507239
0.00375590886767
0.00192994672929
0.000479346732547
3.48619328345e-05
7.77401710785e-07
4.69036316898e-12
3.07726155513e-15
9.26987158605e-15
1.26188430186e-14
1.26764922136e-14
1.25597968357e-14
1.64378542716e-14
9.894037622e-15
0.0802965882666
0.0362368365768
0.0210578445218
0.0125393370477
0.007799460511
0.00593122649043
0.00485552167661
0.00345727534502
0.00163648090868
0.000364206906201
2.41938353814e-05
6.17295616625e-07
2.47893205689e-10
3.06898030537e-15
9.24864203105e-15
1.25625600334e-14
1.25874843133e-14
1.25143134737e-14
1.61522332005e-14
9.85007881758e-15
0.0669793941666
0.0313948851805
0.018236605872
0.0107460348533
0.00705299098705
0.00562081531143
0.00458965249821
0.00311670991955
0.00135095136194
0.000274967512144
1.79404727574e-05
5.37416733728e-07
5.69921588242e-10
3.07726155512e-15
9.25440857747e-15
1.24866343863e-14
1.24975040618e-14
1.24666561184e-14
1.58415014308e-14
9.6972563489e-15
0.0551968155356
0.0271384193048
0.0157028783652
0.0093796040905
0.00655176107339
0.00536592487471
0.00432973318425
0.00280209719458
0.00113728700582
0.000224922519668
1.57393089979e-05
5.11932357841e-07
6.40972122256e-10
3.06898030536e-15
9.30949206231e-15
1.24065004301e-14
1.24179751864e-14
1.24178006292e-14
1.55123324375e-14
9.44590446675e-15
0.0480380106792
0.0245456122
0.014230137155
0.00875010428971
0.00633374016414
0.00521024137815
0.00414790244164
0.002613592685
0.00104447767556
0.000212102194057
1.58788566127e-05
5.20548642738e-07
7.14475066783e-10
3.07726155508e-15
9.49300513804e-15
1.23449297075e-14
1.23535328515e-14
1.23694400294e-14
1.52107619552e-14
9.08510646611e-15
0.0464004200504
0.0240058909017
0.0139983108694
0.00870774561731
0.00632479755218
0.00517868764166
0.00410177220896
0.00258570114242
0.00104518918317
0.000220711950067
1.91269159477e-05
6.43040452016e-07
1.32845635989e-09
3.06898030535e-15
9.85704613631e-15
1.23032964801e-14
1.23014199431e-14
1.23260297871e-14
1.49767211866e-14
8.68280069186e-15
0.048811610006
0.0250143749193
0.0147309338464
0.00922570172407
0.0065575760784
0.00525653356464
0.00416437230672
0.00269154295855
0.00115970122629
0.000278891032366
3.05795998851e-05
1.14327204405e-06
4.11458749709e-09
3.07726155508e-15
1.01523489636e-14
1.22656163805e-14
1.2259545586e-14
1.22936000149e-14
1.48057921267e-14
8.34274758861e-15
0.0621587765284
0.0301588352396
0.017936943297
0.0111876573267
0.00745998580087
0.00564055111536
0.00446591824985
0.00308711880822
0.00151039119846
0.000432540181306
5.87797607315e-05
2.67238726411e-06
1.53895077573e-08
3.06898030529e-15
1.01409358411e-14
1.22200970477e-14
1.22287369387e-14
1.22708357648e-14
1.4685821433e-14
8.12207803959e-15
0.090975497898
0.0410556136867
0.0240431356173
0.0150349960711
0.0094333271281
0.00652876538853
0.00504715938978
0.00373248192583
0.00210296164082
0.000722181634338
0.000120951939461
7.03792363676e-06
5.91428731623e-08
3.07726155509e-15
9.85809009948e-15
1.21576649369e-14
1.22067345909e-14
1.22273322516e-14
1.46349181383e-14
7.98411504557e-15
0.12591874496
0.0554219844922
0.0314215675221
0.0201725077
0.0126094039382
0.00804655980914
0.00583926933215
0.004443691169
0.00283690395059
0.00117604386038
0.00024594755067
1.85228168622e-05
2.24114366281e-07
3.06898030527e-15
9.4608134177e-15
1.20704416829e-14
1.21872677227e-14
1.21471841104e-14
1.4634079507e-14
7.88480540565e-15
0.153014905776
0.0691162267577
0.037991987477
0.0250920332249
0.0164595162606
0.0102079656117
0.00683214636373
0.00511953854076
0.00357055454507
0.00176836870351
0.000463544026825
4.49566650717e-05
7.90874007583e-07
3.0772615551e-15
7.66983447444e-15
1.18487437457e-14
1.21624480011e-14
1.20364195666e-14
1.46544273322e-14
7.81525869676e-15
0.167777948459
0.0791125228833
0.042773448233
0.0286022025942
0.0198943773025
0.0127035344714
0.00802635032364
0.005753735716
0.00419526684806
0.00239782312176
0.00077627307673
9.60403740586e-05
2.41990588802e-06
5.91063402097e-10
4.58546712794e-15
1.14184751863e-14
1.21182453715e-14
1.1905254954e-14
1.46588383909e-14
7.77747347599e-15
0.172861282442
0.0842882286321
0.0456435780138
0.0306026378473
0.0221958878632
0.0149396865334
0.00930248072931
0.00634889672755
0.00467630564265
0.00294517488236
0.00113878235015
0.000176311369795
6.12890580259e-06
5.75983954705e-09
4.5844126659e-15
1.09690865488e-14
1.20388512355e-14
1.17612121863e-14
1.46546072472e-14
7.76680848578e-15
0.172663932637
0.0853420766922
0.0467015520358
0.031474921982
0.0234203011493
0.0164912641529
0.0104270223977
0.00687173565794
0.00502492995879
0.00334799725916
0.00147785047402
0.000276988898106
1.27492255083e-05
2.5939361103e-08
4.58437207126e-15
1.05614321936e-14
1.19229004809e-14
1.16075084967e-14
1.45938179267e-14
7.76435742626e-15
0.167168036087
0.0840727287435
0.0466003147022
0.031631635326
0.0239093174956
0.0173262772078
0.0112030058493
0.00726316004846
0.00525620962884
0.00360601513488
0.0017357444203
0.0003765604315
2.2000800446e-05
7.1995657441e-08
4.58435587615e-15
1.02004909371e-14
1.17838596648e-14
1.14485229808e-14
1.4448781441e-14
7.75239920945e-15
0.155391980869
0.0793200683797
0.0452415494917
0.0314033975499
0.0239735078792
0.0176243876729
0.0115619959706
0.00747301049728
0.00537687386282
0.00374160051763
0.00188976856134
0.000451514385562
3.12593584958e-05
1.31867802993e-07
4.5843597253e-15
9.89823866909e-15
1.16338902981e-14
1.12891255539e-14
1.42556898599e-14
7.75246911129e-15
0.141817635424
0.0725977755348
0.0426479167909
0.0305990579488
0.0238119793088
0.0176222044633
0.0116074822296
0.00751145678975
0.00540520896848
0.00378202844631
0.00194578203722
0.000485129003355
3.5843297798e-05
1.72411912018e-07
4.58419734995e-15
9.67751636027e-15
1.14769063754e-14
1.11284525201e-14
1.40578216895e-14
7.73350552309e-15
0.128689171714
0.0659811364341
0.0399434851069
0.0295134828666
0.0233016704245
0.0173375601931
0.0114423785806
0.0074404876587
0.00537992425914
0.00377237425106
0.00194301798357
0.000485357485871
3.57770530078e-05
1.71522465698e-07
4.58435972528e-15
9.53614618307e-15
1.13106552916e-14
1.09612724545e-14
1.38478651087e-14
7.74588360962e-15
0.115619914412
0.0597142915008
0.0375210821743
0.0284660457671
0.0225646291906
0.0166487003002
0.0109104845626
0.00718010534891
0.00526284935407
0.00369164546076
0.001874367525
0.000453042398828
3.09880631887e-05
1.19101014136e-07
4.58419734994e-15
9.46446854575e-15
1.11302081105e-14
1.07848219395e-14
1.36348418401e-14
7.7284632219e-15
0.10203702846
0.0535372746394
0.0352485260132
0.027436130436
0.02170492153
0.0156963498754
0.010132401532
0.00679079786569
0.00506168032873
0.00351601071671
0.00170379360003
0.000371922013508
2.0611371948e-05
4.01861669235e-08
4.5843597253e-15
9.44770027999e-15
1.09308926539e-14
1.06010870455e-14
1.34031694399e-14
7.73236176571e-15
0.0878831036362
0.0474837017134
0.0330445010539
0.0263169709548
0.0206692751896
0.0145583931944
0.0092766246761
0.00638291316029
0.00482495921683
0.00327431294032
0.00146457092607
0.000269778153563
1.0519803685e-05
4.95967875219e-09
4.58419734994e-15
9.44990379289e-15
1.07105534826e-14
1.04130970188e-14
1.3159429978e-14
7.70895073773e-15
0.0735500595
0.0418545961574
0.0309274029028
0.025025642666
0.0193512954869
0.0132109025593
0.00840171436825
0.0059917893481
0.00456913953742
0.00298539298735
0.00119609607938
0.000176498056495
4.32625039234e-06
4.4099580435e-11
4.58435972531e-15
9.45724544827e-15
1.04711042365e-14
1.0224208379e-14
1.2879489734e-14
7.72557316479e-15
0.0599063057986
0.0370066520645
0.0289066701923
0.0234897590759
0.0176754230928
0.0116671353542
0.00754999987252
0.0056199175562
0.00428796711471
0.00264880935413
0.000919520874436
0.000103432278414
1.42693496334e-06
1.25606865227e-15
4.62517020434e-15
9.40125476012e-15
1.02183489075e-14
1.00406826392e-14
1.25757536203e-14
7.70914824258e-15
0.0483141294069
0.0331588835362
0.0269437129899
0.021657899781
0.015675414155
0.0100697039049
0.00679581634763
0.00527142368276
0.00397378179572
0.00226745785545
0.000656515093356
5.34378253351e-05
3.61534794906e-07
1.25454350451e-15
4.75229480382e-15
9.28783780968e-15
9.96096295779e-15
9.86746247463e-15
1.22470234073e-14
7.71166824888e-15
0.0399927855842
0.0302759549591
0.0249955934074
0.0195788261389
0.0135675862263
0.00866413812214
0.00620429938521
0.0049500357509
0.00362539870012
0.00186316571279
0.000435498206833
2.49636109107e-05
7.23459951363e-08
1.2530227187e-15
4.91248634979e-15
9.16264666104e-15
9.70561991279e-15
9.7035338192e-15
1.19158660981e-14
7.69337428177e-15
0.0350263415254
0.0281509069459
0.023103662432
0.0174956006187
0.0117119675895
0.00764688681462
0.00578857319571
0.0046594565683
0.00325985206211
0.0014825668211
0.000278672762139
1.16883834996e-05
1.33751230002e-08
1.25150571964e-15
5.08319153151e-15
9.03708159404e-15
9.46812380907e-15
9.55343428021e-15
1.16035116951e-14
7.70425505097e-15
0.0322787479349
0.0265658205319
0.0214578678683
0.0157819885236
0.0103887035587
0.00703093872264
0.00551445521364
0.00440143931208
0.00290952136172
0.00117202281609
0.000183746464567
6.08532770189e-06
2.38872672926e-09
1.25002839646e-15
5.23589862781e-15
8.88080345487e-15
9.21700173029e-15
9.38323706184e-15
1.1282141819e-14
7.69706032351e-15
0.0309152578815
0.0254845692078
0.0202953063063
0.0146624240522
0.00960702415251
0.00669994320969
0.00535125821444
0.00421491772893
0.00264978194573
0.000974974944692
0.000136442676474
3.83481471216e-06
3.59957455993e-10
1.24855561308e-15
5.42229264553e-15
8.78956597321e-15
9.07176436176e-15
9.3060757134e-15
1.11329402215e-14
7.6897699379e-15
0.0298365329367
0.0249368491189
0.0199635415492
0.014373409121
0.00938707063226
0.00659589472866
0.00526846174263
0.00407363208485
0.00244683976625
0.000836741301931
0.000105520336654
2.24198989453e-06
1.1563206912e-15
1.24708682467e-15
5.23846406225e-15
8.21251301361e-15
8.463567128e-15
8.81185295824e-15
1.0512277212e-14
7.68080248061e-15
)
;

boundaryField
{
    emptyPatch
    {
        type            empty;
    }
    minY
    {
        type            fixedValue;
        value           nonuniform List<scalar> 0();
    }
    maxY
    {
        type            inletOutlet;
        phi             phi.gas;
        inletValue      uniform 1;
        value           nonuniform List<scalar> 
40
(
0.769233604912
0.31179682534
0.293983088834
0.266545455838
0.25030658963
0.232544004475
0.213510892464
0.198433539576
0.195240237618
0.20657690777
0.25548450649
0.368626107346
0.465519135633
0.497146981563
0.494115303187
0.444412762755
0.319978457734
0.164369958655
0.0669675718343
0.037690071187
0.0298365329367
0.0249368491189
0.0199635415492
0.014373409121
0.00938707063226
0.00659589472866
0.00526846174263
0.00407363208485
0.00244683976625
0.000836741301931
0.000105520336654
2.24198989453e-06
1.1563206912e-15
1.24708682467e-15
5.23846406225e-15
8.21251301361e-15
8.463567128e-15
8.81185295824e-15
1.0512277212e-14
7.68080248061e-15
)
;
    }
    maxX
    {
        type            zeroGradient;
    }
    water_to_heater
    {
        type            zeroGradient;
    }
    procBoundary0to1
    {
        type            processor;
        value           nonuniform List<scalar> 
41
(
0.666590385645
0.669869898827
0.666722667243
0.707889336048
0.704724213042
0.707105830396
0.692508044638
0.631107861233
0.536193918972
0.442001147879
0.362297206697
0.328228600281
0.328517216434
0.369898849661
0.553855594983
0.560096017897
0.556519136875
0.558012153361
0.46260493612
0.259992538764
0.00955338385834
0.00665981814089
0.00535499409221
0.00398548384629
0.00211596326035
0.000565120015542
4.75883903931e-05
6.0469152848e-07
1.87289695009e-15
6.11674221569e-15
1.14485355985e-14
1.34331888355e-14
1.33646695712e-14
1.27301534468e-14
1.83274041267e-14
1.01613865577e-14
0.105924349899
0.0463079313385
0.02714808308
0.0167885123895
0.0167885123895
)
;
    }
}


// ************************************************************************* //
