/*--------------------------------*- C++ -*----------------------------------*\
| =========                 |                                                 |
| \\      /  F ield         | OpenFOAM: The Open Source CFD Toolbox           |
|  \\    /   O peration     | Version:  2312                                  |
|   \\  /    A nd           | Website:  www.openfoam.com                      |
|    \\/     M anipulation  |                                                 |
\*---------------------------------------------------------------------------*/
FoamFile
{
    version     2.0;
    format      ascii;
    arch        "LSB;label=32;scalar=64";
    class       volScalarField;
    location    "0.1/water";
    object      k.gas;
}
// * * * * * * * * * * * * * * * * * * * * * * * * * * * * * * * * * * * * * //

dimensions      [0 2 -2 0 0 0 0];

internalField   nonuniform List<scalar> 
1496
(
2.02406599578
0.984121772465
0.550394338037
0.416869926959
0.356680810559
0.295069396911
0.170711926172
0.0859419120565
0.0466477121176
0.0284506880745
0.0195571058869
0.0151420273028
0.0128051884748
0.0113759417627
0.0092087518811
0.00672155599831
0.00457278219443
0.00253122208097
0.00103077560492
0.000350248388579
2.00073446093
0.977359834739
0.547831235676
0.408504565351
0.346155026948
0.287353021453
0.178353798886
0.0890795714881
0.0479631965353
0.0290134367883
0.0198010212991
0.0152217415921
0.0127291712138
0.0112376765678
0.00914100634739
0.00667417064143
0.00453479780838
0.00251401745213
0.00102829026629
0.000350591946233
1.9858783355
0.971804888369
0.54274327714
0.389176493332
0.325435601124
0.270856826695
0.181026465115
0.0926443330958
0.0497995731624
0.0298541641621
0.0201810668523
0.0153596011066
0.0126785571929
0.0110965823391
0.00905337304905
0.00661759075247
0.00448349545966
0.00248894386439
0.00102268684961
0.000350101955217
2.04011389103
0.97697760527
0.541395167343
0.372590922804
0.303933974655
0.252361784614
0.179386787748
0.0962538438942
0.0522382435188
0.0310481991716
0.020731294086
0.0155812576064
0.0126939737286
0.0109665387704
0.00895123692923
0.00656213017444
0.00442161074766
0.00245467766947
0.00101335690842
0.000348733311807
2.05104172372
0.981751980548
0.523956054243
0.353882656706
0.282109843825
0.233475269555
0.174132563994
0.099213282077
0.0550179849731
0.0325501400531
0.0214484712714
0.0158984203927
0.0127856291852
0.0108572151839
0.00886675356574
0.00650942481827
0.00435226538563
0.00241157029602
0.00100012486163
0.000346302540201
2.05535265196
0.98878867932
0.533366260716
0.346802080904
0.265622199034
0.21693669161
0.167126512232
0.101064124559
0.0576716126202
0.0341887175764
0.0222858875271
0.0163030974926
0.0129620436027
0.0108004077286
0.00881178087176
0.00646548856059
0.00429005783128
0.00236306834361
0.000984316030597
0.000342940221219
2.03982635835
0.992306417866
0.539865495298
0.342828450089
0.25291431731
0.202803875711
0.159095368179
0.101341771851
0.0595389621204
0.0356256781851
0.0231223367762
0.0167623619187
0.0132231433989
0.0108216821779
0.00880011922692
0.00645217732689
0.00424893935709
0.00231377663602
0.000968686965619
0.000338987449026
1.99191820234
0.985845910736
0.541653849587
0.338215875725
0.241495609165
0.18954866865
0.149658733526
0.0996005180635
0.0599449200337
0.0364597572291
0.0237973191937
0.0172353478044
0.0135629372615
0.0109713818885
0.00883618304518
0.00648395233899
0.00424374419657
0.00227391315193
0.000959352136715
0.00033569063768
1.94085077596
0.972912151886
0.53924124675
0.331176175534
0.229565285039
0.176051394524
0.138292781608
0.0945828254387
0.0583645954895
0.0364050935484
0.0241812069806
0.0176758170699
0.0139564096153
0.0112298209311
0.00893110600278
0.00659264876811
0.00429439429749
0.00226350403892
0.000965453801087
0.000334919069371
1.92816183154
0.953705251912
0.517375947047
0.313677585998
0.21356287394
0.160748868438
0.124334784262
0.0854911781562
0.0547805179496
0.0354555092219
0.0242400835151
0.0180544241453
0.0143884172132
0.0115863771782
0.00913484764938
0.00681120798784
0.00445317214511
0.00231756167415
0.000996366173099
0.000338242573116
1.99086474351
0.943393800866
0.488593400468
0.287754253885
0.194233288447
0.143325730184
0.107604583553
0.0747174400409
0.0500245250869
0.0338664779426
0.0240370644013
0.018380599501
0.0148618059131
0.0120444395676
0.00951282210469
0.00723443907749
0.00480968228556
0.00246754580558
0.00105697113735
0.000345999578583
2.06783110686
0.94275608894
0.470723398098
0.266000800267
0.175944383989
0.126244844307
0.0917884700266
0.0647538290104
0.0452030165008
0.0320506816759
0.0237162820805
0.0186982685489
0.0153804264803
0.012624737803
0.0101704282031
0.00803077809857
0.00546632004056
0.00273895056483
0.00114550967198
0.00035890044366
2.05942528013
0.936153233243
0.461111865637
0.253663283891
0.162399059059
0.112467679104
0.0798730805096
0.057067325513
0.0411997395306
0.0304357764857
0.0234435714438
0.0190355768885
0.0159237369313
0.0133504264828
0.0112133791239
0.00941065647147
0.00654405735503
0.0031332838113
0.00125018810156
0.000381648628302
1.99258335141
0.923281938023
0.455873405502
0.249995204402
0.156389440294
0.104689224208
0.0726991460495
0.0520664158608
0.0383700868608
0.0292342986748
0.0232466542987
0.0192804836022
0.0164114826689
0.014253455249
0.0127698933322
0.01141855346
0.00798435374839
0.00361681752324
0.00137410995445
0.000422363070179
1.9541837197
0.922660712004
0.461123719783
0.256146018963
0.158629154636
0.102918909477
0.0695424814534
0.0492313741168
0.0364590521246
0.0282230066903
0.0228123795463
0.0191764912403
0.0167622658927
0.015358597538
0.0147131964086
0.0132260976953
0.0093248628091
0.00420616533969
0.00154691627408
0.000492459437742
1.98553664019
0.947167808445
0.48228301733
0.273724034254
0.168328282642
0.10618731023
0.0695271920978
0.0479368062399
0.0349740210959
0.0269483351681
0.021833043786
0.0186244005496
0.0169740178379
0.0165450831901
0.0159722469793
0.0142310860478
0.0106075071528
0.00482568807344
0.00172806980727
0.000596285270642
2.06018087131
1.00132200214
0.527875068172
0.302810468137
0.184300643636
0.114550298043
0.0731022192651
0.0485362379009
0.0340050747093
0.0254994393337
0.0205003127748
0.0177729680135
0.0169708178732
0.0169860701535
0.01621165441
0.0150666505225
0.0114491205871
0.00527292384913
0.00189477848199
0.00070115466083
2.16780951372
1.10342195697
0.587078201139
0.331514849591
0.203981165801
0.127997185231
0.0810172370574
0.0518394900091
0.034388139566
0.0246156145614
0.0193429105504
0.0168323841786
0.016290118427
0.0165368467866
0.0163289027643
0.0153749660524
0.0115778726205
0.00547645259095
0.00202518871937
0.00077717946394
2.45263924401
1.21280371023
0.611891050948
0.348259471119
0.223488015816
0.145806911362
0.0937552302199
0.0588800112326
0.0368956755273
0.0247778916453
0.0186678197841
0.0158989630496
0.0151756628706
0.0158736374712
0.0160719587002
0.0149432946515
0.0111550119094
0.00549847801196
0.00211366484522
0.000816724034623
2.81002253365
1.24803921719
0.608882569689
0.350461840764
0.231547333201
0.160302421597
0.109754922112
0.0695459657473
0.0415149351519
0.0262289228608
0.0186820666673
0.0152579320537
0.0141658197478
0.014895976821
0.0152630720681
0.0140034794031
0.0104605754195
0.00536742511741
0.00214869825801
0.000836162429586
3.15660980812
1.23941239453
0.585818239378
0.333436767141
0.222799407976
0.161464882833
0.118542797958
0.0818481250652
0.0476181781168
0.02867075664
0.0193638808223
0.0150913751573
0.0134969467194
0.0137157499511
0.0141279899237
0.0128851841477
0.00967673931396
0.00510977971109
0.00212246057207
0.000835418711099
3.27556635471
1.25520454501
0.57624935423
0.31806164138
0.211157122414
0.157131043742
0.121022036181
0.0895165618981
0.0560642404454
0.0320510292396
0.0205310058274
0.0153439659951
0.0132331191295
0.012784877645
0.0129634254419
0.0118086331182
0.00888719794493
0.00477089292243
0.00204035004199
0.000813187832657
3.2419544945
1.25878277215
0.573143498019
0.307886726333
0.200527484625
0.150014433392
0.118436169452
0.0909538646495
0.0603375653497
0.0349364778642
0.0219006264533
0.0158473763792
0.0132563836336
0.0122940025188
0.0119870536344
0.0108546328924
0.00813887579421
0.00439688004153
0.00191972190932
0.000771607682855
3.15940616258
1.24910127835
0.571728401365
0.30139750868
0.191320662471
0.141524669595
0.112440716657
0.0879877363868
0.0605083055907
0.036101983328
0.0227895745944
0.0162769070167
0.0133446222057
0.0120812211514
0.0112848222808
0.0100479307156
0.00744071670697
0.0040136742426
0.0017759021853
0.000714635129213
3.10612051073
1.24729724934
0.571867571167
0.295029561105
0.181254818336
0.131128906577
0.103400158519
0.0811003305597
0.0565928440615
0.0353811770322
0.0229493385767
0.0164426118274
0.0133576106467
0.0119429453106
0.0107901905286
0.00935487425768
0.00678015694859
0.00362851890542
0.00161724146841
0.000645818556386
3.14960234172
1.26812834489
0.571173904786
0.28521241657
0.168589811762
0.118617299241
0.0920413521247
0.071587910135
0.0504658571127
0.0333618966838
0.0224620595873
0.0163232638793
0.0132545278351
0.0117673255353
0.0103723838795
0.00872213772195
0.00613969704662
0.00324425760576
0.00144975754137
0.000571181550666
3.35069390236
1.30565537414
0.572323131042
0.278771741383
0.158753556732
0.106713802234
0.0805242716079
0.061765099827
0.0445854593258
0.030898725484
0.0215729154699
0.0159827642044
0.0130409247751
0.0115112948736
0.00993786644731
0.00810737970464
0.0055097385038
0.00286595505777
0.00127932586337
0.000494692891927
3.70170525231
1.39634318424
0.602717052205
0.291464854439
0.159658414827
0.101856821187
0.0730723312767
0.0544917222762
0.0399075896497
0.0285485906352
0.0205247748609
0.0155092750139
0.0127367971105
0.0111680388841
0.009450894371
0.00748134239237
0.00488843442531
0.00249971313351
0.00111083691752
0.000418851635339
4.11767557843
1.51899765786
0.663102960831
0.322470173857
0.172870330351
0.104267793947
0.070098859943
0.0502060757329
0.0365575299268
0.0265473848465
0.0194871321535
0.0149825225073
0.0123704740204
0.0107486975695
0.00890238849891
0.00682081982737
0.00428213299035
0.00215134916746
0.000947623051882
0.000345714086838
4.48630324456
1.61853033434
0.720586544386
0.354597216815
0.187413489532
0.108758549706
0.0695116433942
0.0477568801157
0.0341560231297
0.0248852061254
0.0185304886793
0.0144489818055
0.0119596594975
0.0102581276008
0.00828663608639
0.00612213684106
0.00370105841545
0.00182841806972
0.000790744417485
0.000277196666498
4.82754438995
1.70225086047
0.765497640226
0.375990733214
0.197530212422
0.11218617368
0.0692544478788
0.0459880446226
0.0322657148897
0.0234867474803
0.017684481289
0.0139248042953
0.011501379503
0.00969044319561
0.00761963848895
0.00542507946285
0.00316921546519
0.00153925451107
0.000640146129588
0.000215372437698
4.85088197955
1.72944287354
0.780067370634
0.38388726228
0.201803470159
0.113280333298
0.0683287840254
0.0442949910548
0.0306460678443
0.0223148599155
0.0169639056189
0.0133999276044
0.0109791396182
0.00905144353319
0.00696419429144
0.00479488944608
0.00270628441356
0.00128752999754
0.000506254688293
0.000162316994849
4.66905791086
1.67456268164
0.760065174677
0.377248371346
0.199569813517
0.111614462506
0.0665061852363
0.0425389596071
0.0292372574357
0.0213547759347
0.0163297893153
0.0128344399524
0.010373394008
0.00838909662784
0.00640762203818
0.00426351266316
0.00231502896968
0.001069982552
0.000392501242709
0.000123996802562
4.33581177317
1.55453534383
0.707263130945
0.355054432745
0.190434210791
0.107446496877
0.0640492496333
0.0408062594182
0.0280272522574
0.02053797199
0.0156644232775
0.0121579441387
0.0096656739034
0.00779986183954
0.00600660096782
0.00382997155623
0.00199067461256
0.000875139354996
0.000300691160708
0.000110757787739
3.86320738729
1.37061607214
0.627245933297
0.322339739187
0.177722651914
0.102380364486
0.0614470780585
0.0391465245193
0.0269141786397
0.0196887289406
0.01484166703
0.0112913274571
0.00886618349695
0.00737898026436
0.005741472131
0.0034824822941
0.00173048344375
0.000713424534466
0.000232425122609
9.23424719588e-05
3.19233475599
1.16709395364
0.552809009273
0.296005301503
0.168959606194
0.098935389269
0.0593558852429
0.037678065527
0.0258046774653
0.0186469345022
0.0137444137325
0.0101668517549
0.00808314140124
0.00711563295271
0.00552821070249
0.00320151995602
0.00153123894112
0.000597761614192
0.000189815627621
7.69086798083e-05
2.74297465225
1.03429744015
0.511210520087
0.286068673399
0.167558308392
0.0983914520101
0.0584723902473
0.0367501350852
0.0248401348793
0.0175482603544
0.0125195423492
0.00903915076309
0.00740921968392
0.00683334150331
0.0052821969212
0.00296875517226
0.00138716022847
0.000524898438036
0.000174071896926
6.72608549017e-05
4.5796062679e-05
7.38566049309e-05
9.90741181151e-05
0.000118907872546
0.00012794618192
0.000103694632229
6.31494666681e-05
4.83418633083e-05
0.000270975092261
0.00411604952875
0.0143729554736
0.0263020345569
0.039352513204
0.0550331967945
0.0778747938748
0.118194063054
9.73418097303e-05
4.05956480927e-05
2.42233793475e-05
2.81375470529e-05
4.5454332253e-05
7.36916897703e-05
9.91677213695e-05
0.000118724634449
0.00012751498492
0.000104414479959
6.39183994716e-05
4.86652337148e-05
0.000285890303733
0.00424022733265
0.0145805731747
0.0265759083272
0.0397090834668
0.0555278313471
0.078667492409
0.119728175561
9.77501567565e-05
4.07690808845e-05
2.44023667395e-05
2.82736662051e-05
4.53823014524e-05
7.38350002611e-05
9.96709711755e-05
0.00011894446899
0.000127300632776
0.000104973521597
6.45372794369e-05
4.89597950514e-05
0.000302187971168
0.00437269256916
0.0148007564009
0.0268621160054
0.0400758854679
0.0560302985279
0.0794687041501
0.121290638785
9.79152022608e-05
4.08894939068e-05
2.46152496147e-05
2.8525702778e-05
4.55973000586e-05
7.43469608119e-05
0.000100579442293
0.000119655938928
0.000127342257876
0.000105380393026
6.50038545582e-05
4.92227280601e-05
0.000319900343776
0.00451326775364
0.0150331896558
0.0271606256715
0.0404531262623
0.0565388653165
0.0802733792982
0.122883241997
9.78684074733e-05
4.09992915024e-05
2.48897842046e-05
2.89275668254e-05
4.61670266346e-05
7.53373717013e-05
0.000101950717445
0.000120907426842
0.000127837980281
0.000105657308138
6.53034849506e-05
4.94524527212e-05
0.000339039257503
0.00466173519907
0.0152774997324
0.0274710448527
0.0408405914825
0.0570530405186
0.0810801289491
0.124501416388
9.75839835417e-05
4.11518295464e-05
2.52522188195e-05
2.94922244685e-05
4.71023228766e-05
7.68376273769e-05
0.000103804650202
0.000122559607441
0.000128694773741
0.000105888785114
6.5447909007e-05
4.96502345797e-05
0.000359574567761
0.00481766892106
0.0155329088312
0.0277923768793
0.0412378498556
0.0575730598299
0.0818877992538
0.126137736917
9.70833795177e-05
4.14061614569e-05
2.57348408716e-05
3.02891641565e-05
4.85555377246e-05
7.90725969177e-05
0.000106385160296
0.000124874903516
0.000129999806222
0.000106108083446
6.54721716667e-05
4.98215618071e-05
0.00038139543002
0.00498010458866
0.0157976296946
0.0281224997486
0.0416438526692
0.0580994063972
0.0826954215792
0.12778213601
9.63526927577e-05
4.18577150233e-05
2.6387413298e-05
3.14370191332e-05
5.08825639937e-05
8.23442316431e-05
0.000109820232875
0.000128177154369
0.000132567655536
0.00010686860798
6.54795935922e-05
4.99792054445e-05
0.000404254310792
0.00514705395293
0.0160680221322
0.0284573941532
0.0420561984655
0.0586321673734
0.083502132295
0.129421354573
9.55669938402e-05
4.25325580354e-05
2.72591119408e-05
3.30462808964e-05
5.42704032124e-05
8.6664146562e-05
0.000114102264174
0.00013252875631
0.000136597242519
0.00010830945382
6.55583433932e-05
5.01451205182e-05
0.000427701136294
0.00531493276919
0.0163376646697
0.028790328301
0.0424703242504
0.0591702946748
0.0843069619592
0.131038828912
9.50550991492e-05
4.33799038749e-05
2.84094769622e-05
3.5292487938e-05
5.88495141249e-05
9.18821992752e-05
0.000119190532415
0.000138071560787
0.000142160816237
0.000110383005005
6.58154558744e-05
5.0350245784e-05
0.000451027915324
0.00547806550117
0.0165966352198
0.0291113118089
0.0428789093038
0.0597109372436
0.0851086578413
0.132615666262
9.58650364351e-05
4.44058510348e-05
2.9944743889e-05
3.84460139288e-05
6.44996875936e-05
9.76142067657e-05
0.000124944511365
0.000145026813145
0.000149331606977
0.00011310089723
6.6410445801e-05
5.06371777615e-05
0.000473257131479
0.00562851587207
0.0168313963126
0.0294071871906
0.0432717995998
0.0602490595509
0.0859056699737
0.134133075608
0.000105228800189
4.5958887631e-05
3.20674401842e-05
4.26559848285e-05
7.04397564859e-05
0.000103180093019
0.000131019472421
0.00015331395612
0.000157702903793
0.000116535487689
6.75582320651e-05
5.10630037492e-05
0.000493219883541
0.00575659031962
0.0170257868301
0.0296627755097
0.0436368060836
0.0607776449702
0.086696451027
0.135576377653
0.00012554464188
4.88202582776e-05
3.49693193047e-05
4.7254377538e-05
7.52788743824e-05
0.000107652679131
0.000136623742662
0.000161808285223
0.000166028625966
0.000120865138602
6.95211196712e-05
5.17031968511e-05
0.000509770844543
0.00585239348172
0.0171636175292
0.0298634266527
0.0439616950486
0.0612888209314
0.087480257754
0.136940227459
0.000144168992855
5.37747974935e-05
3.82205878371e-05
5.05116582047e-05
7.77149260194e-05
0.000109872589355
0.000140150385212
0.000167873115848
0.000172789019967
0.00012649145089
7.26035730232e-05
5.26555394644e-05
0.000522147109269
0.0059085325039
0.0172329105164
0.029998881908
0.0442373404347
0.0617760164211
0.0882584931742
0.138233837284
0.000165323718017
6.10668976364e-05
4.09759967306e-05
5.174024066e-05
7.76706790333e-05
0.000109085563015
0.000140083581404
0.000169993960582
0.000178689362401
0.00013413346807
7.70751482427e-05
5.40379013338e-05
0.000530381076909
0.0059233447853
0.0172308072534
0.0300675188993
0.0444613190099
0.0622367113716
0.0890362336501
0.139484149046
0.0001964182078
7.19613214228e-05
4.37793084583e-05
5.13697843279e-05
7.54742300899e-05
0.000105884763637
0.000137074964865
0.00016881605997
0.000182715255198
0.000142957207679
8.30477090443e-05
5.59733506405e-05
0.000535577978982
0.00590325243726
0.0171671672928
0.0300793223343
0.0446405962488
0.0626747624305
0.089823198221
0.140734857625
0.000217280305869
8.76179800846e-05
4.60695291542e-05
4.80251330264e-05
6.95821813106e-05
9.91095817969e-05
0.00012943305252
0.000160003086638
0.000179318834586
0.00015063233475
9.03542869779e-05
5.85555267496e-05
0.0005398814283
0.00586282358377
0.017064843284
0.0300559622141
0.0447918881115
0.0631011108151
0.0906333750936
0.142040375928
0.00023481049696
0.000106885956373
4.88675145989e-05
4.35283538048e-05
6.06189241994e-05
8.87685354955e-05
0.000117948979287
0.000145697050536
0.00016795598876
0.000154233527414
9.82802024485e-05
6.17893434306e-05
0.000546091957645
0.00582203106491
0.016955720294
0.0300272181413
0.0449389124562
0.063532055131
0.0914828711943
0.143455833817
0.000273413207625
0.000115316985987
5.25124465132e-05
4.04067272481e-05
5.17801742856e-05
7.68403288371e-05
0.00010565510831
0.000131504280211
0.00015295406907
0.000151558582035
0.000105345549225
6.55231364865e-05
0.000557085721908
0.00580162345435
0.0168735604453
0.0300245731904
0.0451071101224
0.0639853489726
0.0923863514612
0.145026222143
0.000296392991448
0.000108503879083
5.51607988938e-05
3.85649540856e-05
4.56045429047e-05
6.59421852994e-05
9.41895331808e-05
0.000119806039387
0.000139040071515
0.000143457435712
0.000109678398562
6.94065915243e-05
0.000575300905407
0.00581875123867
0.016846757002
0.0300746268542
0.0453180790506
0.0644758593709
0.0933535336156
0.146778661169
0.00030593719071
0.000106886012103
5.57338178295e-05
3.71206131037e-05
4.19944896606e-05
5.8110778746e-05
8.4356790295e-05
0.000110698956435
0.000128520331556
0.000133656094448
0.000110286318557
7.29312139929e-05
0.000602500379536
0.00588476250136
0.0168941791061
0.0301951696429
0.0455862001388
0.0650128663441
0.0943873950679
0.148720191522
0.000305257926278
0.000105945735266
5.46055543495e-05
3.58387004926e-05
3.99834192145e-05
5.36425889475e-05
7.70063082556e-05
0.000103957440384
0.000121509106469
0.000125468320057
0.000108002039337
7.56279102454e-05
0.000639839025012
0.00600541254963
0.0170249113328
0.0303947540675
0.0459182168363
0.065599716411
0.0954845234491
0.150840387917
0.000295929679283
0.000102273116549
5.25336909323e-05
3.48164415516e-05
3.90566730294e-05
5.17101851608e-05
7.26000765631e-05
9.95470171587e-05
0.000117369232526
0.000119999660164
0.000104660160218
7.73456085953e-05
0.000688144624805
0.00618240405856
0.0172404409937
0.0306745722146
0.0463147771435
0.0662350570269
0.0966367650847
0.153116221977
0.000278391962601
9.58684773937e-05
4.98629839934e-05
3.4145556432e-05
3.90359755289e-05
5.15138098934e-05
7.09217047259e-05
9.75054782881e-05
0.00011554754439
0.000116954526298
0.00010163957907
7.8329220336e-05
0.000748302512907
0.00641513534185
0.0175374868825
0.031031046396
0.0467725914629
0.0669145532491
0.0978331100482
0.155516917095
0.000254366233891
8.76252587906e-05
4.67479453427e-05
3.38136369835e-05
3.980004115e-05
5.25572908818e-05
7.14846892877e-05
9.77956212166e-05
0.000115699207732
0.000115758193131
9.9439372253e-05
7.90245406864e-05
0.000821757762227
0.00670213794168
0.01791046331
0.0314581850106
0.0472864044468
0.0676324416912
0.099061244612
0.158007744183
0.000226600584172
7.97693730758e-05
4.34444671015e-05
3.38443969806e-05
4.11954963947e-05
5.44568329412e-05
7.36097978684e-05
0.000100046619239
0.000117396789266
0.000115838192119
9.7957781786e-05
7.98844870927e-05
0.000910851264371
0.00704205463544
0.0183532727344
0.0319493454509
0.0478504619435
0.0683826744663
0.100308613517
0.160552520261
0.000197198757385
7.33846702538e-05
4.02425487707e-05
3.43572784415e-05
4.32080850715e-05
5.70713913093e-05
7.67933569769e-05
0.000103569229502
0.00011994466898
0.000116290736239
9.64329155663e-05
8.10159562809e-05
0.00101762716342
0.00743417048326
0.0188603657961
0.0324982640209
0.0484593265373
0.0691595375027
0.101562980048
0.163114865759
0.000167506653939
6.74265202512e-05
3.75118667808e-05
3.54363697823e-05
4.58304522409e-05
6.06005159293e-05
8.1816282071e-05
0.000109198363046
0.000123793514296
0.00011729836901
9.48646452249e-05
8.27053730557e-05
0.0011447342623
0.0078785250939
0.0194269623341
0.0330992161388
0.0491079053508
0.0699576145782
0.102812443295
0.165658393035
0.000138607015087
6.07093303689e-05
3.55025591081e-05
3.7111536317e-05
4.90262398388e-05
6.50454310159e-05
8.87599123317e-05
0.000116748735827
0.000128884637297
0.00011919386019
9.38660675397e-05
8.57847303729e-05
0.00129566847408
0.00837537714343
0.0200483901778
0.0337463281938
0.0497907336867
0.0707711213685
0.104044972603
0.168146295449
0.000111612682298
5.30364511519e-05
3.4369517812e-05
3.93803290993e-05
5.27692125205e-05
7.04652833926e-05
9.7350780455e-05
0.000125286044674
0.000134472820406
0.000121428572772
9.29412423096e-05
9.05174396168e-05
0.00147210125863
0.0089242014777
0.0207189319881
0.0344325007682
0.0505009511612
0.0715929796154
0.105247801798
0.170541140723
9.02299159467e-05
4.54987336087e-05
3.41904056647e-05
4.22107203792e-05
5.70832109567e-05
7.7207102728e-05
0.000107605467777
0.000134309219628
0.000140141346409
0.000123567229908
9.15149291677e-05
9.71833978176e-05
0.00167564315615
0.00952285229005
0.02143076309
0.0351485283794
0.0512294996267
0.0724140963935
0.106407106759
0.172805530388
7.9458472352e-05
3.94474976499e-05
3.49410498405e-05
4.55490553288e-05
6.21345749674e-05
8.59223157381e-05
0.000119488756551
0.000143566627386
0.000145814987047
0.000125561787148
8.9415145765e-05
0.000106439975804
0.00190860364513
0.0101664697956
0.0221733486726
0.0358827502305
0.0519648382398
0.0732231065228
0.107508155178
0.174903792485
6.76107629441e-05
3.55083758049e-05
3.64933327787e-05
4.9372341362e-05
6.83491637474e-05
9.72177102278e-05
0.000132312589962
0.000152727918012
0.00015153753629
0.000127478996191
8.66483425786e-05
0.000119114737249
0.00217285269219
0.0108468848627
0.0229335991043
0.0366214599867
0.0526933708148
0.0740067472387
0.108535995136
0.176804577054
5.40186146472e-05
3.35664246353e-05
3.86636363826e-05
5.37745158891e-05
7.63009086007e-05
0.000110690936439
0.000144741267799
0.0001614478899
0.000157418754208
0.000129248280892
8.32960047001e-05
0.000136064021108
0.0024690532254
0.0115529472646
0.0236969692677
0.0373501473074
0.0534006275195
0.07475090122
0.109476621603
0.178483936105
4.43930682185e-05
3.31352799224e-05
4.12901038175e-05
5.89185138552e-05
8.59941630802e-05
0.000124287998567
0.0001555264404
0.000169428715672
0.000163406906798
0.000130425604708
7.96102651215e-05
0.000158211595079
0.00279641329353
0.0122717500766
0.0244492650729
0.0380552360395
0.0540728677822
0.0754420020993
0.110318269155
0.179928085031
3.88693752857e-05
3.36633100493e-05
4.42343267228e-05
6.46562941212e-05
9.61338593862e-05
0.000135742783337
0.000164143299875
0.000176496618273
0.000169153272718
0.000130484778379
7.60891688006e-05
0.000186565135368
0.00315278190206
0.012990288583
0.0251783740862
0.0387255388455
0.0546983244851
0.0760680298701
0.111052103185
0.181134877921
3.61166422797e-05
3.47099910413e-05
4.72912856479e-05
7.0356480151e-05
0.000105088879845
0.000144309242864
0.000170383197635
0.000181677129933
0.000172941593752
0.000128731139291
7.31550170071e-05
0.000222112473759
0.0035346854558
0.0136962093053
0.0258746434077
0.0393523187912
0.0552667611274
0.0766167311477
0.111669842784
0.182113024843
3.48123854442e-05
3.59782507845e-05
5.01164534988e-05
7.48581371315e-05
0.000111015840266
0.000149577715761
0.000174462614031
0.000185397228312
0.000175432726047
0.000126380996871
7.11598877196e-05
0.000265650465881
0.00393311537114
0.0143686241389
0.0265210763621
0.0399195289566
0.0557601245763
0.0770648565696
0.112138277399
0.18286771879
)
;

boundaryField
{
    emptyPatch
    {
        type            empty;
    }
    minY
    {
        type            fixedValue;
        value           nonuniform List<scalar> 0();
    }
    maxY
    {
        type            inletOutlet;
        inletValue      uniform 1e-05;
        value           nonuniform List<scalar> 
40
(
2.74297465225
1.03429744015
0.511210520087
0.286068673399
0.167558308392
0.0983914520101
0.0584723902473
0.0367501350852
0.0248401348793
0.0175482603544
0.0125195423492
0.00903915076309
0.00740921968392
0.00683334150331
0.0052821969212
0.00296875517226
0.00138716022847
0.000524898438036
0.000174071896926
6.72608549017e-05
3.48123854442e-05
3.59782507845e-05
5.01164534988e-05
7.48581371315e-05
0.000111015840266
0.000149577715761
0.000174462614031
0.000185397228312
0.000175432726047
0.000126380996871
7.11598877196e-05
0.000265650465881
0.00393311537114
0.0143686241389
0.0265210763621
0.0399195289566
0.0557601245763
0.0770648565696
0.112138277399
0.18286771879
)
;
    }
    maxX
    {
        type            kqRWallFunction;
        value           nonuniform List<scalar> 
38
(
0.118194063054
0.119728175561
0.121290638785
0.122883241997
0.124501416388
0.126137736917
0.12778213601
0.129421354573
0.131038828912
0.132615666262
0.134133075608
0.135576377653
0.136940227459
0.138233837284
0.139484149046
0.140734857625
0.142040375928
0.143455833817
0.145026222143
0.146778661169
0.148720191522
0.150840387917
0.153116221977
0.155516917095
0.158007744183
0.160552520261
0.163114865759
0.165658393035
0.168146295449
0.170541140723
0.172805530388
0.174903792485
0.176804577054
0.178483936105
0.179928085031
0.181134877921
0.182113024843
0.18286771879
)
;
    }
    water_to_heater
    {
        type            kqRWallFunction;
        value           nonuniform List<scalar> 
59
(
2.02406599578
2.02406599578
2.00073446093
1.9858783355
2.04011389103
2.04011389103
2.05104172372
2.05104172372
2.05535265196
2.05535265196
2.03982635835
1.99191820234
1.94085077596
1.94085077596
1.92816183154
1.92816183154
1.99086474351
1.99086474351
2.06783110686
2.05942528013
1.99258335141
1.99258335141
1.9541837197
1.9541837197
1.98553664019
1.98553664019
2.06018087131
2.16780951372
2.45263924401
2.45263924401
2.81002253365
2.81002253365
3.15660980812
3.15660980812
3.27556635471
3.2419544945
3.15940616258
3.15940616258
3.10612051073
3.10612051073
3.14960234172
3.14960234172
3.35069390236
3.70170525231
4.11767557843
4.11767557843
4.48630324456
4.48630324456
4.82754438995
4.82754438995
4.85088197955
4.66905791086
4.33581177317
4.33581177317
3.86320738729
3.86320738729
3.19233475599
3.19233475599
2.74297465225
)
;
    }
    procBoundary0to1
    {
        type            processor;
        value           nonuniform List<scalar> 
41
(
2.04146169013
0.992588658146
0.555331379867
0.422829280022
0.362566689367
0.297744899796
0.166407713257
0.0836143915044
0.0456059274515
0.0280363585441
0.0193991543338
0.015101677444
0.0128902192961
0.0114949869404
0.00925325300899
0.00675334511692
0.00459745929583
0.00254052888363
0.00103033090161
0.000348815584915
4.64103396101e-05
7.43293929765e-05
9.93736813342e-05
0.000119488675167
0.000128602112777
0.000102767512889
6.22306062605e-05
4.79928884736e-05
0.000257396576613
0.00400033142323
0.0141783111817
0.02604038316
0.0390045122375
0.0545425280783
0.0770851677693
0.11668520677
9.65769520149e-05
4.03269524045e-05
2.40606406063e-05
2.81083613953e-05
2.81083613953e-05
)
;
    }
}


// ************************************************************************* //
