/*--------------------------------*- C++ -*----------------------------------*\
| =========                 |                                                 |
| \\      /  F ield         | OpenFOAM: The Open Source CFD Toolbox           |
|  \\    /   O peration     | Version:  2312                                  |
|   \\  /    A nd           | Website:  www.openfoam.com                      |
|    \\/     M anipulation  |                                                 |
\*---------------------------------------------------------------------------*/
FoamFile
{
    version     2.0;
    format      ascii;
    arch        "LSB;label=32;scalar=64";
    class       surfaceScalarField;
    location    "0.17/water";
    object      phi.gas;
}
// * * * * * * * * * * * * * * * * * * * * * * * * * * * * * * * * * * * * * //

dimensions      [0 3 -1 0 0 0 0];

oriented        oriented;

internalField   nonuniform List<scalar> 
11810
(
3.44919635369e-07
3.15640238089e-07
2.3959069574e-07
2.11402979204e-07
3.15628024452e-07
1.94124565885e-07
2.92537597934e-07
1.83541981726e-07
3.05361974053e-07
1.85631967226e-07
2.9633509026e-07
1.89547121039e-07
2.4532036326e-07
1.95690656987e-07
2.06651662979e-07
2.15823859154e-07
2.2196360487e-07
3.50211861928e-07
1.90799566772e-07
4.22773893475e-07
1.72302301599e-07
4.48046537433e-07
1.53671211699e-07
4.71929503957e-07
1.36234655637e-07
4.97092328673e-07
1.19614294601e-07
5.23509349337e-07
1.03645464475e-07
5.51234245008e-07
8.81789744449e-08
5.80288118757e-07
7.30732966095e-08
6.10681149011e-07
5.82392886171e-08
6.42415067418e-07
4.37113344808e-08
6.75482041636e-07
7.09874526303e-07
2.96804379587e-08
1.44221655657e-07
3.34741116763e-07
2.44626416448e-07
2.64985418879e-07
2.42478489556e-07
2.43084237155e-07
2.76082916269e-07
2.36256129884e-07
2.773155408e-07
2.36971782396e-07
2.80929302058e-07
2.42857028893e-07
2.67391214507e-07
2.51575719552e-07
2.34455348788e-07
2.65307991468e-07
1.14632064296e-07
3.20188776057e-07
5.43766050052e-08
3.62006792578e-07
4.64311278033e-08
3.76415464811e-07
4.03338202052e-08
3.93130871597e-07
3.49490989082e-08
4.10835613818e-07
3.0030159904e-08
4.29525399004e-07
2.54430696164e-08
4.49252719041e-07
2.11434021149e-08
4.70092809121e-07
1.71174540058e-08
4.92123181913e-07
1.33483194429e-08
5.15418734576e-07
9.81567150274e-09
5.40052833537e-07
5.66101362388e-07
6.52447683391e-09
1.6277030501e-07
4.0778794095e-07
2.0640634444e-07
3.23398132961e-07
2.18776395214e-07
2.89036730185e-07
2.35676491301e-07
2.76962991284e-07
2.42739551017e-07
2.75391772156e-07
2.4492874304e-07
2.79183011383e-07
2.41661201746e-07
2.86545599308e-07
2.25728408024e-07
2.98193647799e-07
1.64333449278e-07
3.30505049355e-07
4.47275119924e-08
3.69346174936e-07
3.39276419217e-08
3.91098137993e-07
3.11255210175e-08
4.09283595307e-07
2.82011039233e-08
4.28436776587e-07
2.53512290919e-08
4.48587301844e-07
2.24714178115e-08
4.6974408782e-07
1.94777491815e-08
4.91962282398e-07
1.63509863668e-08
5.15320562342e-07
1.31102056704e-08
5.39907162885e-07
9.80632811871e-09
5.6581343915e-07
5.93134348917e-07
6.56762213587e-09
2.23178513909e-07
4.41739199818e-07
2.3852527304e-07
3.71626246871e-07
2.41871846311e-07
3.24955596196e-07
2.44481603578e-07
3.06656390891e-07
2.40532711225e-07
3.01417007019e-07
2.33811952405e-07
3.03097690063e-07
2.25114495855e-07
3.08854992448e-07
2.11644797255e-07
3.18297515287e-07
1.83767611206e-07
3.38725046535e-07
7.82318784613e-08
3.66288595458e-07
1.99950167671e-08
3.89186026451e-07
1.92943789805e-08
4.07537404454e-07
1.80051606856e-08
4.26767253427e-07
1.65275738196e-08
4.47007081888e-07
1.49611116657e-08
4.6824419616e-07
1.32512745198e-08
4.90511343381e-07
1.13425612585e-08
5.1387325636e-07
9.21499523147e-09
5.38415709203e-07
6.90123341104e-09
5.64237139594e-07
5.9144458573e-07
4.54571434509e-09
2.63287407741e-07
4.59941564215e-07
2.76670036643e-07
4.06676725967e-07
2.70097601196e-07
3.58282746562e-07
2.66116396585e-07
3.31570354452e-07
2.5610305882e-07
3.22286288651e-07
2.42320030179e-07
3.21352687565e-07
2.25921598758e-07
3.25289052056e-07
2.0809153769e-07
3.3286371461e-07
1.84876865263e-07
3.4720208482e-07
1.30114029473e-07
3.67881568546e-07
1.74414731013e-08
3.89294535027e-07
1.24616573808e-08
4.08334249556e-07
1.18140709265e-08
4.27770900596e-07
1.08459391446e-08
4.48251423527e-07
9.78100725786e-09
4.69756297779e-07
8.63459338876e-09
4.92300632074e-07
7.35550205639e-09
5.15933093105e-07
5.89914701796e-09
5.40727439858e-07
4.2698388324e-09
5.66775392382e-07
5.94181243169e-07
2.59528124454e-09
2.9064189435e-07
4.65533908578e-07
3.02033975814e-07
4.28598557957e-07
2.90095516234e-07
3.87289704751e-07
2.82346565442e-07
3.54810114904e-07
2.72732931961e-07
3.40411124435e-07
2.58486786448e-07
3.36553458871e-07
2.38795801685e-07
3.38438419864e-07
2.15702345612e-07
3.44160415239e-07
1.90431031293e-07
3.54774358439e-07
1.56212394252e-07
3.70655505079e-07
4.93733893409e-08
3.8949613733e-07
8.61362243296e-09
4.0869144398e-07
8.32176976891e-09
4.28180807296e-07
7.55478141394e-09
4.48794630745e-07
6.65567292789e-09
4.70457244273e-07
5.70576186721e-09
4.93177723989e-07
4.68464705679e-09
5.16993985352e-07
3.54952309314e-09
5.41969443464e-07
2.29111549287e-09
5.68187433652e-07
5.95745572866e-07
1.02746913868e-09
2.96000378158e-07
4.66990937375e-07
3.05728210842e-07
4.40026758498e-07
2.95564996491e-07
4.07503998108e-07
2.85023046471e-07
3.77321869149e-07
2.77822805815e-07
3.57228512969e-07
2.68474580842e-07
3.50055911299e-07
2.52179666843e-07
3.49730636733e-07
2.2873262299e-07
3.53562319213e-07
2.01593213916e-07
3.61493259518e-07
1.70566527213e-07
3.740606798e-07
1.09756475636e-07
3.90455181729e-07
6.85006580611e-09
4.08408206882e-07
6.44542921537e-09
4.28744926393e-07
5.85269670076e-09
4.49432020101e-07
5.04368960198e-09
4.71218541171e-07
4.1579054641e-09
4.94086170066e-07
3.21420433275e-09
5.18062485122e-07
2.18687812615e-09
5.43200896908e-07
1.06931440955e-09
5.69575274836e-07
5.9727753487e-07
-2.06414146863e-11
2.85319179652e-07
4.69774825085e-07
2.94700409348e-07
4.47105837705e-07
2.88927905071e-07
4.21134492112e-07
2.80152073691e-07
3.95565551876e-07
2.74982184248e-07
3.74257082189e-07
2.70785627701e-07
3.63005042567e-07
2.60958722412e-07
3.60505000761e-07
2.41630902063e-07
3.62327917509e-07
2.15040639759e-07
3.6787328468e-07
1.85358958778e-07
3.77822204945e-07
1.46307819021e-07
3.92036762832e-07
3.4932734459e-08
4.09325804422e-07
5.85002389386e-09
4.28982946682e-07
5.51874335171e-09
4.50010621644e-07
4.74361237216e-09
4.71940338017e-07
3.81388631006e-09
4.94965733378e-07
2.79650710348e-09
5.19103997382e-07
1.69482356988e-09
5.4439906647e-07
5.28219373904e-10
5.70918488391e-07
5.98744993003e-07
-6.04656623741e-10
2.8475726122e-07
4.70218927408e-07
2.99269410573e-07
4.50413613945e-07
2.89584140061e-07
4.30668690549e-07
2.82002832255e-07
4.10583323081e-07
2.75970053666e-07
3.92079504453e-07
2.73586791222e-07
3.77986212855e-07
2.68533313002e-07
3.72572215392e-07
2.54187926619e-07
3.72025243996e-07
2.30108847958e-07
3.75122951296e-07
2.0138110112e-07
3.82557223157e-07
1.68503552123e-07
3.94765938741e-07
1.05422658538e-07
4.10917013524e-07
7.26849607439e-09
4.28009914725e-07
7.25833147433e-09
4.50668849055e-07
6.15040741403e-09
4.728111908e-07
4.83586369495e-09
4.9602938927e-07
3.42966987273e-09
5.2033577831e-07
1.97579392056e-09
5.45773665061e-07
4.96388483268e-10
5.72406123671e-07
6.00312722921e-07
-9.1632403707e-10
2.81325928166e-07
4.70241148215e-07
3.03347291205e-07
4.51397627939e-07
2.92920390525e-07
4.36904574995e-07
2.87272039419e-07
4.22874885035e-07
2.8200922134e-07
4.09108222944e-07
2.7867568853e-07
3.95845647405e-07
2.74696664053e-07
3.86801158268e-07
2.64395179948e-07
3.83618137442e-07
2.43958111643e-07
3.84157921055e-07
2.1673534449e-07
3.89023388357e-07
1.87681831334e-07
3.99111183988e-07
1.46939837914e-07
4.13746954521e-07
3.51226503021e-08
4.31149819386e-07
1.17772344987e-08
4.5203464419e-07
9.46053792628e-09
4.74430711842e-07
7.07538058081e-09
4.97737722687e-07
4.76788563127e-09
5.22105862307e-07
2.56564553301e-09
5.47575654929e-07
4.73231269414e-10
5.74212405305e-07
6.02100521165e-07
-1.41508968893e-09
2.7287597501e-07
4.71142741092e-07
3.03143875615e-07
4.51692018072e-07
2.95516459788e-07
4.41824187259e-07
2.92614358642e-07
4.34087930084e-07
2.87802629618e-07
4.2606133586e-07
2.82235434185e-07
4.15662333537e-07
2.77065023917e-07
4.04184747243e-07
2.69453092796e-07
3.97739544847e-07
2.53201676658e-07
3.95672915205e-07
2.28509566194e-07
3.97859976671e-07
2.00916162215e-07
4.05438403838e-07
1.67848122249e-07
4.18278006253e-07
9.56244760858e-08
4.35244108474e-07
1.67828780267e-08
4.53602241431e-07
1.28022217213e-08
4.77283403613e-07
8.83385813358e-09
5.00433275584e-07
5.28752785445e-09
5.24634923038e-07
2.14061869019e-09
5.49930579487e-07
-6.35577194778e-10
5.76389777561e-07
6.0409954437e-07
-3.00475532745e-09
2.61181816049e-07
4.75362962745e-07
2.98872504473e-07
4.54530319238e-07
2.94104376069e-07
4.48118967258e-07
2.92126715215e-07
4.46197373971e-07
2.86835687544e-07
4.43776725034e-07
2.80096626666e-07
4.36573260948e-07
2.73347989726e-07
4.24429225562e-07
2.66690044016e-07
4.13959228367e-07
2.54369715427e-07
4.09460044273e-07
2.32562296364e-07
4.08979163633e-07
2.05407566663e-07
4.13588252924e-07
1.75682871219e-07
4.2398946611e-07
1.29029915414e-07
4.39171800648e-07
2.29004922344e-08
4.58489313518e-07
1.20809308915e-08
4.81399299949e-07
6.73642328345e-09
5.04044559671e-07
2.28169137765e-09
5.27741814889e-07
-1.41902922747e-09
5.52588777227e-07
-4.4708043798e-09
5.78651362672e-07
6.06013977304e-07
-6.91899790283e-09
2.5037500234e-07
4.86549911851e-07
2.87384543574e-07
4.63952044207e-07
2.81974457289e-07
4.58552175137e-07
2.78503632254e-07
4.60382695662e-07
2.72492191687e-07
4.62131134974e-07
2.6632441778e-07
4.57179918425e-07
2.60072504206e-07
4.44839137126e-07
2.54361413224e-07
4.30983565552e-07
2.4455246621e-07
4.23674805339e-07
2.25061889255e-07
4.20497386571e-07
1.98344985735e-07
4.21965749873e-07
1.6941213664e-07
4.29367547364e-07
1.32260032492e-07
4.42183145696e-07
4.26052282554e-08
4.60425547989e-07
1.42970178144e-09
4.85498023069e-07
-3.55235546186e-09
5.07442659321e-07
-7.40152695412e-09
5.30410368788e-07
-1.03539864194e-08
5.54650636108e-07
-1.25739463962e-08
5.80216292501e-07
6.07180550786e-07
-1.41708880142e-08
2.61889366703e-07
5.02729669766e-07
2.89758352535e-07
4.797949568e-07
2.69343504684e-07
4.74052400999e-07
2.5655120727e-07
4.76935137045e-07
2.47380667846e-07
4.79895753314e-07
2.43290396059e-07
4.7514427558e-07
2.40084622545e-07
4.6242779481e-07
2.3507968799e-07
4.46610257728e-07
2.25837447002e-07
4.35288927477e-07
2.08067601896e-07
4.29453699741e-07
1.81644025705e-07
4.27849819555e-07
1.51410277228e-07
4.32187324408e-07
1.18185159768e-07
4.4243814304e-07
6.55605335256e-08
4.58275777191e-07
-2.2716441387e-08
4.84223306766e-07
-2.4487511014e-08
5.08568894247e-07
-2.51929678372e-08
5.30931740059e-07
-2.53664539456e-08
5.54723293873e-07
-2.51536997954e-08
5.79982225569e-07
6.06745836682e-07
-2.464752234e-08
2.76652631267e-07
5.21848038943e-07
2.77335406808e-07
4.96887939078e-07
2.43427102656e-07
4.89309214492e-07
2.21943500244e-07
4.90917761269e-07
2.13515040061e-07
4.92115855274e-07
2.14771931138e-07
4.85970320128e-07
2.16529035839e-07
4.73077826247e-07
2.13297912981e-07
4.57140787564e-07
2.05287187021e-07
4.42602301634e-07
1.90262113928e-07
4.3334532308e-07
1.65337443998e-07
4.29175376512e-07
1.33797025098e-07
4.30896224839e-07
1.02237413566e-07
4.38968568937e-07
6.5037298872e-08
4.52862842174e-07
-3.0985843719e-08
4.73894254297e-07
-5.35514516189e-08
5.05453204943e-07
-4.85323357971e-08
5.27488277588e-07
-4.39973458116e-08
5.51573654405e-07
-3.99685628145e-08
5.77096922746e-07
6.04140955312e-07
-3.63726058108e-08
2.71496239688e-07
5.33490860009e-07
2.48691002662e-07
5.08453646574e-07
2.14590940284e-07
4.99325212183e-07
1.94474211307e-07
4.98871486811e-07
1.90527445191e-07
4.97451463453e-07
1.96741658844e-07
4.89759511399e-07
2.0301406573e-07
4.77040533189e-07
2.04144257064e-07
4.61966053564e-07
1.99021077842e-07
4.47168770608e-07
1.87043057692e-07
4.35202684973e-07
1.65310116434e-07
4.28588341797e-07
1.33354994628e-07
4.27904007277e-07
9.86587643587e-08
4.33859264539e-07
6.67276124708e-08
4.46270398008e-07
1.71425064963e-08
4.64996555108e-07
-8.09145199087e-08
4.91545001628e-07
-6.95568382885e-08
5.20468290124e-07
-6.00987010529e-08
5.45382547904e-07
-5.22176415233e-08
5.71842094947e-07
5.99695773924e-07
-4.56166683269e-08
2.63208190794e-07
5.40348988896e-07
2.43179482215e-07
5.17702764452e-07
2.15085332452e-07
5.08412907322e-07
1.98481259499e-07
5.06387740082e-07
1.95845550181e-07
5.02705597011e-07
2.02935133646e-07
4.93498805966e-07
2.1156371945e-07
4.80664575621e-07
2.16437616689e-07
4.66377548328e-07
2.15466649161e-07
4.52355052868e-07
2.06091822421e-07
4.40208636214e-07
1.85700450954e-07
4.31748616947e-07
1.54726536831e-07
4.28200179819e-07
1.17477067879e-07
4.31209641033e-07
8.46942001322e-08
4.41480830077e-07
5.09753644371e-08
4.58665123603e-07
-4.63947592511e-08
4.81942993197e-07
-7.84120253687e-08
5.12170976436e-07
-6.63900360814e-08
5.38252083469e-07
-5.65491239485e-08
5.65891186175e-07
5.94743489242e-07
-4.84414455643e-08
2.58604066448e-07
5.47900041274e-07
2.42579633117e-07
5.25623430803e-07
2.20088918541e-07
5.16257142046e-07
2.08193785215e-07
5.13252142905e-07
2.08488870889e-07
5.08287403437e-07
2.17988720438e-07
4.98325115295e-07
2.29750180633e-07
4.85605152886e-07
2.38795882998e-07
4.71989116197e-07
2.41853256409e-07
4.58892520133e-07
2.34858520849e-07
4.48140829813e-07
2.14066141775e-07
4.39783300414e-07
1.83188888101e-07
4.33740454254e-07
1.47884474303e-07
4.33178724706e-07
1.13725264923e-07
4.40525880528e-07
8.54946949986e-08
4.56074253446e-07
3.77581730583e-08
4.77626369711e-07
-6.9211433021e-08
5.01569911398e-07
-5.91073248484e-08
5.32643591789e-07
-5.02067664842e-08
5.61136668762e-07
5.90817942155e-07
-4.28558093192e-08
2.59414443922e-07
5.50612264751e-07
2.49424963375e-07
5.29165398053e-07
2.24953707513e-07
5.21699035646e-07
2.14848323013e-07
5.1849539593e-07
2.17455703538e-07
5.12690790516e-07
2.29482639018e-07
5.02475352442e-07
2.44195915258e-07
4.90261579978e-07
2.57664500582e-07
4.77715957536e-07
2.66150843972e-07
4.6653250679e-07
2.61584622446e-07
4.5821028699e-07
2.39346905744e-07
4.51195699607e-07
2.08016877166e-07
4.44507704769e-07
1.76247101042e-07
4.40664386272e-07
1.4553453054e-07
4.44710618274e-07
1.22047981641e-07
4.57890236884e-07
9.22321964437e-08
4.78079938351e-07
-1.43613699612e-08
5.00641104104e-07
-3.89802136625e-08
5.29908868588e-07
-3.39153760461e-08
5.58970422504e-07
5.89060194625e-07
-2.9561448454e-08
2.55404503784e-07
5.5178178542e-07
2.49591395912e-07
5.30054109424e-07
2.24874204273e-07
5.24539375768e-07
2.15971023586e-07
5.2184790604e-07
2.20104127926e-07
5.15656952756e-07
2.34766037564e-07
5.05667087481e-07
2.54243350116e-07
4.94551592321e-07
2.74468148686e-07
4.84054069827e-07
2.86251284663e-07
4.76360459876e-07
2.81942261428e-07
4.70867199266e-07
2.60351623897e-07
4.65306476339e-07
2.27443309155e-07
4.59296339385e-07
1.96689281476e-07
4.53043529989e-07
1.71343357636e-07
4.53993802843e-07
1.50559086474e-07
4.64252393663e-07
1.28500861444e-07
4.82810083028e-07
6.4198130637e-08
5.05422407926e-07
-1.09541402481e-08
5.29822964951e-07
-1.1663650277e-08
5.59886429305e-07
5.8990607378e-07
-1.17315063977e-08
2.4805523617e-07
5.55769674612e-07
2.46057189941e-07
5.31802827346e-07
2.21365670046e-07
5.2712390457e-07
2.15027670242e-07
5.24564502924e-07
2.22150662901e-07
5.18238214335e-07
2.4139691477e-07
5.08879942413e-07
2.67295173376e-07
4.99434788125e-07
2.90773891384e-07
4.92293423134e-07
3.00903427138e-07
4.88710527187e-07
2.96460595594e-07
4.85871589691e-07
2.75863297871e-07
4.81952514663e-07
2.41333059261e-07
4.7694632735e-07
2.09918147724e-07
4.69554385235e-07
1.87969914125e-07
4.67536992759e-07
1.69922224394e-07
4.74527175595e-07
1.52064104541e-07
4.9074619762e-07
1.12004626058e-07
5.12496559341e-07
1.91910022681e-08
5.3232291479e-07
1.0670980116e-08
5.63556306857e-07
5.93105392834e-07
6.03974383858e-09
2.35348842908e-07
5.63861191769e-07
2.35222546813e-07
5.36045096963e-07
2.14710708362e-07
5.30042408425e-07
2.14358080013e-07
5.26933665821e-07
2.27412918651e-07
5.21010818353e-07
2.52717675017e-07
5.13001932506e-07
2.82640985475e-07
5.05970417537e-07
3.02275448512e-07
5.03082840352e-07
3.09059254221e-07
5.03038409953e-07
3.05942495542e-07
5.02851831415e-07
2.86318269498e-07
5.008945356e-07
2.50975754697e-07
4.97621705507e-07
2.17678224097e-07
4.89974161029e-07
1.96599567325e-07
4.8469542124e-07
1.79965400558e-07
4.87844095304e-07
1.63389163063e-07
5.00845368432e-07
1.32305767893e-07
5.20869487181e-07
4.45657003734e-08
5.38166410472e-07
2.72445738991e-08
5.69146640942e-07
5.97919865836e-07
1.91992772708e-08
2.1850078775e-07
5.81019544119e-07
2.20650745883e-07
5.4499044163e-07
2.06305820674e-07
5.34012158015e-07
2.13888405571e-07
5.28993999159e-07
2.34300738031e-07
5.23939730685e-07
2.64923669607e-07
5.1813770437e-07
2.91108719133e-07
5.14342178562e-07
3.05479876982e-07
5.15540682345e-07
3.12908766384e-07
5.1860995685e-07
3.11125246417e-07
5.20926651992e-07
2.94042519661e-07
5.21510485977e-07
2.57541331777e-07
5.21446932137e-07
2.19765735788e-07
5.13888278433e-07
1.97459094013e-07
5.04073150367e-07
1.80873811915e-07
5.02878823327e-07
1.62285888197e-07
5.11523220354e-07
1.32951170263e-07
5.28732094414e-07
5.72810673515e-08
5.4671599809e-07
3.38458611361e-08
5.75493975079e-07
6.03281397464e-07
2.44656054196e-08
2.18603954668e-07
5.97421778741e-07
2.28358202058e-07
5.54642151998e-07
2.11873977166e-07
5.39695989086e-07
2.2132291946e-07
5.32710066052e-07
2.44062505255e-07
5.28499253299e-07
2.73603524856e-07
5.24983367334e-07
2.93688069268e-07
5.24490452597e-07
3.06480433497e-07
5.28599407492e-07
3.15800241999e-07
5.34036968817e-07
3.16454449895e-07
5.38540683191e-07
3.01856679034e-07
5.42032799077e-07
2.59194587823e-07
5.45075360008e-07
2.14955781317e-07
5.38378222223e-07
1.91186436428e-07
5.23284455505e-07
1.73069213187e-07
5.17340826781e-07
1.5038392237e-07
5.20555535303e-07
1.19057804591e-07
5.34082289698e-07
5.57562521626e-08
5.54356149712e-07
2.88945440375e-08
5.80748791619e-07
6.07781239397e-07
2.06246627716e-08
2.24248645065e-07
6.10524952991e-07
2.45006402062e-07
5.62793162141e-07
2.27413500621e-07
5.46458167864e-07
2.3457909364e-07
5.39334423455e-07
2.54185921335e-07
5.3621144116e-07
2.77633497205e-07
5.34347127432e-07
2.94021932605e-07
5.36026086105e-07
3.08249514376e-07
5.41943934703e-07
3.18843220376e-07
5.48777441241e-07
3.22497534906e-07
5.55081637327e-07
2.98082495519e-07
5.60735756907e-07
2.47665011831e-07
5.63387930205e-07
2.09423215502e-07
5.59431212913e-07
1.83775563814e-07
5.44557108602e-07
1.60700920106e-07
5.29911543512e-07
1.33080625547e-07
5.27263082865e-07
9.82847948029e-08
5.36346282807e-07
4.6648267307e-08
5.55972927235e-07
1.49446118118e-08
5.83506975972e-07
6.10485143396e-07
9.2564086993e-09
2.31125308393e-07
6.18385113243e-07
2.6355621392e-07
5.69666774616e-07
2.45721227651e-07
5.55648803936e-07
2.48474780166e-07
5.5107423286e-07
2.62247236559e-07
5.49610293414e-07
2.80421150175e-07
5.48534717531e-07
2.95328254903e-07
5.50602414338e-07
3.08309178568e-07
5.56963542391e-07
3.18167989848e-07
5.64381637311e-07
3.10770459605e-07
5.71609028616e-07
2.73296563642e-07
5.76694827364e-07
2.35974638791e-07
5.77466030647e-07
2.05354547112e-07
5.74551408657e-07
1.74274451305e-07
5.64930794799e-07
1.47327537005e-07
5.43301047666e-07
1.15705730761e-07
5.33246183695e-07
7.84817030565e-08
5.36907892735e-07
3.32673698733e-08
5.5377325215e-07
-3.91348996901e-09
5.83374933065e-07
6.117076351e-07
-6.79696186332e-09
2.38224223649e-07
6.24225639656e-07
2.78871229203e-07
5.79256987022e-07
2.59254850757e-07
5.70514771306e-07
2.56898569592e-07
5.70939000828e-07
2.65709524691e-07
5.71314036146e-07
2.79776058648e-07
5.69293950129e-07
2.9057449129e-07
5.69570831821e-07
2.98699928914e-07
5.74653083082e-07
2.96172246476e-07
5.80555042253e-07
2.68870944802e-07
5.85079056905e-07
2.39283461032e-07
5.86659958826e-07
2.1722687356e-07
5.86276908177e-07
1.90863592975e-07
5.8414525634e-07
1.64686411448e-07
5.78252635927e-07
1.33800287812e-07
5.59031344622e-07
9.92143893339e-08
5.37457429161e-07
6.11771158896e-08
5.36028269123e-07
1.84563758507e-08
5.49634540674e-07
-2.86979167929e-08
5.77500688852e-07
6.115572697e-07
-2.65667475439e-08
2.4540268894e-07
6.34943330258e-07
2.80623704264e-07
5.95930725908e-07
2.57510940675e-07
5.93600675576e-07
2.47949837396e-07
6.0035808422e-07
2.49476933581e-07
6.00653274858e-07
2.57253506101e-07
5.93927832525e-07
2.59770407092e-07
5.89846415053e-07
2.52444138969e-07
5.9094796146e-07
2.31090046001e-07
5.92199391242e-07
2.10220524951e-07
5.91302654514e-07
2.00650160664e-07
5.88873181416e-07
1.87546414176e-07
5.87762762445e-07
1.69923898988e-07
5.87346089669e-07
1.47488267929e-07
5.84220866686e-07
1.18882112758e-07
5.71807557574e-07
8.74029961981e-08
5.41702093832e-07
4.84381976358e-08
5.34766159108e-07
7.24483475239e-09
5.44672923233e-07
-4.22083907864e-08
5.67864186807e-07
6.10397432048e-07
-5.04380445089e-08
2.72128407344e-07
6.41397511523e-07
2.89987845811e-07
6.15197882763e-07
2.43607841983e-07
6.24287502444e-07
2.10191386393e-07
6.38996090576e-07
1.94465328326e-07
6.34826915756e-07
1.90306925198e-07
6.17881880322e-07
1.80762762128e-07
6.06989483459e-07
1.65916170783e-07
6.02599858756e-07
1.54773916207e-07
5.97613471764e-07
1.54125085461e-07
5.90365735629e-07
1.55817980949e-07
5.84064672446e-07
1.53811534918e-07
5.82568931429e-07
1.4443545555e-07
5.84690230194e-07
1.27979683543e-07
5.850022839e-07
1.0864571872e-07
5.77097625571e-07
8.11461453228e-08
5.47418508577e-07
4.23373257056e-08
5.32676389538e-07
3.01083262924e-09
5.38753219894e-07
-3.67574431272e-08
5.58517963921e-07
6.01256336543e-07
-8.07207475644e-08
2.9507688944e-07
6.39186874854e-07
2.75200313861e-07
6.32205167931e-07
2.01456713721e-07
6.59347956329e-07
1.41166791205e-07
6.83723326536e-07
1.08614460639e-07
6.70377817003e-07
9.69265219701e-08
6.38933533024e-07
8.9922798059e-08
6.18564675264e-07
8.80794179164e-08
6.07184454151e-07
9.41256733932e-08
5.95730041375e-07
1.06214566217e-07
5.83499644747e-07
1.17848790317e-07
5.75681121105e-07
1.23384908355e-07
5.73010052945e-07
1.22593161087e-07
5.75280280986e-07
1.14519443693e-07
5.79182955025e-07
1.01096452696e-07
5.75390416943e-07
7.84360207621e-08
5.51499338536e-07
4.40881767559e-08
5.29307177504e-07
5.27402251996e-09
5.31720227028e-07
-2.92849687695e-08
5.48911270108e-07
5.79432845022e-07
-1.09431321685e-07
2.93038505175e-07
6.34154554182e-07
2.35648200382e-07
6.47048671362e-07
1.56292870108e-07
6.95756177737e-07
9.0295494757e-08
7.28945296006e-07
5.10271874059e-08
7.03732107461e-07
3.69645139147e-08
6.57062670464e-07
3.79167671134e-08
6.24984698661e-07
4.76051623855e-08
6.05538756411e-07
6.3015294305e-08
5.88665749922e-07
8.13826798961e-08
5.73653097134e-07
9.66981533304e-08
5.66289981176e-07
1.04963377584e-07
5.62971426221e-07
1.09315063291e-07
5.62838738811e-07
1.0818058707e-07
5.68056327184e-07
9.91188024149e-08
5.68672159272e-07
8.26037275995e-08
5.51489748506e-07
5.54113709922e-08
5.26355430503e-07
1.68793585132e-08
5.2507675983e-07
-1.63957951163e-08
5.39708037484e-07
5.65098877785e-07
-7.20825852859e-08
2.68495436643e-07
6.35760868277e-07
1.99075688705e-07
6.63385729793e-07
1.39701399449e-07
7.26410613269e-07
8.89808925646e-08
7.65713928385e-07
5.27383585357e-08
7.33048685362e-07
3.64533812538e-08
6.74662990465e-07
3.86517556569e-08
6.31108913156e-07
5.10292114245e-08
6.03452804706e-07
6.82582209384e-08
5.8203102739e-07
8.5659384802e-08
5.65550346504e-07
1.00408796024e-07
5.59106187117e-07
1.09278062284e-07
5.56026209041e-07
1.12915756031e-07
5.53743334308e-07
1.13963845185e-07
5.56751215414e-07
1.08574345434e-07
5.59990148677e-07
9.70062906194e-08
5.49752714112e-07
7.47554302541e-08
5.26241150213e-07
3.82630916202e-08
5.20825397868e-07
4.43358556609e-09
5.32020384117e-07
5.54612945618e-07
-3.15394300978e-08
2.40048824205e-07
6.5062579758e-07
1.74459044121e-07
6.85335976373e-07
1.40760040205e-07
7.44419878857e-07
1.14923916077e-07
7.84803873235e-07
8.78224513085e-08
7.5615463486e-07
7.25149715016e-08
6.91934117128e-07
7.34826922146e-08
6.39514983356e-07
8.44290855536e-08
6.04820855024e-07
9.96946920939e-08
5.79769574584e-07
1.1416588489e-07
5.62498716371e-07
1.27221903699e-07
5.5669570717e-07
1.35356984105e-07
5.54122503924e-07
1.36200835192e-07
5.50865662327e-07
1.3471443234e-07
5.50794412608e-07
1.31336655084e-07
5.53057284623e-07
1.20742006624e-07
5.49039827479e-07
9.9696088967e-08
5.31074734619e-07
6.56223568372e-08
5.20580732326e-07
2.94605682336e-08
5.26824673496e-07
5.4688746796e-07
-2.36337541876e-09
2.37649936317e-07
6.66498638276e-07
1.80561989372e-07
7.04438398785e-07
1.59143875177e-07
7.52512983685e-07
1.46177308413e-07
7.9123521029e-07
1.25801160805e-07
7.72874420192e-07
1.14777721962e-07
7.06782193684e-07
1.17152234234e-07
6.48861949106e-07
1.27973840205e-07
6.09304324222e-07
1.42188594966e-07
5.81835931241e-07
1.54709754973e-07
5.64411143076e-07
1.65805532035e-07
5.59112590807e-07
1.72546048693e-07
5.57037547144e-07
1.72219133459e-07
5.53719267389e-07
1.67827273597e-07
5.51611342425e-07
1.63645283575e-07
5.51244519342e-07
1.51698004489e-07
5.50815506546e-07
1.26940122589e-07
5.40742183711e-07
9.32159872358e-08
5.2420805672e-07
5.5684877649e-08
5.24243524115e-07
5.41130629276e-07
2.28467431265e-08
2.37428425575e-07
6.81795322167e-07
1.89402082013e-07
7.16935709487e-07
1.72676675803e-07
7.54109882076e-07
1.63433457408e-07
7.90379644032e-07
1.50572842526e-07
7.8063000621e-07
1.47152688137e-07
7.15343921454e-07
1.54443957605e-07
6.55735554158e-07
1.67878195271e-07
6.14135451503e-07
1.83548480329e-07
5.85874079159e-07
1.96021729191e-07
5.69349142056e-07
2.05971005952e-07
5.64822887366e-07
2.11930653947e-07
5.63241502282e-07
2.11076362698e-07
5.60413596601e-07
2.06852335884e-07
5.57530142424e-07
2.01698227901e-07
5.55184068059e-07
1.86867363028e-07
5.55611486688e-07
1.53154944031e-07
5.53922694362e-07
1.17175222185e-07
5.32215673432e-07
8.05764358442e-08
5.24339524001e-07
5.3724509259e-07
4.72600102923e-08
2.31020693387e-07
6.98268176387e-07
1.9220235798e-07
7.22751052432e-07
1.77324230009e-07
7.51912302377e-07
1.69291239776e-07
7.85482368908e-07
1.64875947103e-07
7.79001996622e-07
1.70024732486e-07
7.16179813143e-07
1.83091316097e-07
6.58339928038e-07
2.00575298917e-07
6.17430063459e-07
2.195639247e-07
5.90257869032e-07
2.3316794928e-07
5.75958220164e-07
2.42207125371e-07
5.72520522649e-07
2.48019869188e-07
5.71542871836e-07
2.47472837889e-07
5.69451412889e-07
2.44411651176e-07
5.66693192225e-07
2.40319513359e-07
5.63547265267e-07
2.22827121181e-07
5.64366214723e-07
1.77871191239e-07
5.69773631739e-07
1.3844070436e-07
5.45645894791e-07
1.04157450758e-07
5.2794901463e-07
5.35889209465e-07
7.17895376995e-08
2.1904898749e-07
7.17249998992e-07
1.87476010603e-07
7.239299776e-07
1.73158869138e-07
7.47548788543e-07
1.65950711162e-07
7.7828515049e-07
1.71286152158e-07
7.68199454415e-07
1.85490529305e-07
7.09773819213e-07
2.05230198802e-07
6.56830235218e-07
2.28426795727e-07
6.19057376388e-07
2.51121728779e-07
5.94735007396e-07
2.64912748956e-07
5.83699338742e-07
2.73172890044e-07
5.81653135084e-07
2.78394495408e-07
5.81510907517e-07
2.78113369652e-07
5.80160911053e-07
2.7621609981e-07
5.78269439576e-07
2.75755339634e-07
5.7540420251e-07
2.53833120866e-07
5.76989450706e-07
1.99787859183e-07
5.87193161217e-07
1.58094851212e-07
5.63928629339e-07
1.2705558739e-07
5.35930258603e-07
5.3788171947e-07
9.5904125039e-08
2.00420532134e-07
7.49841799e-07
1.71658897795e-07
7.26263254299e-07
1.58716570663e-07
7.41474537427e-07
1.56182012779e-07
7.66524712733e-07
1.72811961438e-07
7.49149056313e-07
1.96692027509e-07
6.98121228273e-07
2.2409029652e-07
6.5236353981e-07
2.53180640324e-07
6.19524046325e-07
2.77745034378e-07
5.99417715925e-07
2.90842327282e-07
5.92226109814e-07
2.98573371946e-07
5.91857310909e-07
3.0309470804e-07
5.92803445329e-07
3.02227354063e-07
5.92344478601e-07
3.01330810086e-07
5.91542951326e-07
3.03823813966e-07
5.89995688155e-07
2.77116570445e-07
5.93277940265e-07
2.18337244293e-07
6.06309468629e-07
1.76050950674e-07
5.85051750734e-07
1.47756117058e-07
5.48352009791e-07
5.43606969322e-07
1.18484133605e-07
1.95152483046e-07
7.87269995949e-07
1.71566384968e-07
7.27595298949e-07
1.56990851092e-07
7.34765014989e-07
1.59767130222e-07
7.50582858188e-07
1.81695105992e-07
7.28700893926e-07
2.10876508797e-07
6.8551171828e-07
2.43294838704e-07
6.47086995433e-07
2.761571409e-07
6.19852207854e-07
3.00230604075e-07
6.04843076798e-07
3.11877451162e-07
6.01449965026e-07
3.19690301193e-07
6.02954502279e-07
3.23047673165e-07
6.05075191647e-07
3.21198272596e-07
6.05634810969e-07
3.20601761375e-07
6.0602870417e-07
3.24785629575e-07
6.06506828554e-07
2.94844883793e-07
6.12696288226e-07
2.33609233532e-07
6.2707492626e-07
1.90610382999e-07
6.08169777276e-07
1.64109454347e-07
5.64407798561e-07
5.52596167931e-07
1.37252922744e-07
2.06844512888e-07
8.18168809608e-07
1.82382337147e-07
7.31841577475e-07
1.67493568652e-07
7.28290019022e-07
1.74631155881e-07
7.33606500509e-07
1.97114977124e-07
7.10529659278e-07
2.27890287637e-07
6.7393100806e-07
2.63037131264e-07
6.42194026255e-07
2.97635168258e-07
6.20710601824e-07
3.19408844085e-07
6.11262396794e-07
3.29981467372e-07
6.1121761269e-07
3.37534361839e-07
6.14590503968e-07
3.3993946234e-07
6.17911129431e-07
3.36717571281e-07
6.19495426563e-07
3.3637012776e-07
6.2115560961e-07
3.4149697051e-07
6.2421390282e-07
3.07574946497e-07
6.34243646703e-07
2.45390495177e-07
6.48758005295e-07
2.0239011167e-07
6.33278425786e-07
1.75753246494e-07
5.83969949162e-07
5.63844079291e-07
1.50806287278e-07
2.13192326686e-07
8.39396282356e-07
1.91326500438e-07
7.33833912411e-07
1.80704102165e-07
7.18950405352e-07
1.91061925422e-07
7.15944518373e-07
2.13888432831e-07
6.93885323044e-07
2.45930270577e-07
6.63485581312e-07
2.83363458331e-07
6.38169147309e-07
3.1745862545e-07
6.22581022092e-07
3.36509573128e-07
6.18630841768e-07
3.46827013958e-07
6.21508883637e-07