/*--------------------------------*- C++ -*----------------------------------*\
| =========                 |                                                 |
| \\      /  F ield         | OpenFOAM: The Open Source CFD Toolbox           |
|  \\    /   O peration     | Version:  2312                                  |
|   \\  /    A nd           | Website:  www.openfoam.com                      |
|    \\/     M anipulation  |                                                 |
\*---------------------------------------------------------------------------*/
FoamFile
{
    version     2.0;
    format      ascii;
    arch        "LSB;label=32;scalar=64";
    class       surfaceScalarField;
    location    "0.665/water";
    object      phi;
}
// * * * * * * * * * * * * * * * * * * * * * * * * * * * * * * * * * * * * * //

dimensions      [0 3 -1 0 0 0 0];

oriented        oriented;

internalField   nonuniform List<scalar> 
2914
(
8.62512072669e-08
3.34269870135e-07
9.78284793957e-08
5.01387505052e-07
1.18406134514e-07
5.82772725277e-07
1.43269988672e-07
6.56500066387e-07
1.71226302589e-07
7.55767961515e-07
1.93173102048e-07
8.56562476665e-07
2.12789670343e-07
9.27739048763e-07
2.31094625435e-07
9.8233426872e-07
2.41907561298e-07
9.78834323159e-07
2.38146537966e-07
8.94269434722e-07
2.09206299336e-07
7.43392160869e-07
1.77735021044e-07
6.13956119302e-07
1.53871457719e-07
5.32600587988e-07
1.3508073644e-07
4.91944588811e-07
1.17624181831e-07
4.75426542851e-07
9.96272223563e-08
4.70458499945e-07
8.04244941877e-08
4.63882758859e-07
5.92058689312e-08
4.5577219927e-07
3.13910443845e-08
4.57104809234e-07
5.31011850356e-07
-1.50395090994e-08
9.17697629105e-08
3.13992443524e-07
1.02560528542e-07
4.70484943844e-07
1.22551071702e-07
5.52089816272e-07
1.46047851002e-07
6.27739085625e-07
1.73532130882e-07
7.25817826148e-07
1.98729646169e-07
8.3022336202e-07
2.2015118495e-07
9.05786927256e-07
2.41859790263e-07
9.6037427547e-07
2.59229496621e-07
9.61328058964e-07
2.63368368421e-07
8.90040598254e-07
2.37928078007e-07
7.68768697447e-07
2.06330701523e-07
6.45509984331e-07
1.7807145486e-07
5.60832493427e-07
1.55061591253e-07
5.14937994986e-07
1.3491695394e-07
4.95561374528e-07
1.15519205957e-07
4.89851719595e-07
9.52516136875e-08
4.84146956025e-07
7.36096728022e-08
4.77413551562e-07
4.67705385468e-08
4.8395219561e-07
5.67162729017e-07
1.06410692174e-08
1.00817896917e-07
2.97371425711e-07
1.07348499024e-07
4.42735713774e-07
1.23363834974e-07
5.25030844546e-07
1.41024534379e-07
6.04623786721e-07
1.62168339895e-07
7.02015325167e-07
1.8778002373e-07
8.03281349941e-07
2.10208383711e-07
8.82683445786e-07
2.34853721394e-07
9.35383309767e-07
2.54855358429e-07
9.41138214825e-07
2.61659283504e-07
8.83122178494e-07
2.50464818019e-07
7.79887456192e-07
2.26177106257e-07
6.69746904372e-07
1.98584549473e-07
5.88392399574e-07
1.73380589084e-07
5.40122233645e-07
1.51200187271e-07
5.17730610405e-07
1.30528726053e-07
5.10515880984e-07
1.09425395188e-07
5.05248478036e-07
8.7597182681e-08
4.99243688156e-07
6.1240292787e-08
5.10310409156e-07
5.9588750127e-07
3.2531359257e-08
1.1766148883e-07
2.88717617899e-07
1.16119580281e-07
4.21890913171e-07
1.24773442552e-07
5.05129645003e-07
1.31267628618e-07
5.92649466429e-07
1.40609990147e-07
6.90012035329e-07
1.60176629756e-07
7.82348318257e-07
1.84541462056e-07
8.57600114935e-07
2.12444588414e-07
9.07096932294e-07
2.36399070014e-07
9.16973153772e-07
2.4759400995e-07
8.71803905876e-07
2.4699867051e-07
7.80405130586e-07
2.32585003376e-07
6.8410768843e-07
2.10058601923e-07
6.1088354069e-07
1.85904721884e-07
5.64253836496e-07
1.62755088204e-07
5.40866965085e-07
1.40527221113e-07
5.32736396211e-07
1.18207736943e-07
5.27562189808e-07
9.53959235343e-08
5.22051514446e-07
6.73469490911e-08
5.38362880376e-07
6.19666374421e-07
4.35785752747e-08
1.36127756209e-07
2.85581617184e-07
1.31280408705e-07
4.0107342232e-07
1.25904404901e-07
4.97005692239e-07
1.15935423107e-07
5.96806088453e-07
1.07812256793e-07
6.95586446181e-07
1.15510579021e-07
7.73431856541e-07
1.37381659303e-07
8.3511750084e-07
1.66576752602e-07
8.77572191654e-07
1.95678273079e-07
8.87690556023e-07
2.16227288791e-07
8.51149512859e-07
2.36096194439e-07
7.60466055057e-07
2.29648276018e-07
6.9050532075e-07
2.11966390105e-07
6.28530721727e-07
1.89751346543e-07
5.86446290472e-07
1.66321778867e-07
5.64282537546e-07
1.42531680711e-07
5.56517111619e-07
1.18726030665e-07
5.5136351327e-07
9.34100106366e-08
5.47367045769e-07
6.25737800974e-08
5.69198378579e-07
6.37815578455e-07
4.44296096815e-08
1.46380555542e-07
2.8281791971e-07
1.4383008635e-07
3.81114833891e-07
1.28150404042e-07
5.02119660588e-07
9.0851752178e-08
6.29577204478e-07
5.35263665343e-08
7.31157864429e-07
4.08875041645e-08
7.85423505331e-07
5.74357872248e-08
8.18245650662e-07
9.14933730849e-08
8.43337112427e-07
1.36712822545e-07
8.42366132616e-07
2.02660779564e-07
7.85125681864e-07
2.22093902996e-07
7.40975962365e-07
2.2193022246e-07
6.90625485381e-07
2.08174942998e-07
6.42254671722e-07
1.87289406822e-07
6.07310819245e-07
1.63028537496e-07
5.8853051291e-07
1.36959155567e-07
5.8257955853e-07
1.10737255121e-07
5.77579696413e-07
8.04944323895e-08
5.77604178231e-07
4.7011876644e-08
6.02678320381e-07
6.50542133323e-07
3.42858407218e-08
9.3417458603e-08
3.44468544793e-07
7.80029464672e-08
3.83893978263e-07
8.58043108656e-08
4.88383318679e-07
1.93981084652e-08
6.93124621425e-07
-5.1129189948e-08
8.0091693399e-07
-9.09964846439e-08
8.25101009961e-07
-2.33727539256e-08
7.50556272752e-07
6.14623741357e-08
7.584297472e-07
1.44469114665e-07
7.59290783107e-07
1.84670940997e-07
7.44871841746e-07
2.05279136736e-07
7.20326332372e-07
2.09257831248e-07
6.86612887175e-07
1.99312898582e-07
6.52173668912e-07
1.80104722172e-07
6.26500719551e-07
1.54337841769e-07
6.14285459978e-07
1.25537713615e-07
6.11369143905e-07
9.55528081118e-08
6.07557656808e-07
5.81715369007e-08
6.14982185949e-07
2.28916187506e-08
6.37953103144e-07
6.61645824987e-07
1.17846463556e-08
9.13086531835e-08
4.14524612928e-07
6.11330665682e-08
4.0265013907e-07
5.53182504611e-08
4.90092503609e-07
4.81173497983e-08
6.97991970542e-07
-3.40804321609e-08
8.82333468278e-07
5.65126940452e-09
7.85260936862e-07
4.10587471808e-08
7.15060762692e-07
8.83915841353e-08
7.11039871983e-07
1.32755230929e-07
7.14885523746e-07
1.66888807225e-07
7.10705091081e-07
1.88236533098e-07
6.98950079434e-07
1.95348009423e-07
6.7947621318e-07
1.8883676379e-07
6.58664497916e-07
1.70517751305e-07
6.44804180959e-07
1.42882486891e-07
6.41909174168e-07
1.12430263519e-07
6.41815058264e-07
7.81223023037e-08
6.41862021708e-07
3.33755300169e-08
6.59721001346e-07
-2.01556949333e-09
6.73336300792e-07
6.76156661292e-07
-1.65325128844e-08
1.19922038712e-07
4.57137930564e-07
7.06634561872e-08
4.38876668962e-07
4.90198904291e-08
5.07867277244e-07
4.89711931633e-08
6.96301648176e-07
6.27920735985e-08
8.67790139699e-07
5.89317559315e-08
7.88941409523e-07
6.80214253408e-08
7.05922146455e-07
9.60599545921e-08
6.82979338244e-07
1.28622639601e-07
6.82306897982e-07
1.56445539974e-07
6.82866390507e-07
1.76095897235e-07
6.79283518375e-07
1.84093798459e-07
6.71462147368e-07
1.78654812993e-07
6.6408908133e-07
1.59475148869e-07
6.63972259581e-07
1.32626811149e-07
6.68751015e-07
1.02702330841e-07
6.7173411251e-07
6.25974299245e-08
6.81958999117e-07
1.47767367655e-08
7.07532392199e-07
-1.79448538236e-08
7.06047631479e-07
6.94830979435e-07
-3.662797967e-08
1.37801070399e-07
4.81039174023e-07
8.39673245871e-08
4.79598232874e-07
5.71863242708e-08
5.30934330034e-07
7.14156458714e-08
6.80757008023e-07
1.06974861936e-07
8.31646332028e-07
1.00241320074e-07
7.95501033495e-07
9.09059548064e-08
7.15220811201e-07
1.01816657924e-07
6.72059262423e-07
1.2402683824e-07
6.60090047052e-07
1.47080699842e-07
6.59803634506e-07
1.64232166008e-07
6.62121254043e-07
1.71389551227e-07
6.64293354829e-07
1.66420347158e-07
6.69048199408e-07
1.50506344096e-07
6.79879426691e-07
1.29183944428e-07
6.90068309655e-07
9.809534703e-08
7.02816078133e-07
4.75607954689e-08
7.32488351202e-07
3.19161417615e-09
7.51891828864e-07
-2.35209827793e-08
7.32747492335e-07
7.10541539745e-07
-3.92444180341e-08
1.46013555861e-07
4.94650532297e-07
1.03717137127e-07
5.07488797884e-07
8.08907365663e-08
5.49519971208e-07
1.01069711819e-07
6.59265712934e-07
1.35648945707e-07
7.96544189058e-07
1.31854082497e-07
7.99112611393e-07
1.18478856256e-07
7.28549211487e-07
1.19436465857e-07
6.71089918426e-07
1.31960331156e-07
6.47561092212e-07
1.47575415451e-07
6.44183337701e-07
1.60081485881e-07
6.49608932364e-07
1.65574533977e-07
6.58793382654e-07
1.6253657621e-07
6.72080520609e-07
1.53102193708e-07
6.89307996577e-07
1.31897118938e-07
7.11265113184e-07
8.59448022962e-08
7.48757514734e-07
2.52373419561e-08
7.93181096673e-07
-7.21709966811e-09
7.84329680484e-07
-2.34613985876e-08
7.48972170313e-07
7.15803286842e-07
-2.87429009299e-08
1.47322746247e-07
5.04833747258e-07
1.19889307255e-07
5.19397086127e-07
1.05815451947e-07
5.57995113867e-07
1.20868092336e-07
6.42396012571e-07
1.43476207135e-07
7.7321518795e-07
1.47597481162e-07
7.94704356999e-07
1.44558861831e-07
7.31494070653e-07
1.45602820867e-07
6.70014102525e-07
1.52292031689e-07
6.40855931562e-07
1.6081228911e-07
6.35650060225e-07
1.66830560432e-07
6.43578003548e-07
1.67180893606e-07
6.58429687295e-07
1.60104503835e-07
6.7914075547e-07
1.42399570072e-07
7.06989111374e-07
1.02988251478e-07
7.5064713951e-07
4.07427976838e-08
8.1097926741e-07
8.54392306549e-10
8.33050039359e-07
-9.30066608145e-09
7.94458327933e-07
-9.69894560749e-09
7.49339798335e-07
7.05763072927e-07
3.10012421989e-10
1.55983318997e-07
5.07110169563e-07
1.34808995623e-07
5.22505674804e-07
1.24200117644e-07
5.61924261562e-07
1.11908069458e-07
6.51911893566e-07
1.05992570059e-07
7.7800603983e-07
1.23597666243e-07
7.76750271833e-07
1.42175027407e-07
7.12803269342e-07
1.5066752689e-07
6.61473621554e-07
1.53209800229e-07
6.38283657635e-07
1.51973074289e-07
6.36859981274e-07
1.44595115888e-07
6.50928270349e-07
1.28099927821e-07
6.74895833817e-07
1.0026114109e-07
7.0695308238e-07
5.84234939489e-08
7.48811221441e-07
9.96741400227e-09
7.99097423148e-07
-1.65257900476e-08
8.37456691941e-07
-7.7523650443e-09
8.24257807152e-07
1.37948084228e-08
7.72884489343e-07
3.99363265123e-08
7.23166243191e-07
6.74575585564e-07
7.10890442119e-08
1.6609986997e-07
4.9668176614e-07
1.50510866745e-07
5.20666269129e-07
1.13709879284e-07
5.9033462215e-07
1.41450504291e-08
7.48318905565e-07
-4.63568648812e-08
8.38049942289e-07
-2.40653060078e-08
7.54397142714e-07
1.2714662015e-08
6.76023552854e-07
3.46522877106e-08
6.39551482378e-07
4.05128439176e-08
6.32437154241e-07
3.42440552645e-08
6.43141006637e-07
1.72401096705e-08
6.67946102475e-07
-8.50386654294e-09
7.00652215803e-07
-3.79913194272e-08
7.36451228312e-07
-6.0470017877e-08
7.71295062229e-07
-5.73234286385e-08
7.95949331097e-07
-1.90235432791e-08
7.99146788743e-07
3.65773620365e-08
7.68636249363e-07
8.92477172248e-08
7.20183758402e-07
1.38178494445e-07
6.74198665474e-07
6.28267521747e-07
1.84446272156e-07
1.81432441049e-07
4.79303009402e-07
1.37167520249e-07
5.4622018323e-07
3.27692935128e-08
6.88014636728e-07
-2.60103293891e-07
1.04059700204e-06
-3.31215052392e-07
9.10036791161e-07
-3.18039156993e-07
7.4152054655e-07
-2.84399021138e-07
6.42519272758e-07
-2.51425670977e-07
6.06666207849e-07
-2.25516053734e-07
6.06593578634e-07
-2.05628916502e-07
6.2330871949e-07
-1.89124247843e-07
6.51490601093e-07
-1.7135329728e-07
6.82925646122e-07
-1.45578774759e-07
7.10715684289e-07
-1.04218897337e-07
7.29965170423e-07
-4.22635239078e-08
7.34009417712e-07
3.7244120005e-08
7.19640294872e-07
1.17670847106e-07
6.88191647564e-07
1.86081896962e-07
6.51742659234e-07
2.46570716409e-07
6.13671798375e-07
5.73081686816e-07
3.01713151045e-07
1.34224720492e-07
5.17428103469e-07
-7.38959578652e-08
7.51952121404e-07
-2.6817846348e-07
8.88328013886e-07
-2.61410817939e-07
1.03764288429e-06
-3.64814289953e-07
1.01460344847e-06
-4.44030535478e-07
8.21255630141e-07
-4.47324557178e-07
6.46076320965e-07
-4.23200843668e-07
5.82715593414e-07
-3.85787146153e-07
5.69313565006e-07
-3.38724919663e-07
5.76353595636e-07
-2.82770956084e-07
5.95625921854e-07
-2.18208626583e-07
6.18437108981e-07
-1.45552788064e-07
6.38118377677e-07
-6.38006118502e-08
6.482552281e-07
2.58803141278e-08
6.44356672445e-07
1.15184911526e-07
6.30342032159e-07
1.94493775614e-07
6.08872462899e-07
2.63305357087e-07
5.82908801889e-07
3.25145944161e-07
5.51799797173e-07
5.15863992986e-07
3.82324712515e-07
6.53923930544e-08
5.90034672217e-07
9.85633217986e-09
8.09970108415e-07
-4.43317635574e-09
9.08116524972e-07
1.93143622578e-08
1.01633881363e-06
2.53930956288e-08
1.00945120851e-06
-9.59900647202e-08
9.43058706852e-07
-2.99027460819e-07
8.49382398668e-07
-3.27629903428e-07
6.11521668796e-07
-3.10556776e-07
5.52388874812e-07
-2.7001016891e-07
5.35926544098e-07
-2.13302393319e-07
5.39018610692e-07
-1.42860780615e-07
5.48078914546e-07
-6.36375650809e-08
5.58961394024e-07
1.98260922584e-08
5.64841768931e-07
1.00615538416e-07
5.63598196003e-07
1.74482839036e-07
5.56487739006e-07
2.40034952831e-07
5.43319511708e-07
2.99064151464e-07
5.23867010407e-07
3.55127977351e-07
4.95713372735e-07
4.60051089611e-07
4.10910175301e-07
7.21108001014e-08
5.9350001617e-07
7.15264028035e-08
8.06878017549e-07
9.31264156383e-08
8.87160831224e-07
1.5513784965e-07
9.54912628382e-07
1.87328539793e-07
9.7753359096e-07
1.73012352415e-07
9.57547695466e-07
1.209080975e-07
9.01622190358e-07
-7.63846879987e-08
8.08924906996e-07
-1.09673064872e-07
5.85800299222e-07
-1.01679809853e-07
5.28036068016e-07
-6.84724671647e-08
5.05896258899e-07
-2.13452629851e-08
5.01021266944e-07
3.53919077436e-08
5.02282067815e-07
9.54088016669e-08
5.04867655935e-07
1.52573683207e-07
5.06462467281e-07
2.05407665474e-07
5.03670717176e-07
2.54451168023e-07
4.94282942206e-07
3.02673101998e-07
4.75642912179e-07
3.52402174325e-07
4.45974498309e-07
4.12926398414e-07
3.99513105683e-07
7.24668204105e-08
5.81420185255e-07
9.12569388548e-08
7.80030422697e-07
1.24518872361e-07
8.49563782115e-07
1.75572161138e-07
9.02081682292e-07
2.19898938541e-07
9.32531447475e-07
2.3757172948e-07
9.39661595048e-07
2.18102076781e-07
9.21065533546e-07
1.71083050304e-07
8.55981965019e-07
9.86738783778e-08
6.58277278381e-07
7.32108521735e-08
5.53571564725e-07
7.59025129152e-08
5.03271407497e-07
9.37781879294e-08
4.8320308867e-07
1.20686942289e-07
4.75419606422e-07
1.52780214271e-07
4.7280960824e-07
1.87033057173e-07
4.72235575191e-07
2.21475032295e-07
4.69246877572e-07
2.56455550477e-07
4.59314276985e-07
2.93648809533e-07
4.38455693522e-07
3.31713431773e-07
4.07910966813e-07
3.77701481305e-07
3.66937713506e-07
6.50546160323e-08
5.59091873144e-07
8.70848718122e-08
7.48274887391e-07
1.20879256973e-07
8.08709945466e-07
1.69954318303e-07
8.49480915987e-07
2.1980281626e-07
8.81134992589e-07
2.60943048289e-07
8.97893392995e-07
2.90223951375e-07
8.91557491826e-07
2.97461670279e-07
8.48683906681e-07
2.24189122904e-07
7.31570151723e-07
1.9499873258e-07
5.82810715265e-07
1.83077445145e-07
5.15246982402e-07
1.836433533e-07
4.82687855404e-07
1.91179816828e-07
4.67926632389e-07
2.03087448767e-07
4.60935756045e-07
2.18342171865e-07
4.57005576351e-07
2.36558138229e-07
4.51048980108e-07
2.58314181486e-07
4.37571238662e-07
2.83249928178e-07
4.13527630384e-07
3.07671564848e-07
3.83494197246e-07
3.51651188814e-07
3.3372831976e-07
5.15155652467e-08
5.43377385543e-07
6.51514495241e-08
7.25301428497e-07
9.02037205417e-08
7.76279499986e-07
1.2826058235e-07
8.0742662729e-07
1.69811988712e-07
8.37735172933e-07
2.07015519679e-07
8.59907169573e-07
2.34127411605e-07
8.64147801658e-07
2.46723142754e-07
8.35998405655e-07
2.64549349505e-07
7.1374189643e-07
2.54004573771e-07
5.93389512115e-07
2.43934541258e-07
5.25362742453e-07
2.38506340266e-07
4.88161551375e-07
2.37397997689e-07
4.69075346297e-07
2.39042066869e-07
4.59324202181e-07
2.42974887141e-07
4.53097174216e-07
2.50090386598e-07
4.43951182588e-07
2.61514722369e-07
4.26158779652e-07
2.75478105357e-07
3.99571479012e-07
2.91129916702e-07
3.67851349373e-07
3.35969017992e-07
3.06823735554e-07
3.4941851545e-08
5.40485059031e-07
3.85922133341e-08
7.13894371113e-07
5.39662636591e-08
7.5463529317e-07
8.16436114393e-08
7.76234468835e-07
1.15016711483e-07
8.02725143471e-07
1.50349564572e-07
8.23886828256e-07
1.85837155709e-07
8.28403418848e-07
2.24121143944e-07
7.9764139217e-07
2.66715151543e-07
6.71148867333e-07
2.72680161336e-07
5.87454512552e-07
2.69324679633e-07
5.28759484428e-07
2.64355725387e-07
4.9317261877e-07
2.60049983715e-07
4.73419241382e-07
2.56797007959e-07
4.62608397427e-07
2.55086059363e-07
4.54832023404e-07
2.56196616112e-07
4.42857854192e-07
2.61007414456e-07
4.21358806747e-07
2.67833712594e-07
3.9275422059e-07
2.76946902717e-07
3.58748472151e-07
3.3042885204e-07
2.82501007209e-07
2.15778835894e-08
5.52123698399e-07
1.32152330047e-08
7.17069717322e-07
1.77386711406e-08
7.46198208276e-07
3.23062265358e-08
7.59436591903e-07
5.29852945402e-08
7.8100677785e-07
7.95819692669e-08
7.96867396425e-07
1.15652715013e-07
7.92201208892e-07
2.15776844815e-07
6.9749089601e-07
2.55700815717e-07
6.31238630917e-07
2.71433677765e-07
5.71754840369e-07
2.74033587568e-07
5.26200208173e-07
2.7105270746e-07
4.96193981072e-07
2.66062700077e-07
4.78445781749e-07
2.60630723387e-07
4.6807027151e-07
2.56158240488e-07
4.59327193433e-07
2.54433499272e-07
4.445978417e-07
2.55752314363e-07
4.20049119097e-07
2.59651893558e-07
3.88863653626e-07
2.6365251928e-07
3.54758675141e-07
3.29253344876e-07
2.64846886071e-07
1.14228533911e-08
5.7336243549e-07
-6.83271124311e-09
7.31888395544e-07
-9.77437834931e-09
7.47759867152e-07
-4.97025051998e-09
7.53683929424e-07
8.34335386181e-09
7.67204728025e-07
3.4747078081e-08
7.70269515464e-07
1.40204058213e-07
6.86688163116e-07
2.00793269162e-07
6.36898414587e-07
2.38972806307e-07
5.93084025232e-07
2.58679595114e-07
5.52084932248e-07
2.6551658275e-07
5.19404095001e-07
2.64826776882e-07
4.96923098084e-07
2.60308805325e-07
4.82998451904e-07
2.54198046818e-07
4.7420872396e-07
2.48760760134e-07
4.6478487872e-07
2.46130181002e-07
4.47240791602e-07
2.45969786691e-07
4.20217743285e-07
2.48370374552e-07
3.8647269667e-07
2.47665457054e-07
3.55477507565e-07
3.2865717475e-07
2.48284757887e-07
5.60101734448e-09
6.01814971913e-07
-1.75535156416e-08
7.53233755192e-07
-2.46878822246e-08
7.55348335715e-07
-2.44391927391e-08
7.53350246272e-07
-1.51432677815e-08
7.57778904753e-07
7.87527157801e-08
6.76336698854e-07
1.42377877285e-07
6.23044570373e-07
1.89318201728e-07
5.89976452396e-07
2.22329036792e-07
5.6010806119e-07
2.41529189354e-07
5.32924945762e-07
2.49627080756e-07
5.11346924856e-07
2.50190460704e-07
4.96397140229e-07
2.46221911222e-07
4.86998839792e-07
2.4022097646e-07
4.802341942e-07
2.35087824312e-07
4.69935080297e-07
2.32788867071e-07
4.49549009821e-07
2.32847607732e-07
4.20167909627e-07
2.34333684936e-07
3.84997618457e-07
2.31099555531e-07
3.58727769634e-07
3.30128272243e-07
2.29656024146e-07
4.54563387717e-09
6.31265422779e-07
-1.48244443865e-08
7.73101197809e-07
-1.90686230226e-08
7.608035591e-07
-1.51349029673e-08
7.49722786427e-07
3.30813827023e-08
7.09568281616e-07
9.59768415237e-08
6.13406704635e-07
1.42324607122e-07
5.7670760007e-07
1.80061376313e-07
5.52272312263e-07
2.07306072987e-07
5.32903523771e-07
2.23558278498e-07
5.16713672878e-07
2.30596066606e-07
5.04348123816e-07
2.30897357279e-07
4.96130153837e-07
2.26825674848e-07
4.91098543361e-07
2.2114168297e-07
4.85938884625e-07
2.16872600855e-07
4.74217309261e-07
2.15088485973e-07
4.51340547272e-07
2.16211783663e-07
4.19053713456e-07
2.15368053462e-07
3.85853937619e-07
2.1327746075e-07
3.60840015179e-07
3.34711437099e-07
2.08724827861e-07
-3.27267497583e-09
6.69234210466e-07
-2.16299127692e-08
7.92832632451e-07
-2.467094004e-08
7.65687329159e-07
-1.33110918734e-08
7.38983336447e-07
6.81651126621e-08
6.28162942418e-07
1.07923080611e-07
5.73645839854e-07
1.43316864561e-07
5.41341989644e-07
1.72655038209e-07
5.22974110607e-07
1.9360439781e-07
5.11996236887e-07
2.05829669347e-07
5.04528190368e-07
2.10536446568e-07
4.99677295635e-07
2.09482886334e-07
4.97213882607e-07
2.04826708076e-07
4.95778209214e-07
1.99344989921e-07
4.91436854764e-07
1.95646362486e-07
4.77924813356e-07
1.94070429502e-07
4.52923826621e-07
1.94506094876e-07
4.18627968644e-07
1.89214916539e-07
3.91160673182e-07
1.88642798655e-07
3.61438832574e-07
3.39461800082e-07
1.83921430021e-07
-8.35983577933e-09
7.10983633141e-07
-2.16762408378e-08
8.09147308557e-07
-2.0285783952e-08
7.66913655124e-07
5.74377704391e-08
6.62135156056e-07
9.15356530101e-08
5.9403777652e-07
1.20230776366e-07
5.44952345159e-07
1.45898474708e-07
5.15703652267e-07
1.66925584272e-07
5.01986379564e-07
1.81500653652e-07
4.97461140779e-07
1.89281478376e-07
4.96783647793e-07
1.91032370551e-07
4.97957754913e-07
1.88186441299e-07
5.00084892241e-07
1.82774706834e-07
5.01208466984e-07
1.77368470332e-07
4.96854324526e-07
1.73464505719e-07
4.81834752517e-07
1.72591421485e-07
4.53805247178e-07
1.68959539848e-07
4.22272592518e-07
1.61297379344e-07
3.98843642348e-07
1.58913204284e-07
3.63853318979e-07
3.44292277193e-07
1.54109447598e-07
-7.86935937556e-10
7.40935453813e-07
-1.2719716388e-08
8.22305746879e-07
5.53273722448e-08
7.0090843353e-07
8.91163813496e-08
6.27832216171e-07
1.13578469038e-07
5.69334740472e-07
1.33207002001e-07
5.2526055269e-07
1.50112282698e-07
4.98806291101e-07
1.63356064377e-07
4.8877343337e-07
1.71729978808e-07
4.89121817021e-07
1.74904248148e-07
4.93640535157e-07
1.7351882546e-07
4.99369181147e-07
1.6874327625e-07
5.04880472461e-07
1.62381626446e-07
5.07583923399e-07
1.56281167933e-07
5.02961667634e-07
1.51746543497e-07
4.86376454384e-07
1.49396060038e-07
4.56165804688e-07
1.37954164848e-07
4.33729023971e-07
1.30319425421e-07
4.06506909676e-07
1.2550633612e-07
3.68693529559e-07
3.48356405791e-07
1.21465700407e-07
5.85442936825e-08
7.09962029489e-07
6.06736189298e-08
8.05317610036e-07
9.00552607763e-08
6.67342731795e-07
1.13497686783e-07
6.02704359943e-07
1.30683784163e-07
5.51563941301e-07
1.44033121e-07
5.11736665414e-07
1.54095360574e-07
4.88715760827e-07
1.60810707544e-07
4.82075578688e-07
1.63694505688e-07
4.86265288205e-07
1.6272978247e-07
4.94630377455e-07
1.58454207078e-07
5.03665347927e-07
1.51858627566e-07
5.11491300989e-07
1.44315860615e-07
5.15135886799e-07
1.36797532637e-07
5.10485220919e-07
1.32071443315e-07
4.91110217314e-07
1.24447563087e-07
4.6380105871e-07
1.08352119278e-07
4.498480289e-07
9.88683155753e-08
4.16023443154e-07
9.28098936832e-08
3.747762605e-07
3.5013010478e-07
9.10578413181e-08
1.09848443609e-07
6.70202126441e-07
1.03320367237e-07
7.83772797498e-07
1.18035711417e-07
6.44453262643e-07
1.32446632567e-07
5.85494272106e-07
1.44331983722e-07
5.38732898982e-07
1.52546314903e-07
5.03228291613e-07
1.57141453847e-07
4.84053426083e-07
1.58504613853e-07
4.80715407735e-07
1.56808188826e-07
4.87980778333e-07
1.52287664758e-07
4.99169641917e-07
1.45481366257e-07
5.1048693471e-07
1.37138282758e-07
5.19845197729e-07
1.27812464315e-07
5.24468003843e-07
1.19346627784e-07
5.18957732416e-07
1.12875385212e-07
4.97587227056e-07
9.59636923832e-08
4.80720670949e-07
8.18751018213e-08
4.63971663323e-07
7.07128133773e-08
4.27216364002e-07
6.30706266363e-08
3.82441638408e-07
3.49722833864e-07
6.34977027603e-08
6.94531788612e-08
7.1491748761e-07
1.19022099083e-07
7.06999855089e-07
1.30534082867e-07
6.2234261792e-07
1.42350864971e-07
5.70001369875e-07
1.51651543062e-07
5.28178805701e-07
1.56673993478e-07
4.97809442531e-07
1.57492797958e-07
4.83133985844e-07
1.54901228474e-07
4.83296632058e-07
1.49720816492e-07
4.93171766971e-07
1.42423001755e-07
5.06479146737e-07
1.33519128662e-07
5.19399830637e-07
1.23338370516e-07
5.30031200204e-07
1.12635881372e-07
5.35174489535e-07
1.03700446913e-07
5.27897830836e-07
9.24565891584e-08
5.08838854163e-07
6.91643868905e-08
5.04040246104e-07
5.35446155996e-08
4.79629048616e-07
4.15071484865e-08
4.39281994886e-07
3.23146667544e-08
3.91656193038e-07
3.48944188969e-07
3.31143867566e-08
1.15655528196e-07
7.23829187253e-07
1.25404387313e-07
6.67653170413e-07
1.35595113681e-07
6.00493452015e-07
1.46734802586e-07
5.54649006315e-07
1.54716417136e-07
5.18735442811e-07
1.57544828815e-07
4.94514607758e-07
1.55551573866e-07
4.85003717311e-07
1.49951581134e-07
4.88876552479e-07
1.4203529077e-07
5.01092215737e-07
1.32389897962e-07
5.16131184438e-07
1.21366308192e-07
5.30428574011e-07
1.094274873e-07
5.41974129608e-07
9.78398721475e-08
5.46766803432e-07
8.72700348984e-08
5.38474023807e-07
6.6415597026e-08
5.29707891501e-07
4.35912409632e-08
5.26899445958e-07
2.3658803367e-08
4.99594517295e-07
6.98369958068e-09
4.55982269299e-07
-8.04153676915e-09
4.06700258297e-07
3.57969625003e-07
-1.70499020275e-08
1.2940702457e-07
7.24886978319e-07
1.29892651998e-07
6.37381494425e-07
1.38920341296e-07
5.79675115471e-07
1.4963977007e-07
5.39574057722e-07
1.56251327693e-07
5.10594721531e-07
1.56970296453e-07
4.93305828979e-07
1.52462957034e-07
4.89378804122e-07
1.44436909655e-07
4.96877188883e-07
1.3419429079e-07
5.11334687798e-07
1.22327775357e-07
5.28000968093e-07
1.09450425717e-07
5.43309699227e-07
9.65133991875e-08
5.54915299366e-07
8.42362847727e-08
5.59048683901e-07
7.04762379953e-08
5.52240972e-07
4.22923025033e-08
5.57911440426e-07
1.92917152901e-08
5.49935462614e-07
-2.3722504308e-09
5.21289998146e-07
-2.27864254424e-08
4.76418611717e-07
-4.16304728047e-08
4.25560990677e-07
3.71236773268e-07
-5.48832683097e-08
1.40011398827e-07
7.17059821218e-07
1.35691890296e-07
6.12617526743e-07
1.43357704626e-07
5.60822733043e-07
1.52576506752e-07
5.26239589281e-07
1.57046946315e-07
5.04681974865e-07
1.55180222397e-07
4.94711822794e-07
1.4799584435e-07
4.96437699294e-07
1.37564576546e-07
5.0728238684e-07
1.24960593448e-07
5.23936299629e-07
1.10908486249e-07
5.42054987699e-07
9.68200716922e-08
5.57401428193e-07
8.33832022211e-08
5.68355673972e-07
7.07192500671e-08
5.71716760416e-07
5.08836261577e-08
5.7208467102e-07
2.43240258727e-08
5.84500616355e-07
2.46590410513e-10
5.74045335234e-07
-2.16884421307e-08
5.43247659748e-07
-4.34781014452e-08
4.98225507823e-07
-6.32712769474e-08
4.45367536827e-07
3.84872979627e-07
-7.68965368477e-08
1.55329936686e-07
6.99300980095e-07
1.4940931196e-07
5.89911942088e-07
1.51611465657e-07
5.47459988566e-07
1.56091338152e-07
5.17696942785e-07
1.57291123011e-07
5.02079823664e-07
1.52789904481e-07
4.98769653398e-07
1.43192428862e-07
5.05913270483e-07
1.2976944451e-07
5.20678353242e-07
1.13608651821e-07
5.40093466679e-07
9.68965918e-08
5.58768423565e-07
8.11477619015e-08
5.73153088582e-07
6.67185720329e-08
5.82787894694e-07
5.27139457851e-08
5.85724651937e-07
2.75391749423e-08
5.9727035328e-07
4.63505854935e-09
6.07428751621e-07
-1.71849092959e-08
5.95888078892e-07
-3.79081653943e-08
5.63990390063e-07
-5.93617629168e-08
5.19693603073e-07
-7.84841852448e-08
4.64500852331e-07
3.98727010921e-07
-9.2329826226e-08
1.56198425718e-07
1.48102106758e-07
1.426655495e-07
1.39242278386e-07
1.35225792261e-07
1.28018883996e-07
1.17707938731e-07
1.04475179583e-07
8.85495816718e-08
7.14912411558e-08
5.43529820694e-08
3.8407091813e-08
2.55523794134e-08
6.47174735131e-09
-1.60176737646e-08
-3.83043982351e-08
-5.95666573469e-08
-8.04362924499e-08
-9.90814735742e-08
-1.13360837891e-07
-1.10701926369e-07
6.4630520056e-07
-6.85695472074e-08
5.60525964874e-07
3.71252593026e-09
4.55177582706e-07
4.62019344906e-08
3.28650722574e-07
6.8553821904e-08
2.37046876604e-07
7.17221932093e-08
1.78745840598e-07
6.38282882465e-08
1.479418603e-07
5.21670821507e-08
1.28000778499e-07
4.17818629755e-08
9.92443572141e-08
3.48327066432e-08
5.41848609199e-08
3.10884970401e-08
4.69244605746e-09
2.77746251983e-08
-2.86390281396e-08
1.9521491456e-08
-3.66947076621e-08
4.6741327442e-09
5.13022263184e-09
2.91289804726e-09
-3.66643431489e-08
-5.5726849129e-08
-7.57818512883e-08
6.53332406854e-07
-1.10849684278e-07
6.71982378053e-07
-1.01015512778e-07
7.00387046353e-07
-6.33274557632e-08
6.87283675764e-07
-3.67875314134e-08
6.19798884413e-07
-6.58831166394e-09
5.30355324835e-07
2.75529625105e-08
4.21060064857e-07
5.69084701068e-08
2.99312260208e-07
7.03306287926e-08
2.23634455377e-07
6.95723098794e-08
1.79507564259e-07
6.03952692951e-08
1.57119459763e-07
4.94495500883e-08
1.38946513081e-07
4.00113812808e-08
1.08682571675e-07
3.3114089027e-08
6.1082145261e-08
2.85128836067e-08
9.29369732648e-09
2.4536577716e-08
-2.46626986302e-08
1.5108654976e-08
-2.72636811554e-08
6.00831071236e-09
1.42365776176e-08
2.92582646881e-09
-3.35782404058e-08
-5.28009702316e-08
-2.52485651425e-08
6.89253287406e-07
-4.53681597941e-08
6.92133994862e-07
-3.2224354922e-08
6.87275026366e-07
-5.97987587712e-09
6.610694732e-07
1.60978863176e-08
5.97748149366e-07
3.41982376018e-08
5.12277286882e-07
5.15176602516e-08
4.03757593698e-07
6.41372289699e-08
2.86702391014e-07
7.04396491261e-08
2.17335729561e-07
6.62588135588e-08
1.83689028946e-07
5.71648811358e-08
1.66213460542e-07
4.78993309717e-08
1.48212051121e-07
3.96749514029e-08
1.16906986531e-07
3.27630537829e-08
6.79940340816e-08
2.7008665276e-08
1.50481269257e-08
2.17463495455e-08
-1.94003565568e-08
1.31543588446e-08
-1.86707926939e-08
7.07313251837e-09
2.03266510435e-08
3.11540006522e-09
-2.96149612716e-08
-4.96854958894e-08
2.30526750196e-08
6.98756730286e-07
2.25106935398e-08
6.92701080338e-07
3.72093934394e-08
6.72600990047e-07
5.74575339254e-08
6.40844261781e-07
7.19403374794e-08
5.83285489068e-07
7.84988859312e-08
5.05735172746e-07
8.03737878633e-08
4.0189466354e-07
7.86708357336e-08
2.88411288757e-07
7.52631069106e-08
2.20744823267e-07
6.74782118522e-08
1.91474006492e-07
5.85088329449e-08
1.75182880519e-07
5.01114656214e-08
1.56609410613e-07
4.23772687679e-08
1.24641223694e-07
3.51756922663e-08
7.51956078023e-08
2.83141716735e-08
2.1909695032e-08
2.15987281031e-08
-1.26848817647e-08
1.336666103e-08
-1.04341277414e-08
8.43544046156e-09
2.52625313647e-08
3.71450169841e-09
-2.48918940022e-08
-4.59709578212e-08
5.0222445947e-08
6.92130087493e-07
6.39792492203e-08
6.78961879694e-07
8.21263258161e-08
6.54471403978e-07
9.96583694517e-08
6.23328349166e-07
1.10935709905e-07