/*--------------------------------*- C++ -*----------------------------------*\
| =========                 |                                                 |
| \\      /  F ield         | OpenFOAM: The Open Source CFD Toolbox           |
|  \\    /   O peration     | Version:  2312                                  |
|   \\  /    A nd           | Website:  www.openfoam.com                      |
|    \\/     M anipulation  |                                                 |
\*---------------------------------------------------------------------------*/
FoamFile
{
    version     2.0;
    format      ascii;
    arch        "LSB;label=32;scalar=64";
    class       volScalarField;
    location    "0.01/water";
    object      epsilon.gas;
}
// * * * * * * * * * * * * * * * * * * * * * * * * * * * * * * * * * * * * * //

dimensions      [0 2 -3 0 0 0 0];

internalField   nonuniform List<scalar> 
1503
(
19.0966843399
2.95376123624
0.484645861336
0.124150584163
0.0469807095381
0.0361452653909
0.0304901797259
0.026398499504
0.0171572912469
0.00667226304508
0.00232147141205
0.00123711730598
0.000911920535735
0.000727623559743
0.000635903184747
0.000597884358382
0.000578292536563
0.000563491653963
0.000550150228071
0.000537702220022
187.799177329
33.7615499412
6.0310081309
1.16158242063
0.327683514932
0.088488784653
0.0481263924204
0.0434774251416
0.0399572813621
0.0311633800283
0.0231354221636
0.0182912568421
0.0124419405552
0.00493041225742
0.00160395750987
0.000816961512711
0.000677270359697
0.000652557260302
0.000643523889696
0.000636392324655
237.766150852
48.7210341883
10.5019208585
2.42135808777
0.698220679713
0.198112358974
0.0770662735914
0.056149406777
0.053402192196
0.0490717008269
0.0407783091935
0.0326091747147
0.025801752514
0.0182936862426
0.00985591929928
0.00332253651946
0.00117356513535
0.000782700736477
0.000733417001193
0.000726337537804
289.347257599
61.3745572163
14.3214464572
3.64820155226
0.995928024398
0.343712917449
0.140499247494
0.0952343440178
0.081492700478
0.0746564643015
0.0671113564658
0.0559478494954
0.0437272279492
0.0327882867077
0.0230677799474
0.0130594632613
0.00445853568004
0.0013833001438
0.000831425470269
0.000769416829749
320.728025309
68.1498424535
16.416401934
4.4398654777
1.21866515067
0.444118800499
0.22544540265
0.159884476045
0.128458339228
0.109057750539
0.0971428022665
0.087296424469
0.0750681603041
0.0599402181557
0.044177547354
0.0293359210432
0.0155380585187
0.00494329716132
0.00140393726024
0.0008279340635
339.769840598
71.942186632
17.6203679907
4.95019913172
1.42929643694
0.494750765709
0.311609016605
0.244789661343
0.193634502093
0.156653317769
0.132263820409
0.1164979172
0.104448486027
0.0913309663022
0.0748176677918
0.0558560015283
0.0362854961396
0.0177439965241
0.00509072055287
0.00134955093213
354.49198838
74.665543084
18.4017990708
5.2803242279
1.58688984755
0.565093766089
0.372071859577
0.336336261844
0.274839427278
0.219147468005
0.178644674902
0.150536545349
0.131168909468
0.116447511725
0.102020307659
0.0852053638241
0.0652793026734
0.0419431767703
0.0193073334072
0.00504952223543
369.246247231
77.2774473735
19.0587093427
5.51264578729
1.68841761716
0.628297545704
0.418060843383
0.403687634823
0.355974009492
0.291403212329
0.235314682981
0.191989964192
0.160816863411
0.139587153848
0.124047242464
0.109425280781
0.0924624526242
0.0713526663316
0.0459506810619
0.0205626173687
383.071588552
79.4501184764
19.5010765001
5.66329960607
1.75432305943
0.67116636795
0.458547089038
0.447989904554
0.413674697266
0.35248888972
0.288800318768
0.233985685547
0.192266958398
0.163685909641
0.144449299394
0.129126935005
0.113728281925
0.0966197500243
0.0752770884348
0.0488725523313
395.561719876
81.277908297
19.8213780973
5.7681624595
1.80584651313
0.708061428598
0.494279516461
0.484128952799
0.453056406035
0.3924169709
0.325659054101
0.266435334509
0.22007637667
0.187033146331
0.163965797716
0.146313786089
0.130929931301
0.115213269582
0.095928656549
0.0747782962833
406.399517763
82.8914821141
20.1102130486
5.8632002231
1.85672082504
0.746893933203
0.529567817398
0.517817404205
0.487207381457
0.42324236923
0.352124220092
0.289998540791
0.241705772796
0.206447923524
0.180751447336
0.161293721555
0.145316345044
0.127810564804
0.107746172328
0.0927720713616
417.124448006
84.4530416557
20.4089437801
5.95742435261
1.90296508326
0.781410719172
0.563965550374
0.550155495762
0.520925021061
0.453424897416
0.377074823305
0.311087060104
0.260067870724
0.222339431995
0.194519732427
0.173965464384
0.156929152774
0.136601598711
0.116403244489
0.104945918226
433.436395673
86.7261394708
20.8088937868
6.0582139574
1.93816696984
0.802748415339
0.590329374679
0.578992700596
0.550628151953
0.482852349723
0.403394360216
0.333371178076
0.278513128857
0.237382073268
0.207071792342
0.185109443633
0.166585964416
0.144058911685
0.124063899966
0.113336958187
453.486765571
89.4012886477
21.1630359921
6.12849985202
1.9566779748
0.81226814897
0.61044409162
0.605432895852
0.575799063329
0.507050237871
0.428289459205
0.356603209966
0.298288469432
0.253280960313
0.219865239311
0.195863063429
0.175600882982
0.151368490371
0.13114705616
0.120227867677
475.263936319
92.2918910576
21.525827261
6.19548161064
1.97766117865
0.823223951605
0.627282177289
0.629229585839
0.596204830172
0.52621656303
0.446660857246
0.375311044345
0.315943197298
0.268645444505
0.232744269131
0.206716793891
0.184699027403
0.159002381728
0.138135521656
0.126772995311
499.097754592
95.4460553104
21.9313997796
6.27033154882
2.00557502687
0.84294518329
0.649105764658
0.653445586625
0.614630267738
0.541227428385
0.462093628936
0.389900236579
0.329178818784
0.280540215551
0.243736521173
0.216856493411
0.193629143548
0.166786871031
0.14541871465
0.134039060912
537.064066973
100.448144022
22.6343149345
6.40193289878
2.04541054958
0.865833996335
0.67304413131
0.679385763388
0.638338389914
0.56083635153
0.478577684596
0.404385490649
0.341656736754
0.291220201544
0.253281307978
0.225629196644
0.201652854185
0.174056041809
0.153214379906
0.141058254483
568.715021638
105.335318955
23.486228917
6.5746296925
2.08726115538
0.88320959188
0.695504848294
0.705170746383
0.66264117819
0.582500019629
0.497113281122
0.419956820889
0.354635092365
0.302119719607
0.26272892526
0.234011926711
0.209222254028
0.180970819842
0.160446956836
0.146754432508
598.166856238
109.651775606
24.1532411455
6.70671531596
2.11476568718
0.890852045883
0.714494386418
0.729907452801
0.685506282912
0.60315889503
0.515953744919
0.43686976128
0.368920958979
0.313867984607
0.27255928431
0.24250650378
0.21679698464
0.18778973094
0.166876414977
0.152156255483
628.147920111
113.784535185
24.7302885619
6.81951619985
2.14420165116
0.902213742026
0.732884774526
0.752195937458
0.703493222966
0.619943357602
0.53219993311
0.452003683352
0.382987052996
0.326177225355
0.282906095791
0.251266041806
0.224540054851
0.194622053368
0.17317025101
0.157459097967
659.852789103
118.081040799
25.3278485332
6.93750122211
2.18231132414
0.923844006195
0.755641872361
0.776002309983
0.721005588059
0.633116425794
0.544701219091
0.464806597393
0.394976263835
0.336975288935
0.292518702479
0.259937991987
0.23247326543
0.201566920515
0.179529084003
0.162711433276
701.952579902
123.420247439
26.0631503361
7.08261421983
2.22867682059
0.949855436087
0.780322363246
0.801761579083
0.744359782305
0.652320652691
0.559905777253
0.477234828117
0.405824890397
0.346727287566
0.301337714248
0.2680544858
0.240091477667
0.20845566121
0.185475919999
0.167807425649
759.263308553
130.73531368
27.1326929985
7.28214722415
2.27655001378
0.969548648529
0.803483838368
0.827245395988
0.7692890489
0.674321008405
0.578114707158
0.491954986269
0.41783564253
0.356698549296
0.31008146492
0.276052707509
0.247386468632
0.215275474141
0.191105646476
0.172813194193
807.89424336
137.186052988
28.0162657082
7.44173630057
2.30931499791
0.979661050041
0.824266470382
0.851420280651
0.791743759839
0.69513025561
0.596841987573
0.508110093339
0.430992459268
0.367560247564
0.319335646251
0.284228997629
0.254678251522
0.222139354865
0.19636441425
0.177897573861
856.201517376
143.347861464
28.742779871
7.56041946162
2.33722511269
0.990561023326
0.843520100506
0.872195196339
0.809175263678
0.711541846325
0.612294358378
0.522247715401
0.44429885817
0.379253329601
0.329247853805
0.292710328729
0.262093873068
0.229011909186
0.201851602781
0.183065091015
917.638702605
150.784335278
29.5936229861
7.69740802546
2.37607149579
1.01131791454
0.865311242696
0.893206635395
0.823184622454
0.72197083893
0.622837270349
0.533843237369
0.455676620596
0.389938684005
0.338838277645
0.301246309077
0.269682459946
0.235984245233
0.207749757428
0.188258397996
997.897054938
160.462658621
30.8463398436
7.91540593674
2.43538725769
1.04011307587
0.889585746348
0.917530409616
0.844319193376
0.738053845123
0.63507798052
0.54432001505
0.465658919837
0.39933060145
0.347429710866
0.309143449952
0.277174257424
0.242948797618
0.213655670654
0.193431609226
1060.7463074
169.66326061
32.2879482031
8.17725367123
2.49610974058
1.06376818038
0.913940845049
0.943040009336
0.868411496831
0.758750075225
0.652092817258
0.558138484982
0.476885763265
0.408647706909
0.355654858413
0.316762147751
0.284296680059
0.249570244129
0.219385364448
0.198592876713
1120.42616245
177.763408688
33.387311759
8.36907824666
2.5353362432
1.07687580026
0.936762784569
0.967246107236
0.890579610644
0.779397106164
0.670494209134
0.573637408517
0.48938096763
0.418919237659
0.364424655017
0.324552317344
0.291377928954
0.256008396586
0.22497106076
0.203779742453
1180.79353826
185.37802716
34.3087352629
8.52056673019
2.56826308358
1.08872846103
0.957458385722
0.987305700742
0.907677731598
0.795678205224
0.685701050317
0.587460699974
0.502104110377
0.429955845745
0.373762728955
0.332566848958
0.298477088058
0.262397116054
0.230746023879
0.209073653628
1247.87865592
193.103083563
35.1754151974
8.66062089736
2.60764453381
1.10937338723
0.98014168075
1.00638408263
0.91905091143
0.804865552793
0.69567670243
0.598329967361
0.512817929
0.440289276603
0.383082734413
0.340711382518
0.305664871567
0.268822861852
0.236605299731
0.214339128888
1349.58272973
204.469573117
36.5183555252
8.8821581258
2.66739473171
1.13791848693
1.00392887829
1.02880149075
0.937149734298
0.817351249001
0.704791210448
0.606708582309
0.521657589663
0.449000852453
0.39111475015
0.348118402841
0.312671487451
0.275276064599
0.242379601985
0.219576222146
1447.82767609
216.98752988
38.300234703
9.18736549961
2.73602150479
1.16341338877
1.02776622135
1.05227478237
0.958590472416
0.835362703555
0.719379793358
0.618522335775
0.531341701891
0.45721416418
0.398482539314
0.354963617047
0.319133781945
0.281396268944
0.247830957073
0.22473138019
1531.79761486
227.756637546
39.6872890885
9.42175042401
2.78327208212
1.17904181659
1.05102422344
1.07458765251
0.978863283335
0.854243676491
0.73596635329
0.632213927013
0.542344500517
0.466178941921
0.406089481679
0.361767757757
0.325387660755
0.287199620351
0.253021210826
0.229734535057
1615.1620132
237.466292267
40.7694889241
9.59412004765
2.81918370838
1.19164258025
1.0726018033
1.09274202623
0.994517519325
0.869050537845
0.749608162907
0.644745474191
0.553627134281
0.475677044585
0.414044104298
0.368619775156
0.331481940374
0.292805256849
0.25796280531
0.234663085517
1705.5469108
246.927952627
41.716415623
9.74016472917
2.859674314
1.21201315594
1.0956370995
1.10819754037
1.00242764428
0.876043666193
0.757931467111
0.653750939722
0.562490464132
0.48447594181
0.422043926631
0.375505166456
0.337482370591
0.298277990249
0.262926448289
0.239486752861
1837.62305489
258.821633677
42.759126355
9.88833419813
2.90561361959
1.23695302381
1.11712548543
1.12568795925
1.01408786873
0.882303583438
0.762051604299
0.6584701323
0.568642414738
0.491079697738
0.428337088189
0.381420408849
0.343130094875
0.303639994468
0.267719381635
0.244171957123
2041.40535944
277.606295894
44.5351164094
10.1125647944
2.95335401592
1.25687905662
1.13515106343
1.14058876826
1.02714334864
0.892965878211
0.77038773576
0.665104069596
0.57432031381
0.496345158706
0.433429445203
0.386297852631
0.347951360924
0.308471711188
0.272142141577
0.248597552281
0.000526343331922
0.000516456972641
0.000508050133535
0.000500905562154
0.000494845350637
0.000489729288429
0.00048544407743
0.000481897197785
0.000479012623277
0.000476728321606
0.000474998178014
0.000473831203669
0.000473608953716
0.000477027247476
0.000498373405897
0.000604918804042
0.00120157326886
0.00697894911289
0.145820687701
3.52399810212
0.000629938965725
0.000624292671008
0.000619467901777
0.000615363084171
0.000611886578122
0.000608965451212
0.000606539085195
0.000604557340555
0.000602977946563
0.000601766285548
0.000600894871931
0.000600354893036
0.00060026199818
0.00060171547918
0.000612871621967
0.000691023925532
0.00134264544765
0.0111199509721
0.303980016859
5.79712022236
0.000723078905725
0.000720375903924
0.000718040655329
0.000716031325252
0.000714312071621
0.00071285301849
0.000711626575947
0.000710608635335
0.000709776350683
0.000709109700207
0.000708589559039
0.000708201067944
0.000707951193529
0.00070805564714
0.000710556713415
0.000734218984547
0.000996875258319
0.00661626196726
0.300926516839
6.45749412136
0.000763691442095
0.000762411335464
0.000761499523098
0.000760711073739
0.000760024211508
0.00075942924537
0.000758915847568
0.000758474994706
0.00075809674632
0.000757772739422
0.00075749391516
0.000757253262759
0.000757046577575
0.000756906151298
0.000757213247111
0.000762137868449
0.000833790789513
0.00337065330194
0.262116283117
6.61595176673
0.000771090900574
0.000766835150984
0.000766341788366
0.000766084771887
0.000765862159004
0.00076566328257
0.000765484844317
0.000765324837059
0.000765179940371
0.000765048157794
0.00076492639119
0.00076481308004
0.000764706231066
0.000764610505904
0.000764587958435
0.000765418237701
0.000782103131925
0.00208695293013
0.250069078543
6.70047179785
0.000811738009565
0.000763048463354
0.000759714360616
0.000759491572935
0.000759436385087
0.00075938864066
0.000759340832099
0.000759293361745
0.000759245510677
0.000759197756211
0.000759149311842
0.000759100670122
0.000759051270477
0.000759002489528
0.00075896357973
0.000759067927337
0.000763188426402
0.00167465461911
0.251144842595
6.84347765366
0.00128513882804
0.000798060384699
0.000756974687541
0.000754400780144
0.000754278291227
0.000754273689362
0.000754268461279
0.000754259077179
0.000754245450048
0.000754228796391
0.000754209032356
0.000754187245272
0.000754163345165
0.000754138437901
0.000754113814601
0.000754112139789
0.000755689774871
0.00157506244511
0.257973062102
7.0368926745
0.00466527236847
0.00116252549284
0.000780756932827
0.000753560047741
0.000752114694491
0.000752062493544
0.000752065343535
0.00075206615461
0.000752062957098
0.000752056970957
0.000752048181642
0.000752037716637
0.000752025507311
0.000752012558157
0.000751998950123
0.000751989675122
0.000753112321067
0.00157605765988
0.267282917825
7.25975197643
0.0190605062801
0.00346163340829
0.000968115642566
0.000763113542808
0.000751881975271
0.000751411918833
0.000751398997435
0.000751399596428
0.000751397968445
0.000751394752154
0.000751389765941
0.000751383986279
0.000751377205512
0.00075137027885
0.00075136300379
0.000751357659712
0.000752434872101
0.00160795133533
0.277763867563
7.49909772083
0.0465271466768
0.0121498826464
0.00186447560161
0.00081409435555
0.000753809213613
0.000751382046845
0.000751300267902
0.000751295096996
0.000751291092621
0.000751286961087
0.00075128223128
0.000751277661053
0.000751272854146
0.000751268497638
0.000751264226122
0.000751261876867
0.000752371730439
0.00164996522995
0.288932027939
7.74921038139
0.0706689708973
0.0267384605255
0.00420413413328
0.000969078336686
0.000759655701475
0.000751629285134
0.000751374263603
0.000751359026032
0.000751350882067
0.000751344132349
0.000751337915871
0.000751332749377
0.000751328041626
0.00075132431804
0.000751321079626
0.000751320062478
0.000752477804185
0.0016964087561
0.300622389677
8.00786239481
0.0852871657388
0.0387460708838
0.00718607762968
0.00121547499736
0.000769258875864
0.000752010277825
0.000751486122565
0.000751459558707
0.000751447730186
0.00075143847918
0.000751430589232
0.000751424398658
0.00075141917483
0.000751415327044
0.000751412263279
0.00075141169826
0.000752621455857
0.00174587238914
0.312783518959
8.27421970706
0.0945913033678
0.047274865878
0.00975430328462
0.00146963400153
0.000780205997139
0.000752419804745
0.000751590593886
0.000751554788586
0.000751541357028
0.000751531015842
0.000751522356806
0.000751515668659
0.000751510172794
0.000751506232482
0.000751503218264
0.000751502874452
0.000752767172515
0.00179807105486
0.325400269585
8.54789282348
0.101602647395
0.0537661345312
0.0118769049112
0.00170128717824
0.000791060723488
0.000752806406005
0.000751676903912
0.000751634470083
0.000751621329845
0.000751611299625
0.00075160289065
0.000751596424193
0.000751591142993
0.000751587415512
0.00075158461746
0.000751584559076
0.000752905812698
0.00185298909022
0.338466552401
8.82858726158
0.107848871943
0.0587568419391
0.0134804662342
0.00187757898941
0.000799162656739
0.000753090175159
0.000751745243542
0.000751699293599
0.00075168735776
0.000751678364527
0.00075167079171
0.000751665003903
0.000751660281653
0.00075165701314
0.000751654596314
0.000751654922894
0.00075303552927
0.00191066718092
0.351977470302
9.11601605066
0.113172682044
0.0619855534659
0.0144189891252
0.00196918327332
0.000802592404187
0.000753228198259
0.000751797855695
0.0007517517051
0.000751741309912
0.000751733621978
0.000751727126867
0.000751722221582
0.000751718223098
0.000751715539955
0.00075171359684
0.000751714373308
0.000753156706173
0.00197115488075
0.365927803869
9.40989705635
0.117165607157
0.0639667893251
0.0148896426747
0.00200297086712
0.000803216535495
0.000753274882389
0.000751837923918
0.000751793676417
0.000751785018164
0.000751778766365
0.000751773458836
0.000751769526182
0.000751766323932
0.000751764280478
0.000751762849723
0.000751764101325
0.000753270506192
0.00203450399943
0.380312586766
9.70996969819
0.120900297191
0.0656008053646
0.0152752119745
0.00203255013438
0.000803764763022
0.000753312844345
0.000751869831454
0.000751827482721
0.000751820539612
0.000751815706413
0.00075181157345
0.00075180860165
0.000751806185925
0.000751804773254
0.000751803848016
0.000751805570909
0.000753378382431
0.0021007677107
0.395127329798
10.0160009695
0.124467836052
0.067202864312
0.0157420942477
0.00208099062677
0.000805476088157
0.000753377994218
0.000751896996842
0.000751855521415
0.000751850037364
0.00075184643587
0.000751843334227
0.000751841212169
0.000751839497447
0.000751838647935
0.000751838175457
0.000751840328447
0.000753481864743
0.0021700032069
0.410368691511
10.3277945368
0.127917568854
0.0686780920246
0.0162260228833
0.00214066680023
0.000807808318587
0.000753452831688
0.000751920778006
0.0007518795598
0.000751875191193
0.000751872556644
0.000751870280486
0.00075186884604
0.000751867705581
0.00075186732049
0.000751867225995
0.000751869755787
0.000753582353204
0.00224227216409
0.426034480667
10.6451885003
0.131255749248
0.0697716786705
0.0165265064473
0.00217886974056
0.000809004706193
0.000753491103138
0.000751940872042
0.000751900452398
0.000751896975768
0.000751895108097
0.000751893493839
0.000751892613828
0.000751891940902
0.000751891933968
0.000751892149205
0.000751895002993
0.000753681027156
0.00231764305165
0.442124039958
10.9680554956
0.134568447641
0.070656235885
0.0167141543989
0.0021984206459
0.00080922386024
0.000753500686139
0.000751957846975
0.000751918698827
0.000751916009628
0.000751914798131
0.000751913745635
0.000751913330889
0.000751913049687
0.000751913357805
0.000751913833571
0.000751916976487
0.000753778847331
0.00239618930112
0.458637717285
11.2962909193
0.13799499522
0.0717338440102
0.0169823440203
0.00223040868633
0.00081013408447
0.00075353007075
0.000751973613119
0.000751935071288
0.000751933042405
0.000751932380885
0.000751931797161
0.000751931767181
0.000751931810642
0.000751932377208
0.000751933067576
0.000751936463412
0.000753876638606
0.00247799037818
0.475577035509
11.6298118336
0.141592124583
0.0731255441937
0.0174400574571
0.00229453893698
0.000812864565915
0.000753612543164
0.000751989860255
0.000751950421513
0.000751948846002
0.000751948584018
0.000751948345142
0.000751948596772
0.000751948881119
0.00075194963875
0.000751950492303
0.000751954105295
0.00075397509489
0.00256312981663
0.492944199946
11.9685489141
0.145273737878
0.0747761315252
0.0180701066498
0.00239630033541
0.000817786801971
0.000753750728457
0.000752007120007
0.000751965353903
0.000751963981853
0.000751963938391
0.0007519639025
0.000751964323338
0.000751964760799
0.000751965639598
0.000751966601959
0.000751970391053
0.000754074754364
0.00265169751266
0.510742497759
12.3124489333
0.148969315479
0.0763743202239
0.018625820811
0.00248867422558
0.000822188747853
0.000753868986966
0.000752023530498
0.000751979794022
0.00075197849363
0.000751978552888
0.000751978626851
0.000751979140185
0.000751979669305
0.00075198062003
0.000751981654492
0.000751985595811
0.000754175970612
0.00274378753915
0.528975736579
12.6614640615
0.15272131215
0.0779321806681
0.0190710362182
0.00255090291333
0.000824714355501
0.000753939395833
0.000752038115661
0.000751993395454
0.000751992190795
0.000751992342723
0.000751992509961
0.000751993096471
0.000751993699027
0.000751994704212
0.000751995795182
0.000751999877271
0.000754278972213
0.00283949954203
0.547648475251
13.0155510763
0.156623071381
0.0796633829132
0.0195659890562
0.00261454421364
0.00082720505617
0.000754011144516
0.000752051961734
0.00075200618134
0.000752005094807
0.000752005349894
0.000752005611845
0.000752006266723
0.000752006935284
0.000752007986806
0.000752009127541
0.000752013348839
0.000754383949984
0.00293893541768
0.566765342241
13.3746610953
0.160687107938
0.0817648812584
0.0202475842447
0.00270940539767
0.000831459607182
0.000754133316651
0.000752066640428
0.000752018549795
0.000752017506715
0.000752017819865
0.000752018137738
0.000752018828737
0.000752019536487
0.000752020612918
0.000752021784941
0.000752026134111
0.000754491087972
0.00304220139646
0.586331455477
13.7387444912
0.16485364346
0.0841401463939
0.0211325382206
0.00285027313238
0.000838417655376
0.00075432310287
0.000752082776222
0.000752030828836
0.000752029662656
0.000752029929787
0.000752030225525
0.000752030894087
0.000752031595166
0.000752032662705
0.000752033839736
0.000752038303113
0.000754600533198
0.00314940651212
0.606352058181
14.1077456977
0.16906269081
0.0864989111428
0.0219774879688
0.00298775153397
0.000844984373023
0.000754492490722
0.000752098113424
0.000752042787921
0.000752041418045
0.000752041570259
0.000752041789272
0.000752042395829
0.000752043057374
0.000752044093671
0.000752045254754
0.000752049823624
0.000754712336468
0.00326066498769
0.626832909948
14.4816064769
0.173211995979
0.0887424647836
0.0226776209909
0.003083109597
0.000848658599394
0.000754588336628
0.000752110978082
0.00075205383172
0.000752052333913
0.000752052406211
0.000752052568029
0.000752053128785
0.000752053757548
0.000752054770368
0.000752055916192
0.000752060598882
0.0007548264995
0.00337609423651
0.647779820255
14.8602574393
0.177422533422
0.0910635065599
0.023389352536
0.00317224958677
0.00085175626574
0.000754670515129
0.000752122398069
0.000752063754343
0.000752062215419
0.000752062273655
0.000752062419099
0.000752062968181
0.000752063582286
0.000752064590507
0.000752065728046
0.000752070540648
0.000754943024203
0.00349581425446
0.669198594223
15.2436180846
0.181624224889
0.0936163658766
0.0242363704581
0.00328887184016
0.000856508038723
0.000754799330146
0.000752133957826
0.000752072745408
0.000752071172675
0.000752071246314
0.000752071390868
0.000752071947287
0.000752072554123
0.000752073569544
0.000752074699209
0.000752079652449
0.000755061995081
0.0036199475214
0.691094981202
15.6315966913
0.185838633609
0.0963517639762
0.0252697657083
0.00345644188516
0.00086443510744
0.000755007277642
0.000752146557005
0.000752081095218
0.000752079407577
0.000752079467745
0.000752079585275
0.000752080135246
0.00075208071781
0.000752081734641
0.000752082844326
0.000752087944707
0.000755183510458
0.00374861788136
0.713474547964
16.0240931916
0.190000258312
0.0990658069233
0.0262916853593
0.0036299389436
0.0008724925069
0.000755204646717
0.000752158099344
0.000752088763945
0.000752086922132
0.000752086942849
0.000752087008154
0.000752087544118
0.000752088090699
0.000752089110099
0.000752090189504
0.000752095444167
0.000755307683224
0.00388195415747
0.736343187248
16.4210047668
0.194131554964
0.10161998861
0.0271554742415
0.00375541220387
0.00087714874818
0.000755315910181
0.000752166861185
0.000752095470915
0.00075209350662
0.000752093541443
0.000752093536577
0.000752094093924
0.000752094581047
0.000752095637281
0.000752096674162
0.000752102135714
0.000755434585018
0.00402005163634
0.759702455667
16.822405549
0.198132948055
0.104183947058
0.0279976952435
)
;

boundaryField
{
    emptyPatch
    {
        type            empty;
    }
    minY
    {
        type            fixedValue;
        value           uniform 4.5592e-05;
    }
    maxY
    {
        type            inletOutlet;
        inletValue      nonuniform List<scalar> 0();
        value           nonuniform List<scalar> 0();
    }
    maxX
    {
        type            epsilonWallFunction;
        blending        stepwise;
        value           nonuniform List<scalar> 
37
(
10.069548218
20.7940949464
25.0672992136
26.316162118
26.7715325113
27.3583774784
28.1450716723
29.0601435876
30.0487873849
31.0854918219
32.1601944655
33.269231413
34.4110578098
35.5846184094
36.7889107925
38.0229400875
39.2857871484
40.5766269152
41.8947773387
43.2396876278
44.6109534877
46.0082612697
47.4313954943
48.8801956367
50.3545815851
51.8544991612
53.3799316232
54.9308442034
56.5072187569
58.1090222467
59.7362325931
61.3887964758
63.0666296208
64.769617959
66.497616295
68.2504870851
70.0275606499
)
;
    }
    water_to_heater
    {
        type            epsilonWallFunction;
        blending        stepwise;
        value           nonuniform List<scalar> 
61
(
24.5023194062
277.546185781
277.546185781
395.652187109
395.652187109
497.590661208
497.590661208
561.207957628
597.151066025
623.488794756
623.488794756
646.472702112
646.472702112
667.169738911
667.169738911
685.454523341
700.520473794
713.39346859
713.39346859
732.763460834
732.763460834
759.588203762
759.588203762
790.336124297
824.739674224
877.970120466
877.970120466
921.020654212
921.020654212
963.05972833
963.05972833
1006.76288696
1053.28962308
1112.10490731
1112.10490731
1187.79668403
1187.79668403
1254.05039384
1254.05039384
1325.66853991
1417.60111828
1528.83725696
1528.83725696
1617.14755198
1617.14755198
1704.28162559
1704.28162559
1794.08014743
1893.19688174
2037.82336294
2037.82336294
2171.43521505
2171.43521505
2291.74152918
2291.74152918
2413.75008869
2545.84231656
2732.50400871
2732.50400871
3011.94084757
3011.94084757
)
;
    }
    procBoundary2to3
    {
        type            processor;
        value           nonuniform List<scalar> 
41
(
2253.56633128
299.482344398
46.6796477482
10.3868135012
2.99881314346
1.27019684718
1.15114960539
1.15251137091
1.03839024764
0.904091012727
0.780400218947
0.673429143021
0.581084549648
0.501921665735
0.438235049529
0.390794671785
0.352303305177
0.312718318711
0.276168604057
0.252795108495
0.00386678272963
0.000880679252296
0.000755399910213
0.000752172870769
0.000752099896531
0.000752097921478
0.000752097945144
0.000752097943924
0.000752098470308
0.000752098958453
0.000752099983118
0.000752101067445
0.000752106672909
0.000755563326844
0.0041633737561
0.783748417797
17.2255830141
0.202073065938
0.106888346409
0.00386678272963
0.0289487971866
)
;
    }
}


// ************************************************************************* //
