/*--------------------------------*- C++ -*----------------------------------*\
| =========                 |                                                 |
| \\      /  F ield         | OpenFOAM: The Open Source CFD Toolbox           |
|  \\    /   O peration     | Version:  2312                                  |
|   \\  /    A nd           | Website:  www.openfoam.com                      |
|    \\/     M anipulation  |                                                 |
\*---------------------------------------------------------------------------*/
FoamFile
{
    version     2.0;
    format      ascii;
    arch        "LSB;label=32;scalar=64";
    class       volScalarField;
    location    "0.145/water";
    object      alphat.gas;
}
// * * * * * * * * * * * * * * * * * * * * * * * * * * * * * * * * * * * * * //

dimensions      [1 -1 -1 0 0 0 0];

internalField   nonuniform List<scalar> 
1496
(
2.29002009901e-06
3.70795538032e-06
3.82392079051e-06
3.30204145366e-06
2.79058142614e-06
2.38570083955e-06
2.06387582952e-06
1.80469496333e-06
1.59701545907e-06
1.42112894289e-06
1.26132428495e-06
1.10322384079e-06
9.25604492274e-07
7.14654427375e-07
4.86425447381e-07
2.84377680157e-07
1.42333244124e-07
6.19137717187e-08
2.32584144642e-08
6.09056141507e-09
2.34601602802e-06
3.70925189725e-06
3.68733792004e-06
3.141686955e-06
2.64018002646e-06
2.24277673994e-06
1.92366873814e-06
1.67660996129e-06
1.49704822049e-06
1.3549612527e-06
1.22343829477e-06
1.07847577677e-06
8.96839465339e-07
6.74714289684e-07
4.43015880684e-07
2.48808201897e-07
1.20464945056e-07
5.2147655194e-08
1.98466845467e-08
5.48018185541e-09
2.61122963236e-06
3.58966177735e-06
3.46177751628e-06
2.92431945014e-06
2.43976332908e-06
2.05838012591e-06
1.75969721212e-06
1.54766709778e-06
1.40722904685e-06
1.30374524253e-06
1.20186142877e-06
1.06726486045e-06
8.75800130026e-07
6.38874853547e-07
4.03187738172e-07
2.1753788007e-07
1.03039370651e-07
4.4805384844e-08
1.70673568919e-08
5.13533723594e-09
2.86521865933e-06
3.38255923542e-06
3.19204409772e-06
2.69789515506e-06
2.23074816163e-06
1.86613222314e-06
1.60625132877e-06
1.44303630632e-06
1.34970264106e-06
1.28694703705e-06
1.21090212068e-06
1.07743731262e-06
8.64343635829e-07
6.06048988808e-07
3.68243851579e-07
1.9369290583e-07
9.1122453258e-08
3.88036597758e-08
1.47036283002e-08
5.20092775536e-09
2.95831535188e-06
3.22435747827e-06
2.98646341813e-06
2.5242072244e-06
2.07060977189e-06
1.7229090469e-06
1.50366130545e-06
1.39176777486e-06
1.34674958207e-06
1.32099897462e-06
1.25984961889e-06
1.10976893796e-06
8.60341350034e-07
5.79170759703e-07
3.44695869456e-07
1.80445812379e-07
8.28537921037e-08
3.37782347209e-08
1.33835659222e-08
5.53924513071e-09
2.99244526398e-06
3.1588899399e-06
2.8839932869e-06
2.433018043e-06
1.98362824974e-06
1.6530582966e-06
1.47315511228e-06
1.40917037387e-06
1.40663182426e-06
1.40733681693e-06
1.34317164919e-06
1.1615871397e-06
8.74807787111e-07
5.72388935741e-07
3.39405017459e-07
1.76043354448e-07
7.6562692675e-08
3.14185999629e-08
1.36628719947e-08
6.01971906297e-09
3.07901022205e-06
3.20464538015e-06
2.89705872549e-06
2.42397643284e-06
1.96202306761e-06
1.64538237593e-06
1.49833758018e-06
1.47312282927e-06
1.50421373158e-06
1.52095620586e-06
1.44964339686e-06
1.24623149169e-06
9.32448658734e-07
6.0073952529e-07
3.51783873356e-07
1.76305931249e-07
7.86386551111e-08
3.48790061547e-08
1.54100113397e-08
6.77637747076e-09
3.22686735547e-06
3.37287775002e-06
3.00793597375e-06
2.458153614e-06
1.96386929741e-06
1.6497101679e-06
1.52027685338e-06
1.52381492344e-06
1.58856188675e-06
1.6320980973e-06
1.57789278288e-06
1.37899691927e-06
1.04524381401e-06
6.58144535515e-07
3.71143869243e-07
2.0039463131e-07
1.01005550652e-07
4.61898435142e-08
1.93543339325e-08
8.0552993619e-09
3.41947483975e-06
3.50157517109e-06
3.0217276859e-06
2.42376769156e-06
1.92437133557e-06
1.61031172485e-06
1.48711508677e-06
1.51619081262e-06
1.62669076324e-06
1.72272563667e-06
1.7151159387e-06
1.53535499426e-06
1.15136523587e-06
6.88349085314e-07
4.12881281528e-07
2.63719008911e-07
1.54476822963e-07
7.3650667391e-08
2.84528212694e-08
1.04033056258e-08
3.19937770968e-06
3.28416391624e-06
2.84481821023e-06
2.29098757695e-06
1.82002088756e-06
1.51613937131e-06
1.40084320026e-06
1.45818258261e-06
1.62071433864e-06
1.7772279904e-06
1.81297140661e-06
1.62263244048e-06
1.17112360479e-06
7.02849597189e-07
4.77211791026e-07
3.53305412827e-07
2.39717882211e-07
1.31625637145e-07
5.01040117369e-08
1.49374119247e-08
3.04624423414e-06
3.0876737935e-06
2.63285315356e-06
2.1011420089e-06
1.66112206898e-06
1.38370667374e-06
1.29529498092e-06
1.38889735953e-06
1.5916814168e-06
1.77653579755e-06
1.81659413969e-06
1.6082932833e-06
1.16486569965e-06
7.59418416195e-07
5.53029489994e-07
4.31669581531e-07
3.21221547259e-07
2.13520750801e-07
9.24571556545e-08
2.32831336584e-08
2.87090809627e-06
2.87408590194e-06
2.4184225044e-06
1.90034887425e-06
1.48944704964e-06
1.25037015725e-06
1.20795266652e-06
1.34401982215e-06
1.56245190117e-06
1.72919545817e-06
1.74215229846e-06
1.53579412174e-06
1.15873437716e-06
8.17957453659e-07
6.12809388582e-07
4.75352426973e-07
3.66351895751e-07
2.74753924468e-07
1.42768792286e-07
3.55217983865e-08
2.71327223549e-06
2.70559314208e-06
2.26054826167e-06
1.74761377178e-06
1.3544819689e-06
1.15739499839e-06
1.1679913867e-06
1.33591503e-06
1.53508054827e-06
1.65259110668e-06
1.6280274321e-06
1.43272051296e-06
1.12044292097e-06
8.3079823941e-07
6.28088086096e-07
4.80639513806e-07
3.757401471e-07
2.9294800836e-07
1.66838726551e-07
4.62121464858e-08
2.60652247817e-06
2.62102954065e-06
2.18239410615e-06
1.65706907666e-06
1.27558424359e-06
1.12586104225e-06
1.17972102123e-06
1.33642020847e-06
1.4745438448e-06
1.53408790631e-06
1.4760976709e-06
1.29274197936e-06
1.03249592829e-06
7.85406531839e-07
5.94875982963e-07
4.54558361828e-07
3.60800036187e-07
2.81084403731e-07
1.58695072472e-07
4.72421946403e-08
2.54447996e-06
2.57863609203e-06
2.14142378956e-06
1.60610803442e-06
1.25372029834e-06
1.1538475448e-06
1.21182176397e-06
1.29127211558e-06
1.34664953704e-06
1.36005172283e-06
1.27847849547e-06
1.11130196341e-06
8.99563073292e-07
6.93480765872e-07
5.26350412911e-07
4.07230542221e-07
3.28459068715e-07
2.49208041336e-07
1.31129428493e-07
3.9574295121e-08
2.53931542706e-06
2.58454615705e-06
2.14535171055e-06
1.60564698537e-06
1.29152259205e-06
1.21502895472e-06
1.21523894745e-06
1.18163010741e-06
1.15885371943e-06
1.13750072125e-06
1.04809191748e-06
9.03787826697e-07
7.39892173445e-07
5.74507960071e-07
4.38731387388e-07
3.47211261903e-07
2.84681682012e-07
2.05088133031e-07
9.75950143428e-08
2.94762363802e-08
2.6739879363e-06
2.73201352828e-06
2.24611725545e-06
1.67435601258e-06
1.36145654201e-06
1.26157857761e-06
1.17998841448e-06
1.0539774331e-06
9.66024495402e-07
9.08749383622e-07
8.23689770941e-07
7.06045654195e-07
5.79429150171e-07
4.4792983431e-07
3.48001024974e-07
2.8600412188e-07
2.34750050527e-07
1.5727336526e-07
6.81121222127e-08
2.12980305261e-08
2.94747112931e-06
2.97708363641e-06
2.42211890632e-06
1.77846020507e-06
1.43691890161e-06
1.29652711163e-06
1.15370982427e-06
9.66651760634e-07
8.27185695374e-07
7.36805660307e-07
6.54776437031e-07
5.49533172712e-07
4.42166328232e-07
3.4240469632e-07
2.73341130207e-07
2.3130226689e-07
1.84160403505e-07
1.15066353768e-07
4.7880519895e-08
1.63164935318e-08
3.40435923397e-06
3.42157114702e-06
2.6838639609e-06
1.94842720481e-06
1.55430423043e-06
1.3592577405e-06
1.17622053679e-06
9.49579781164e-07
7.64602518102e-07
6.45695112898e-07
5.59181046603e-07
4.5134723672e-07
3.50133886426e-07
2.68870953607e-07
2.19326953715e-07
1.86347050553e-07
1.41089990597e-07
8.49056749646e-08
3.69807101066e-08
1.41553098949e-08
3.58569181412e-06
3.82585481423e-06
3.03943635476e-06
2.23103025051e-06
1.74591972425e-06
1.47442274261e-06
1.25947806991e-06
1.00841727456e-06
7.73965454471e-07
6.16280136525e-07
5.17426771149e-07
4.08327341676e-07
3.10539660483e-07
2.33199710926e-07
1.87087708437e-07
1.57049420235e-07
1.15737245239e-07
6.88964577401e-08
3.2547660082e-08
1.38462329244e-08
3.09911018951e-06
3.84777596693e-06
3.28146018826e-06
2.5304748767e-06
1.96151406762e-06
1.61202762777e-06
1.37051756424e-06
1.11751738017e-06
8.35298275149e-07
6.11961488449e-07
4.98219626227e-07
4.01911314979e-07
3.1392234004e-07
2.33757603392e-07
1.76434222661e-07
1.45155007465e-07
1.12022248587e-07
6.74126877966e-08
3.2870432542e-08
1.48099495474e-08
2.93129330038e-06
3.94649027773e-06
3.53455437738e-06
2.78987200002e-06
2.15951715805e-06
1.73226503158e-06
1.46133861265e-06
1.22670207921e-06
9.19412511266e-07
6.24222584858e-07
4.95019327307e-07
4.08968703241e-07
3.38687163082e-07
2.59645239897e-07
1.84720622209e-07
1.41617514308e-07
1.22126090075e-07
8.01949259899e-08
3.88440192199e-08
1.69906020973e-08
2.80898995171e-06
3.93685041731e-06
3.66225573438e-06
2.9298323281e-06
2.27197216672e-06
1.80212332461e-06
1.51078371384e-06
1.28242069939e-06
9.74206349836e-07
6.62893594942e-07
5.08107663706e-07
4.22458269447e-07
3.60802662769e-07
2.87230147331e-07
2.05583936248e-07
1.41084986641e-07
1.29474126248e-07
1.02367507399e-07
5.17473884115e-08
2.07486438565e-08
2.61508346237e-06
3.75519690128e-06
3.57530448764e-06
2.86302840593e-06
2.20757654008e-06
1.74671778562e-06
1.48030528977e-06
1.27078609456e-06
9.81681554757e-07
6.99839411935e-07
5.30300484727e-07
4.38150126037e-07
3.74409853202e-07
3.03032330072e-07
2.20164542484e-07
1.43038884693e-07
1.2678522264e-07
1.19879185386e-07
6.90304272309e-08
2.59485720622e-08
2.4063201109e-06
3.47934442965e-06
3.29820939828e-06
2.61603897277e-06
1.99900639898e-06
1.59677159429e-06
1.39421224849e-06
1.20933458944e-06
9.43625607008e-07
6.97299970718e-07
5.34930053305e-07
4.40727800149e-07
3.73951412693e-07
3.04068284199e-07
2.24881839834e-07
1.44051952188e-07
1.21617254844e-07
1.22974541558e-07
8.16387652103e-08
3.07762108094e-08
2.19642473848e-06
3.24176489314e-06
2.990488975e-06
2.33129692028e-06
1.77038675146e-06
1.44712203308e-06
1.30358957092e-06
1.116413253e-06
8.70331144264e-07
6.58360673861e-07
5.13975751452e-07
4.24903451031e-07
3.58599631723e-07
2.91271227807e-07
2.17455277701e-07
1.41864597145e-07
1.19551206067e-07
1.19053752026e-07
8.29674833169e-08
3.26244657421e-08
2.04974343438e-06
3.03696250212e-06
2.76364862956e-06
2.10454289603e-06
1.6024935508e-06
1.35173489641e-06
1.2314488554e-06
1.01233263326e-06
7.82811180185e-07
6.00527043491e-07
4.76246913035e-07
3.95585262132e-07
3.32177006705e-07
2.68272288197e-07
1.99947141519e-07
1.37430303642e-07
1.20067976953e-07
1.13680426512e-07
7.6619902084e-08
3.07182046442e-08
1.98007717121e-06
2.92979727309e-06
2.66190533667e-06
1.98416899645e-06
1.51905770531e-06
1.31187017592e-06
1.17992924914e-06
9.15098883296e-07
6.97865146739e-07
5.40154070719e-07
4.33513458504e-07
3.60777108932e-07
3.00653302393e-07
2.40310518412e-07
1.77333520892e-07
1.34375605318e-07
1.21721186489e-07
1.06128080712e-07
6.64324844073e-08
2.64284047625e-08
1.95993467289e-06
2.90105407566e-06
2.62180976214e-06
1.93335917255e-06
1.48386631459e-06
1.28984058453e-06
1.13990937476e-06
8.40103924658e-07
6.26778930809e-07
4.87724249693e-07
3.94498610449e-07
3.27435209104e-07
2.69935195867e-07
2.13106368358e-07
1.60913107463e-07
1.35175525465e-07
1.21444567699e-07
9.48701042263e-08
5.45117299537e-08
2.10658470724e-08
1.97594171209e-06
2.91583964567e-06
2.61261120689e-06
1.91035785128e-06
1.46114702179e-06
1.26667871119e-06
1.11684390685e-06
7.99603948325e-07
5.69083227885e-07
4.43410620502e-07
3.61286438322e-07
2.98581733406e-07
2.43245701943e-07
1.91856145876e-07
1.56285143846e-07
1.37547693863e-07
1.15362650668e-07
8.02068146253e-08
4.18902291221e-08
1.58339592754e-08
2.00750221e-06
2.9475004477e-06
2.6319223466e-06
1.90861623219e-06
1.45211477227e-06
1.2575647892e-06
1.11964449054e-06
8.10117735768e-07
5.42631602004e-07
4.09736120322e-07
3.34999337362e-07
2.77003870419e-07
2.2614325349e-07
1.84949742488e-07
1.59020410786e-07
1.35328654863e-07
1.02128064342e-07
6.32491600311e-08
2.99052431858e-08
1.18781008262e-08
2.03626551221e-06
2.98044256649e-06
2.66107432791e-06
1.91081569604e-06
1.45435598183e-06
1.27244734071e-06
1.15384592602e-06
8.76512680706e-07
5.71802415722e-07
4.05970697128e-07
3.2390633234e-07
2.69283904443e-07
2.2449631785e-07
1.89833442543e-07
1.60092863486e-07
1.24199622993e-07
8.35057580879e-08
4.58951380501e-08
2.07211605202e-08
9.31079896017e-09
2.02542942357e-06
2.96208936513e-06
2.65187646849e-06
1.8952390176e-06
1.46839666399e-06
1.31939422049e-06
1.22408919786e-06
9.82223960974e-07
6.63272926862e-07
4.54574815643e-07
3.47443297921e-07
2.86160553528e-07
2.3893975695e-07
1.97048746751e-07
1.52600147854e-07
1.05492702226e-07
6.3182956546e-08
3.20338065626e-08
1.52415489634e-08
7.79186270504e-09
1.96269273909e-06
2.71278629973e-06
2.54249445227e-06
1.8637060331e-06
1.50948660189e-06
1.40848046642e-06
1.33684862325e-06
1.1205300146e-06
8.01268501271e-07
5.56781956802e-07
4.17652861719e-07
3.31579740787e-07
2.63316703393e-07
1.99576790183e-07
1.37896163573e-07
8.52770539729e-08
4.71623005658e-08
2.41198015416e-08
1.25785939007e-08
7.09227751162e-09
1.97513366838e-06
2.47353501997e-06
2.36484847438e-06
1.86137621137e-06
1.60447413847e-06
1.54927352833e-06
1.49585724306e-06
1.29433523719e-06
9.74249624845e-07
6.99340591673e-07
5.23418769458e-07
3.99172557219e-07
2.94028627903e-07
2.02871144592e-07
1.27221145684e-07
7.31488732419e-08
3.98269028943e-08
2.1375556871e-08
1.19794524017e-08
7.15901364248e-09
2.277056504e-06
2.45978647353e-06
2.31532053391e-06
1.96295521875e-06
1.77861832933e-06
1.74527997729e-06
1.69874965174e-06
1.5056596923e-06
1.18383615878e-06
8.79488856663e-07
6.58722779207e-07
4.86838189976e-07
3.44659732183e-07
2.28600499301e-07
1.38335232661e-07
7.76855064831e-08
4.22298889422e-08
2.3220353059e-08
1.34023222717e-08
8.16425396213e-09
2.60551268922e-06
2.68228172916e-06
2.44230212804e-06
2.1295279771e-06
1.97888481254e-06
1.95324312207e-06
1.91428628273e-06
1.7337463183e-06
1.41305511559e-06
1.07832257246e-06
8.10326157886e-07
6.01655953347e-07
4.37273574128e-07
3.01869811366e-07
1.91797639362e-07
1.11640091314e-07
6.09853742175e-08
3.3173258912e-08
1.8791568544e-08
1.1144006696e-08
3.4677962794e-10
1.14702959639e-09
2.87451908365e-09
5.42099113219e-09
7.59233563889e-09
8.52576822861e-09
3.86561140376e-08
3.82968270438e-07
1.41157816012e-06
2.36769646197e-06
3.0395861158e-06
3.43429064789e-06
3.54290623049e-06
3.38319828213e-06
3.09988085502e-06
3.00650878011e-06
1.21061991394e-09
3.93605496608e-10
1.66809865035e-10
1.28885607523e-10
3.73077288263e-10
1.2987109008e-09
3.2388143538e-09
6.15133451548e-09
8.22031274337e-09
9.30848355019e-09
4.30862477263e-08
3.83497328088e-07
1.40005356609e-06
2.3570951699e-06
3.03213993785e-06
3.43417223818e-06
3.5565589066e-06
3.41598743331e-06
3.14200463696e-06
3.02785979401e-06
1.33310040978e-09
4.95784481432e-10
2.11133030416e-10
1.45193173971e-10
4.04770871394e-10
1.41740715297e-09
3.61705122734e-09
6.82967233607e-09
8.65834374458e-09
9.75259279571e-09
4.42719562361e-08
3.72414350523e-07
1.37391985747e-06
2.33465739608e-06
3.01560908763e-06
3.42717448842e-06
3.56555259915e-06
3.44864214557e-06
3.19285062629e-06
3.06448724851e-06
1.52349975107e-09
6.34244647498e-10
2.70399409461e-10
1.64197667438e-10
4.06904539595e-10
1.44564566687e-09
3.85002264864e-09
7.18949314999e-09
8.83624138559e-09
9.67995363749e-09
4.12670226318e-08
3.48139893877e-07
1.33289606762e-06
2.30071924432e-06
2.99071450341e-06
3.41392180919e-06
3.56964319843e-06
3.47929707856e-06
3.24983393206e-06
3.11754985252e-06
1.7687969161e-09
7.88224627047e-10
3.39706640001e-10
1.83701049999e-10
3.70695655808e-10
1.31797657575e-09
3.72419489647e-09
7.09787641683e-09
8.79605678127e-09
9.21808234443e-09
3.46671774263e-08
3.12429208562e-07
1.27890644932e-06
2.25695362647e-06
2.95902215685e-06
3.39551298793e-06
3.56874842398e-06
3.5057976569e-06
3.30941062163e-06
3.18614141982e-06
2.05077121484e-09
9.57229889853e-10
4.12878222835e-10
2.0842502646e-10
3.09463358447e-10
1.09356347064e-09
3.32981167733e-09
6.72823535501e-09
8.64739155259e-09
8.66034817956e-09
2.61420344576e-08
2.6956926328e-07
1.21588160487e-06
2.20617038566e-06
2.92275830203e-06
3.37346999785e-06
3.56316901815e-06
3.52610758898e-06
3.36682649842e-06
3.26676024057e-06
2.35510203487e-09
1.12917936049e-09
4.90741883402e-10
2.35824971484e-10
2.40945538709e-10
7.77851388231e-10
2.68796986354e-09
6.03582399387e-09
8.36107016414e-09
8.22772267496e-09
1.79360033337e-08
2.25685816715e-07
1.1493347909e-06
2.1520034486e-06
2.88454190394e-06
3.34956211678e-06
3.55365511343e-06
3.53885583265e-06
3.41707724582e-06
3.35334232288e-06
2.73654704484e-09
1.3043480149e-09
5.73634084359e-10
2.61880556565e-10
2.00180521269e-10
4.6850996115e-10
1.88009170724e-09
4.95060366396e-09
7.82236076694e-09
7.95264111024e-09
1.19121868598e-08
1.87029923311e-07
1.08522420677e-06
2.09826504663e-06
2.84694327579e-06
3.32552395552e-06
3.54135591363e-06
3.54382596773e-06
3.45617171551e-06
3.43814660741e-06
3.26244057206e-09
1.50764389987e-09
6.51496230642e-10
2.94233240819e-10
1.65209053946e-10
2.88657106227e-10
1.19296430738e-09
3.71796837606e-09
6.96428937764e-09
7.72593903892e-09
8.55630017736e-09
1.57784274602e-07
1.02845377013e-06
2.04823092542e-06
2.81207410486e-06
3.3028013041e-06
3.52763090143e-06
3.54204654943e-06
3.48209866534e-06
3.51311916017e-06
4.07312342286e-09
1.76856156846e-09
7.3425634933e-10
3.28663065104e-10
1.72697617312e-10
2.21989015355e-10
7.51509097751e-10
2.6616609353e-09
5.86161882498e-09
7.40771683555e-09
7.25330784272e-09
1.39630200995e-07
9.8220023226e-07
2.00420830939e-06
2.78133988684e-06
3.28237592348e-06
3.51377587771e-06
3.53543568817e-06
3.49515391208e-06
3.5714907181e-06
5.36615568858e-09
2.12701890795e-09
8.30670033478e-10
3.61911791856e-10
1.81715297305e-10
1.72653742761e-10
5.10676071599e-10
1.94425033357e-09
4.78208096925e-09
6.95497265694e-09
6.92356670973e-09
1.29276591922e-07
9.4845589815e-07
1.97024080746e-06
2.75765301918e-06
3.2660764036e-06
3.50132320116e-06
3.52634774531e-06
3.49766143418e-06
3.60952438803e-06
7.26409726342e-09
2.56668530389e-09
9.39155076108e-10
3.91791711144e-10
1.90771829763e-10
1.44750389538e-10
3.97317638106e-10
1.54394286782e-09
3.9980677071e-09
6.48175492839e-09
6.78008161912e-09
1.22809919932e-07
9.27643686242e-07
1.94878851173e-06
2.74290023901e-06
3.25551843605e-06
3.49207801718e-06
3.51751267784e-06
3.49350241323e-06
3.62779641384e-06
9.5006234094e-09
3.01027883546e-09
1.04235900674e-09
4.14364563123e-10
1.98369181539e-10
1.44387463506e-10
3.50824920967e-10
1.34362695626e-09
3.54649141018e-09
6.11534896126e-09
6.70472697476e-09
1.19109557339e-07
9.18059929233e-07
1.93883795356e-06
2.73627530546e-06
3.25012081778e-06
3.48601966011e-06
3.51034256682e-06
3.48653350763e-06
3.63027785729e-06
1.12664626701e-08
3.30495883072e-09
1.10697869538e-09
4.26777888396e-10
2.03713985193e-10
1.46211409951e-10
3.36131518549e-10
1.24983385593e-09
3.33499214272e-09
5.91476690592e-09
6.68486592864e-09
1.17457997106e-07
9.17198890441e-07
1.93807839586e-06
2.73607473852e-06
3.24874496035e-06
3.48259168395e-06
3.50543313337e-06
3.48002602643e-06
3.62315537772e-06
1.13954994733e-08
3.30903373182e-09
1.11878564543e-09
4.28985331667e-10
2.06660527266e-10
1.48999517917e-10
3.3653337778e-10
1.21240312275e-09
3.24900226555e-09
5.84485271516e-09
6.7105267638e-09
1.17172259588e-07
9.2230293067e-07
1.94365577567e-06
2.74028280622e-06
3.25014527917e-06
3.48109208745e-06
3.50280306317e-06
3.47624373606e-06
3.61311955638e-06
1.0030003413e-08
3.07271342555e-09
1.08475005565e-09
4.23880765915e-10
2.08408493233e-10
1.52580422449e-10
3.42871663952e-10
1.19606656876e-09
3.20588786855e-09
5.82945048322e-09
6.75669000629e-09
1.17604726952e-07
9.3070103405e-07
1.95268783841e-06
2.74697474874e-06
3.25324396638e-06
3.48088593247e-06
3.50204714351e-06
3.47619877915e-06
3.60580215992e-06
8.20634848748e-09
2.74678410865e-09
1.02345490989e-09
4.15697692615e-10
2.10170962101e-10
1.56708219706e-10
3.48054600627e-10
1.17248255298e-09
3.14452868293e-09
5.7843820902e-09
6.7906562473e-09
1.18227556743e-07
9.40147730553e-07
1.96277016914e-06
2.75468539756e-06
3.25734913962e-06
3.48156925836e-06
3.50253113582e-06
3.47967548123e-06
3.60480206673e-06
6.7212709194e-09
2.45686454514e-09
9.54897313349e-10
4.07274615129e-10
2.12493513415e-10
1.60736945521e-10
3.46526729127e-10
1.12016003145e-09
3.01564376183e-09
5.63462392974e-09
6.77921190451e-09
1.18745170642e-07
9.49253152053e-07
1.97249510672e-06
2.7627259983e-06
3.26230200238e-06
3.48307487487e-06
3.50361541015e-06
3.48550280173e-06
3.61132478008e-06
5.83890360399e-09
2.26899978354e-09
8.95969875883e-10
4.00421154205e-10
2.15063910163e-10
1.63627687178e-10
3.36838721519e-10
1.03733669645e-09
2.8064399628e-09
5.34643076516e-09
6.69452319295e-09
1.19157727056e-07
9.57758290811e-07
1.98173233924e-06
2.77128445934e-06
3.26846598472e-06
3.48567302575e-06
3.50485366008e-06
3.49200418028e-06
3.62432173163e-06
5.53638384841e-09
2.20334840167e-09
8.63268039329e-10
3.96428906335e-10
2.16848519279e-10
1.65156638801e-10
3.25531204197e-10
9.43606109904e-10
2.55348940324e-09
4.94927015383e-09
6.52226261931e-09
1.19727449952e-07
9.66429080971e-07
1.99150324713e-06
2.78124142821e-06
3.27654678067e-06
3.48986488871e-06
3.50611209233e-06
3.49750425553e-06
3.6410305068e-06
5.63632231674e-09
2.22764869468e-09
8.58547284775e-10
3.96103343332e-10
2.18860761658e-10
1.66007513895e-10
3.16903848429e-10
8.62438468204e-10
2.31694696891e-09
4.52290479802e-09
6.27440149075e-09
1.20886891948e-07
9.76637970112e-07
2.00350728715e-06
2.79379236858e-06
3.28732341134e-06
3.4962166207e-06
3.50758437361e-06
3.50076396254e-06
3.65783617437e-06
6.0612996249e-09
2.32569037645e-09
8.71947102182e-10
3.99652251535e-10
2.216274881e-10
1.67258731772e-10
3.08847151797e-10
8.08195795095e-10
2.143985872e-09
4.15898273466e-09
6.00089686294e-09
1.23216327023e-07
9.89887300766e-07
2.0195061351e-06
2.81002102429e-06
3.30138105853e-06
3.50518594305e-06
3.50971054122e-06
3.50124292431e-06
3.67127724789e-06
6.7768065128e-09
2.480050222e-09
8.9705280772e-10
4.06162600498e-10
2.25134721484e-10
1.69714725492e-10
3.02240468602e-10
7.86015002627e-10
2.05564167962e-09
3.92225360578e-09
5.78120693068e-09
1.27443647078e-07
1.0076347215e-06
2.04073711983e-06
2.83051359765e-06
3.31889007801e-06
3.51697148494e-06
3.513029441e-06
3.49913480096e-06
3.67889627943e-06
7.6929239517e-09
2.65057110371e-09
9.27836419512e-10
4.14604355752e-10
2.29577768976e-10
1.7378877365e-10
3.05356733682e-10
7.9604164241e-10
2.04998161042e-09
3.83594955759e-09
5.68852055755e-09
1.34365871407e-07
1.03119871231e-06
2.06745548684e-06
2.8550789831e-06
3.33946879228e-06
3.53141797419e-06
3.51801833989e-06
3.49520033715e-06
3.67965827436e-06
8.60914642901e-09
2.79551470262e-09
9.60402972297e-10
4.26067055191e-10
2.3577592109e-10
1.79437314849e-10
3.2072586538e-10
8.32993574873e-10
2.10634228688e-09
3.87395729984e-09
5.74751353663e-09
1.44637959628e-07
1.06094529124e-06
2.09873135608e-06
2.882678302e-06
3.36219230679e-06
3.54802249326e-06
3.5249881432e-06
3.49051016238e-06
3.67388667681e-06
9.25226982703e-09
2.89653551739e-09
9.95855065047e-10
4.43418601362e-10
2.44882874919e-10
1.86919986616e-10
3.49569695221e-10
8.97529368099e-10
2.21931310803e-09
3.99405155096e-09
5.91905473894e-09
1.57810759784e-07
1.09505787263e-06
2.13266793638e-06
2.91159818625e-06
3.3857588283e-06
3.56604461959e-06
3.53405790548e-06
3.48619856342e-06
3.66288466064e-06
9.40182747085e-09
2.94937282235e-09
1.03785582344e-09
4.70121251389e-10
2.58225888589e-10
1.96645088559e-10
3.86782100631e-10
9.96918237661e-10
2.41198660294e-09
4.25027645742e-09
6.26404773246e-09
1.73549515586e-07
1.13115851865e-06
2.16669478546e-06
2.93978746082e-06
3.40875498007e-06
3.58467762148e-06
3.54518854769e-06
3.48326871051e-06
3.64843575209e-06
8.94357786372e-09
2.94865698213e-09
1.0943558004e-09
5.0881511013e-10
2.77318834082e-10
2.08685939124e-10
4.2098677223e-10
1.12311563425e-09
2.65946974134e-09
4.61829701389e-09
6.76520927896e-09
1.90471747071e-07
1.16602069198e-06
2.19804261739e-06
2.9653117196e-06
3.42996738113e-06
3.60323342034e-06
3.55824703417e-06
3.48246547076e-06
3.63232123806e-06
8.04541505215e-09
2.9196617345e-09
1.16976086394e-09
5.60400722714e-10
3.04153965428e-10
2.23007975599e-10
4.50918027842e-10
1.2595771073e-09
2.92490639804e-09
5.03318014766e-09
7.31544377314e-09
2.05969808608e-07
1.19596565799e-06
2.22453711072e-06
2.98682989345e-06
3.44865467599e-06
3.62128148879e-06
3.57307095924e-06
3.4842334657e-06
3.61598986938e-06
7.0322671199e-09
2.88574036779e-09
1.26293568074e-09
6.23770877475e-10
3.40230050692e-10
2.39459566218e-10
4.76728042691e-10
1.38535681991e-09
3.17531429152e-09
5.43909829267e-09
7.83277005249e-09
2.1843472449e-07
1.2191998578e-06
2.24510622586e-06
3.00388505391e-06
3.46466030424e-06
3.63868511377e-06
3.58950866886e-06
3.48876120606e-06
3.60046593141e-06
6.12210725053e-09
2.85550757527e-09
1.36760121835e-09
6.96670750206e-10
3.83450828619e-10
2.57970549441e-10
4.9457700038e-10
1.47969753586e-09
3.38090701376e-09
5.7902855254e-09
8.27581294701e-09
2.27487673026e-07
1.23568592943e-06
2.25990514812e-06
3.01684876017e-06
3.47830364844e-06
3.65551836617e-06
3.60741770692e-06
3.49607185553e-06
3.58645632004e-06
5.37856788553e-09
2.83066564915e-09
1.48073386238e-09
7.78442793981e-10
4.31861948151e-10
2.78357756484e-10
5.03000638542e-10
1.53281112364e-09
3.52455153148e-09
6.06509973208e-09
8.63856032933e-09
2.33447393403e-07
1.24637708836e-06
2.2698827733e-06
3.0265393444e-06
3.49010323966e-06
3.67190665803e-06
3.62662185045e-06
3.50610177494e-06
3.57453424647e-06
4.8190243328e-09
2.82623299898e-09
1.60765408764e-09
8.71831056362e-10
4.84585084902e-10
3.01343268475e-10
5.02686700922e-10
1.54513521274e-09
3.61024638181e-09
6.27136449509e-09
8.93429789005e-09
2.3682658319e-07
1.2524533292e-06
2.27609737736e-06
3.03374099407e-06
3.500484283e-06
3.68786981842e-06
3.64683912299e-06
3.51871790161e-06
3.56527047856e-06
4.46771914148e-09
2.87618107393e-09
1.76593882169e-09
9.82697202837e-10
5.40759922383e-10
3.27378522152e-10
4.97706108392e-10
1.53061823598e-09
3.64919460212e-09
6.42549700585e-09
9.16823667009e-09
2.37961882093e-07
1.25468681521e-06
2.27920925447e-06
3.03889355168e-06
3.50960393037e-06
3.70321149218e-06
3.6675879791e-06
3.53365280484e-06
3.55925478252e-06
4.36685732807e-09
3.03467925954e-09
1.98508190434e-09
1.11706470075e-09
5.99435561736e-10
3.55819444839e-10
4.91148156429e-10
1.49082883873e-09
3.64562074481e-09
6.52395998553e-09
9.31896469648e-09
2.3694380612e-07
1.2533323093e-06
2.2793566283e-06
3.0420444775e-06
3.5173316751e-06
3.71746017917e-06
3.68805522159e-06
3.55036497199e-06
3.55705862909e-06
4.59313076e-09
3.37709249176e-09
2.29467869746e-09
1.27586938094e-09
6.61021978229e-10
3.86660286193e-10
4.86912524509e-10
1.43192555003e-09
3.58571559895e-09
6.5354558586e-09
9.36310375362e-09
2.33825761568e-07
1.24825691801e-06
2.27628635785e-06
3.04300021006e-06
3.52336686339e-06
3.72992063712e-06
3.70703633422e-06
3.5678869337e-06
3.55921531562e-06
5.27970935237e-09
3.99218261934e-09
2.69562141027e-09
1.44815043438e-09
7.29858949096e-10
4.21690742561e-10
4.87277798324e-10
1.35526029998e-09
3.46628038683e-09
6.45962139589e-09
9.31455425702e-09
2.28556247335e-07
1.23900524475e-06
2.26980141628e-06
3.04168289392e-06
3.52738686608e-06
3.7395534214e-06
3.72239446405e-06
3.58399489842e-06
3.56554596483e-06
6.92043257296e-09
5.06252696908e-09
3.14983556688e-09
1.60057728659e-09
7.94712422016e-10
4.59806394852e-10
4.86238086612e-10
1.12044238782e-09
3.06489814683e-09
5.99086504057e-09
8.9029136003e-09
2.18863748306e-07
1.22358563795e-06
2.26032189771e-06
3.03876821593e-06
3.52931003632e-06
3.74462695106e-06
3.72914497486e-06
3.58912129489e-06
3.56641533747e-06
)
;

boundaryField
{
    emptyPatch
    {
        type            empty;
    }
    minY
    {
        type            zeroGradient;
    }
    maxY
    {
        type            calculated;
        value           nonuniform List<scalar> 
40
(
2.60382224638e-06
2.6807952634e-06
2.44079624401e-06
2.12821597196e-06
1.9777613351e-06
1.95222653609e-06
1.91338332367e-06
1.73298761273e-06
1.41253490605e-06
1.07800576632e-06
8.10161982102e-07
6.0155430859e-07
4.37203447859e-07
3.0182516554e-07
1.91772312954e-07
1.11627401509e-07
6.09795725784e-08
3.31705162068e-08
1.87901225575e-08
1.11431215718e-08
6.9198337233e-09
5.06202789542e-09
3.14949285961e-09
1.60039009898e-09
7.94611645477e-10
4.59746042154e-10
4.8617622238e-10
1.12030723514e-09
3.06454266211e-09
5.99018890943e-09
8.90192794499e-09
2.18839849537e-07
1.22345344357e-06
2.26007975768e-06
3.03844486757e-06
3.52893651872e-06
3.74423235279e-06
3.72875330063e-06
3.58874532998e-06
3.5660409435e-06
)
;
    }
    water_to_cooler
    {
        type            compressible::alphatWallBoilingWallFunction;
        phaseType       vapor;
        relax           constant 1;
        partitioningModel
        {
            type            Lavieville;
            alphaCrit       0.2;
        }
        otherPhase      liquid;
        dmdt            uniform 0;
        dDep            uniform 1e-05;
        qQuenching      uniform 0;
        alphatConv      uniform 0;
        value           uniform 3.01273722487e-05;
    }
    water_to_heater
    {
        type            compressible::alphatWallBoilingWallFunction;
        phaseType       vapor;
        relax           constant 1;
        partitioningModel
        {
            type            Lavieville;
            alphaCrit       0.2;
        }
        otherPhase      liquid;
        dmdt            uniform 0;
        dDep            uniform 1e-05;
        qQuenching      uniform 0;
        alphatConv      uniform 0;
        value           nonuniform List<scalar> 
59
(
5.60534419026e-06
5.60534419026e-06
5.10174102642e-06
2.84476686407e-06
8.82016818641e-07
8.82016818641e-07
2.85548135636e-07
2.85548135636e-07
9.93694042569e-08
9.93694042569e-08
4.88776447652e-08
4.86988065398e-08
7.50536960033e-08
7.50536960033e-08
3.91032799537e-07
3.91032799537e-07
4.95177259855e-07
4.95177259855e-07
4.7693653837e-07