/*--------------------------------*- C++ -*----------------------------------*\
| =========                 |                                                 |
| \\      /  F ield         | OpenFOAM: The Open Source CFD Toolbox           |
|  \\    /   O peration     | Version:  2312                                  |
|   \\  /    A nd           | Website:  www.openfoam.com                      |
|    \\/     M anipulation  |                                                 |
\*---------------------------------------------------------------------------*/
FoamFile
{
    version     2.0;
    format      ascii;
    arch        "LSB;label=32;scalar=64";
    class       volScalarField;
    location    "0.315/water";
    object      Tf.gasAndLiquid;
}
// * * * * * * * * * * * * * * * * * * * * * * * * * * * * * * * * * * * * * //

dimensions      [0 0 0 1 0 0 0];

internalField   nonuniform List<scalar> 
6000
(
314.483318201
306.210682962
302.67480898
301.086131591
300.457642358
300.09265227
300.00396876
300.000023101
300.000000018
300
300
300
300
300
300
300
300
300
300
300
320.41240981
308.402538112
303.056664134
301.119647708
300.405102634
300.147378247
300.047865957
300.005353278
300.000073288
300.000000066
300
300
300
300
300
300
300
300
300
300
320.453434215
307.967123174
302.748035019
300.924972569
300.30641481
300.101365583
300.033441441
300.008412771
300.000573248
300.000005786
300.000000001
300
300
300
300
300
300
300
300
300
319.603163624
307.948993429
302.858928771
300.964460503
300.314560145
300.099832434
300.03059194
300.009043915
300.001458804
300.000052628
300.000000493
300
300
300
300
300
300
300
300
300
318.736286038
307.777604411
302.961038384
301.046902558
300.354901984
300.11706254
300.036411166
300.010469383
300.002862511
300.000250612
300.00000581
300.000000001
300
300
300
300
300
300
300
300
317.746519051
307.439523672
302.938604068
301.08812736
300.385767374
300.134575614
300.044917264
300.013351526
300.003630513
300.000678317
300.000029971
300.000000576
300
300
300
300
300
300
300
300
317.18486963
307.16001091
302.862159562
301.091269626
300.401552973
300.147093348
300.052932556
300.016966794
300.004619351
300.001229035
300.000122032
300.000003424
300
300
300
300
300
300
300
300
317.147509458
307.032011256
302.786696237
301.073886649
300.408065379
300.156631419
300.060273959
300.021098464
300.005952146
300.001500508
300.000323718
300.000014071
300.000000007
300
300
300
300
300
300
300
317.198795331
307.045899438
302.796732695
301.086775005
300.422412826
300.168496366
300.068672331
300.025973475
300.007805277
300.001874037
300.000480524
300.000053619
300.000000239
300
300
300
300
300
300
300
317.222830618
307.092269967
302.833835759
301.115751693
300.443217181
300.18304677
300.078246674
300.031673349
300.010195995
300.00241301
300.000550295
300.000140146
300.000004086
300.000000003
300
300
300
300
300
300
317.301327549
307.121026495
302.854603252
301.139420958
300.464075555
300.198412699
300.088469846
300.037859608
300.013051598
300.003109438
300.000641469
300.000164073
300.000021254
300.000000155
300
300
300
300
300
300
317.387267895
307.084156759
302.825924851
301.137164551
300.474484323
300.210175521
300.097573068
300.043734093
300.016127275
300.003966544
300.000746571
300.000170159
300.000053432
300.000002277
300.000000002
300
300
300
300
300
317.478511048
306.948594561
302.724987876
301.097597613
300.468445189
300.215282423
300.103572663
300.048270533
300.018888933
300.004972751
300.000877503
300.000175897
300.000050083
300.000008071
300.000000055
300
300
300
300
300
317.515927885
306.858581157
302.647582614
301.058270053
300.456696297
300.215561373
300.106637317
300.051280041
300.021092951
300.005988437
300.001055884
300.000183606
300.000046439
300.000015416
300.000000442
300
300
300
300
300
317.513776329
306.80166177
302.591109402
301.02673721
300.444058909
300.212648229
300.107602865
300.053205351
300.022851454
300.006974695
300.001271388
300.000195363
300.000042767
300.000015275
300.000001175
300.000000002
300
300
300
300
317.440923498
306.776460579
302.558428128
301.006494561
300.434596475
300.209883443
300.108398052
300.055021937
300.024592919
300.008038849
300.001544768
300.000212982
300.000039207
300.000012342
300.000001818
300.000000009
300
300
300
300
317.325429535
306.754797104
302.537709108
300.993736564
300.429420863
300.209606838
300.110400704
300.057641426
300.026833426
300.00939121
300.001928828
300.000242271
300.000036003
300.000009466
300.000002176
300.000000029
300
300
300
300
317.082634469
306.673078512
302.495358105
300.973516517
300.422565592
300.209900016
300.113779656
300.061569674
300.02998529
300.011260741
300.002501171
300.000294949
300.000034186
300.000007108
300.00000184
300.000000064
300
300
300
300
316.584819378
306.614374769
302.508244798
300.970874903
300.419789613
300.212685007
300.119577613
300.067395424
300.034411889
300.013846931
300.0033371
300.000388202
300.000036763
300.000006164
300.000001174
300.00000008
300
300
300
300
316.439595022
306.683245065
302.587126731
301.00315447
300.432557703
300.22313388
300.129651382
300.075676379
300.040215386
300.017122035
300.004435298
300.000530909
300.000047872
300.00000727
300.000001163
300.000000091
300
300
300
300
317.15317543
307.055207048
302.776740869
301.095729389
300.476111412
300.24663197
300.145087622
300.086398028
300.047153453
300.020834699
300.005719812
300.000724128
300.000066936
300.000010165
300.000001571
300.000000141
300
300
300
300
318.204169595
307.5116943
302.99635804
301.213770679
300.537591386
300.278553594
300.163708097
300.098417379
300.054743157
300.02481367
300.007086948
300.00094985
300.000092472
300.000014331
300.000002199
300.000000241
300
300
300
300
318.510643034
307.65560929
303.080832051
301.275454243
300.579775348
300.304944009
300.180648147
300.109912501
300.062449053
300.028905401
300.008460259
300.001188399
300.000123583
300.00001945
300.000002984
300.000000342
300
300
300
300
318.587870828
307.696525198
303.113725245
301.301638756
300.601879067
300.322238766
300.193843809
300.120032673
300.069905382
300.033209945
300.009852475
300.00143831
300.000156376
300.000025073
300.000003864
300.000000446
300
300
300
300
318.604683971
307.690978297
303.112923154
301.305482045
300.610552457
300.332519886
300.203641584
300.12851429
300.076376457
300.037255996
300.011359441
300.001710449
300.000188774
300.000030292
300.000004766
300.000000575
300
300
300.000000001
300
318.646760106
307.651561401
303.083573718
301.295285274
300.611433395
300.338449016
300.210930319
300.135306418
300.081273906
300.040416756
300.013026994
300.002017046
300.000220449
300.000034564
300.000005522
300.000000714
300
300
300
300
318.626264634
307.571109925
303.022214253
301.27274122
300.607893009
300.341967575
300.216211303
300.140016941
300.084250786
300.042463571
300.014448859
300.002397284
300.000254296
300.00003724
300.000006096
300.00000085
300
300
300
300
318.591370807
307.418616724
302.916626157
301.230444686
300.597325232
300.342299888
300.218868871
300.141882434
300.08514955
300.043244251
300.015320708
300.002750359
300.000285733
300.000039231
300.000006715
300.000000966
300.000000022
300
300
300
318.491074381
307.355087239
302.870281028
301.204615899
300.588473405
300.340940585
300.218803038
300.140830793
300.083991406
300.042746443
300.015534
300.00298349
300.000312618
300.000043082
300.000007038
300.000001007
300.000000039
300
300
300
318.442515152
307.341274405
302.862251596
301.19843585
300.585161697
300.339103468
300.216189628
300.137426222
300.081239318
300.041294712
300.015306706
300.003126585
300.000339014
300.000045224
300.000006891
300.000000882
300.000000008
300
300
300.000000002
318.395251988
307.34173058
302.869419041
301.205589486
300.587470095
300.33738018
300.211673765
300.13263226
300.077752109
300.039581423
300.015076387
300.003323361
300.000407572
300.000048144
300.000006758
300.000000627
300
300
300
300
318.398907827
307.315599954
302.860444991
301.2090474
300.589328645
300.334392231
300.206016622
300.127387984
300.074434286
300.038398859
300.015231664
300.003831446
300.000504183
300.00005206
300.000006787
300.000000396
300
300
300
300
318.392761005
307.245963944
302.810476513
301.189479003
300.580536631
300.326760783
300.198981973
300.122571809
300.072344637
300.038404462
300.016493107
300.004635229
300.000641452
300.000058105
300.000006847
300.000000202
300
300
300
300
318.29337527
307.286487301
302.808985161
301.173725452
300.564897195
300.314359795
300.191338715
300.119469369
300.072606599
300.040532367
300.018657283
300.00566797
300.000820224
300.000065825
300.000006544
300.000000034
300
300
300
300
317.17559927
306.940812039
302.708693163
301.116396775
300.526117447
300.293276721
300.183245536
300.119006548
300.075638953
300.044316341
300.021541644
300.006967686
300.001045152
300.000071635
300.000005452
300
300
300
300
300
315.301858761
306.183233808
302.398228155
300.964733339
300.454380774
300.268373416
300.179485462
300.122844802
300.081458053
300.049624616
300.025116249
300.008567237
300.00133656
300.000077926
300.000003837
300
300
300
300
300
313.949917682
305.579251682
302.01882297
300.752992523
300.386512075
300.258423535
300.185416298
300.132176557
300.090346629
300.056643407
300.029690535
300.010670346
300.001748842
300.00008944
300.000002375
300
300
300
300
300
313.463115213
305.126826026
301.526627776
300.617964845
300.375252072
300.271841558
300.202393188
300.147679558
300.103013442
300.066146647
300.035950342
300.013715019
300.002446693
300.000124621
300.000002173
300.000000063
300
300
300
300
314.782651308
305.016771861
301.413047951
300.629840825
300.410578522
300.304622062
300.23010286
300.170126134
300.120400627
300.078943594
300.044483273
300.018081771
300.003610032
300.000213765
300.000004045
300.00000052
300
300
300
300
318.782403752
306.006872041
302.213062804
300.907924392
300.519246252
300.359148676
300.267662153
300.198977205
300.142303628
300.095009867
300.055398338
300.024027833
300.005458854
300.000417792
300.000011211
300.000001473
300.000000159
300
300
300
324.763802479
308.354452828
303.295037408
301.455198905
300.736949349
300.436026059
300.310499811
300.230406678
300.166214343
300.112706974
300.067759086
300.031293526
300.008186421
300.00086598
300.000039276
300.00000433
300.000000578
300
300
300
329.573343885
310.232518362
304.107595052
301.788184485
300.880001997
300.523490494
300.353515057
300.259685454
300.18897628
300.129996364
300.080272676
300.039288974
300.01188705
300.001714473
300.000121884
300.000012094
300.000001769
300
300
300
332.76131485
311.562571284
304.638713096
302.022872173
300.991381436
300.582838651
300.389153849
300.283790106
300.208226047
300.145352226
300.091781983
300.047194924
300.016216821
300.003006316
300.000296967
300.000027826
300.00000435
300.0000003
300
300
334.610316148
312.270873124
304.880790993
302.112991703
301.032783691
300.604173511
300.412418525
300.302098681
300.223319783
300.15764509
300.100886397
300.053508596
300.020190907
300.004569381
300.000586091
300.000051956
300.000008581
300.000000954
300
300
335.792269486
312.617728138
304.955450757
302.125820181
301.039995378
300.614495551
300.42681128
300.315145374
300.23452805
300.166791238
300.107306371
300.057812004
300.023049341
300.005903612
300.000917971
300.000088816
300.000014094
300.00000185
300
300
336.631194147
312.798966498
304.943189026
302.094899721
301.029503785
300.621444359
300.43577037
300.323882339
300.242050627
300.172554984
300.11078177
300.059958397
300.024629187
300.006786711
300.001182377
300.000129408
300.000019873
300.00000279
300
300
337.339915057
312.744321442
304.770581334
301.989950736
300.995591636
300.623482756
300.440895186
300.328978185
300.245817929
300.174496425
300.111052561
300.059883471
300.024930214
300.007168006
300.001335816
300.000160296
300.000024925
300.000003637
300
300
337.446042172
312.15304448
304.300114718
301.788144113
300.949609036
300.621204533
300.443293858
300.330278992
300.245283961
300.172063046
300.107903993
300.057630962
300.024065599
300.007089514
300.001374281
300.000176401
300.000028459
300.00000416
300
300
336.837788241
311.047571703
303.733779566
301.67226352
300.957461988
300.624051889
300.442642994
300.326963251
300.239780207
300.164902269
300.10148767
300.053538833
300.022319673
300.006673686
300.001324126
300.000180017
300.000030197
300.000004339
300
300
335.419062025
310.372941207
303.813578252
301.778634161
300.983681513
300.625500023
300.43660801
300.318107549
300.228676585
300.153242699
300.092526299
300.048300914
300.020130146
300.00610036
300.001230729
300.00017806
300.000030354
300.000004182
300
300
334.74545375
311.297770388
304.244031337
301.882051366
300.996947633
300.616085255
300.422936927
300.302734338
300.21159326
300.138281005
300.082414522
300.04290745
300.018015858
300.005561158
300.001150047
300.000177898
300.000029372
300.00000377
300
300
334.902806518
311.712369248
304.339460681
301.881328194
300.972354989
300.591747035
300.400540075
300.279575955
300.190233464
300.122493635
300.073042824
300.038458496
300.01649334
300.005242605
300.001144587
300.00018885
300.000027677
300.000003174
300
300
335.425147565
311.842179812
304.268342402
301.813352593
300.923546479
300.554622564
300.367967129
300.251522694
300.16882458
300.109099746
300.066303697
300.035911982
300.01598834
300.005361226
300.00128562
300.000219444
300.000025235
300.000002421
300
300
336.140473918
312.380617847
304.339471499
301.768189552
300.861675286
300.505699558
300.33109022
300.224643079
300.152023139
300.100914161
300.063579825
300.035940126
300.016889174
300.006112637
300.001559542
300.000266444
300.000025644
300.00000164
300
300
334.38146865
312.227646809
304.206535828
301.61761308
300.76942086
300.448286304
300.296003084
300.20471653
300.143581071
300.099353372
300.065373827
300.038605176
300.019187804
300.007340222
300.00194759
300.000332056
300.000029396
300.000001029
300
300
325.681992975
310.42621806
303.61157145
301.393131656
300.660164941
300.395731388
300.270727461
300.195992216
300.143889227
300.104189534
300.071267993
300.043865068
300.022791912
300.009101952
300.002487851
300.000425528
300.000037126
300.000000684
300
300
318.421027676
307.948337147
302.941542934
301.144673531
300.559076732
300.355986714
300.260975126
300.199243829
300.153475471
300.115346045
300.081652614
300.052070634
300.028095308
300.011679476
300.003309498
300.000577789
300.000052701
300.000000579
300.000000467
300
314.848375377
306.629388376
302.530746076
300.936657348
300.488241804
300.350202839
300.273583513
300.21836955
300.173880961
300.13439771
300.097735361
300.064253984
300.035969739
300.015641336
300.004651435
300.000850519
300.000083739
300.000000847
300.000000996
300.000000572
315.68499962
307.921916594
303.107848246
301.008664621
300.536509146
300.393590311
300.314089554
300.255522151
300.206782706
300.16239
300.120431504
300.081297469
300.047081957
300.021349876
300.006654158
300.001278423
300.000135986
300.000001263
300.00000112
300.000001138
325.509692429
311.741984326
304.653956498
301.525262868
300.707602951
300.488496194
300.38264631
300.30906184
300.249950724
300.19738928
300.148360547
300.102422381
300.061092959
300.028748978
300.009361664
300.001895686
300.000219927
300.000004686
300.000000905
300.000001191
341.31870179
314.647441179
305.592540099
302.017453816
300.916540577
300.607563537
300.467598749
300.370793225
300.296086539
300.233452384
300.176859414
300.124358573
300.07611758
300.037003975
300.012558691
300.002687497
300.000340689
300.000013392
300.000000614
300.000000794
346.958461276
316.100692981
306.011203002
302.242447433
301.035752939
300.671959039
300.519303909
300.416573879
300.333536851
300.263326704
300.200882726
300.143294194
300.089652715
300.044828347
300.015828233
300.003595205
300.000501647
300.000029229
300.000000739
300.00000031
348.22433656
316.29714589
305.923261973
302.233303233
301.051191979
300.68333611
300.531600454
300.433187009
300.352840755
300.282004625
300.217254236
300.156860483
300.09982969
300.051120715
300.018814362
300.00458011
300.000715805
300.000057978
300.000002197
300.000000074
347.723361705
315.641602285
305.584621844
302.110127426
301.01384543
300.669776262
300.527505567
300.435758663
300.358768739
300.289475959
300.225171498
300.164174605
300.105690505
300.055296504
300.021299297
300.005594249
300.000976322
300.000100403
300.000005485
300.000000212
346.030993314
314.680522905
305.080816683
301.905744875
300.944804086
300.647174055
300.51916645
300.433706842
300.358961454
300.290717065
300.226877154
300.165756917
300.106749688
300.056377459
300.022510677
300.00637632
300.001238512
300.000151541
300.000009783
300.000000667
344.185436589
313.701436262
304.551010815
301.691609378
300.877688079
300.62817716
300.515426084
300.431716737
300.357559469
300.289209747
300.225093862
300.163295925
300.104132204
300.054950801
300.022418431
300.006692985
300.001410853
300.00019573
300.000015599
300.000001255
342.973191814
312.982056593
304.143950202
301.53819766
300.84036319
300.628451319
300.516858428
300.432328138
300.357172363
300.287388547
300.221706176
300.158190107
300.099327964
300.052176305
300.021617318
300.006709401
300.001495895
300.000225386
300.000021118
300.000001904
342.433285785
312.586759431
304.098964602
301.590624055
300.90289684
300.656332684
300.528279506
300.437491694
300.359247015
300.286555009
300.21747691
300.151669853
300.093753843
300.04914042
300.020704798
300.006640799
300.001543026
300.000244844
300.000025764
300.000002511
337.611167711
312.063554471
304.400193566
301.904943161
301.065505143
300.725471053
300.555979709
300.449143562
300.364210924
300.286554711
300.212439301
300.144889993
300.088552743
300.046627525
300.020084727
300.006652367
300.00159376
300.000262406
300.00002975
300.000003179
327.635584823
311.460122209
304.882989195
302.341100642
301.298942976
300.832777942
300.601346893
300.467840349
300.37132597
300.28598851
300.206825569
300.138612239
300.084390349
300.045041196
300.019971877
300.006836026
300.001682907
300.000284423
300.000034146
300.000003832
321.338184474
310.269361337
304.979740248
302.593110889
301.4850555
300.935292137
300.649764937
300.488355377
300.377607821
300.28346244
300.200777481
300.133210452
300.081543478
300.04453756
300.020465673
300.007272421
300.001842881
300.000321578
300.000039378
300.000004715
318.873364597
309.095873095
304.695010202
302.614268261
301.558074659
300.99153165
300.680824391
300.501312108
300.37873447
300.277956701
300.194162653
300.128743889
300.080082684
300.045182422
300.021686091
300.008068448
300.002133106
300.000389774
300.000050031
300.000005826
318.079194961
308.155496504
304.205157818
302.423091819
301.497052969
300.977170982
300.677875594
300.497285665
300.370374474
300.268009649
300.18651073
300.125100714
300.080032538
300.047122599
300.023853343
300.009440161
300.002671772
300.000532758
300.000076793
300.000007751
317.954521538
307.354420577
303.607597981
302.087146304
301.327624435
300.896697894
300.638232219
300.472970452
300.350631315
300.253202694
300.178025706
300.122648091
300.081839612
300.050821895
300.027460687
300.011815681
300.003720676
300.000845582
300.000147153
300.000017659
317.914410281
306.702976282
303.015154642
301.716423602
301.11875766
300.785407658
300.577697976
300.434842954
300.323811089
300.236657597
300.171007402
300.123104601
300.086722777
300.057262222
300.033380129
300.015948781
300.005765311
300.001535381
300.000318469
300.000050934
317.669275552
306.485527977
302.672755418
301.446454603
300.95000714
300.688332251
300.520769359
300.397163033
300.300575226
300.225465531
300.170002615
300.129145109
300.096455089
300.067928487
300.042966657
300.022839666
300.009407297
300.002878678
300.000688545
300.000136772
316.706967515
306.550944106
302.615011891
301.342643585
300.869917154
300.638330489
300.490762038
300.3802151
300.293660735
300.22734459
300.178961877
300.143209955
300.112725647
300.083905666
300.05676781
300.033011937
300.015242704
300.005284035
300.001427184
300.000329035
315.592698433
306.838826769
302.927619434
301.519717974
300.963824679
300.691462679
300.52298447
300.402509164
300.312877619
300.246917344
300.200536329
300.166358951
300.135928748
300.105271858
300.074953444
300.046900639
300.023898641
300.00925336
300.002766275
300.000706671
316.24350623
308.291175278
304.343732127
302.428190386
301.472910437
300.966337848
300.671298755
300.487899071
300.37018065
300.291462363
300.238898301
300.200185963
300.165845478
300.131190021
300.096589789
300.063760385
300.035151644
300.014935567
300.004869362
300.001344402
322.35153711
312.731287194
307.130151675
303.945213134
302.274076923
301.398654852
300.91530954
300.639350849
300.477121513
300.374246551
300.300872474
300.245096527
300.200390161
300.15893313
300.118985816
300.081377613
300.047565452
300.02177321
300.007643433
300.002260451
338.000802267
316.67096168
308.301788072
304.469633425
302.606687301
301.630968151
301.084004741
300.769421177
300.582965014
300.461727554
300.369527941
300.294180559
300.234589894
300.184161296
300.138516472
300.096753181
300.058996599
300.028665194
300.010773888
300.003430556
349.754314244
317.937790443
308.009297303
304.188410747
302.493124176
301.616892857
301.110696749
300.810040767
300.626243061
300.502629011
300.405418897
300.323139935
300.256850355
300.201209213
300.151937193
300.107598693
300.067601568
300.034493073
300.013826697
300.004723256
351.892705171
317.092622471
306.953795344
303.513870395
302.146977797
301.457925748
301.042957446
300.784844891
300.620692563
300.505464546
300.411479411
300.330604097
300.264439355
300.208133489
300.158107849
300.113105669
300.07240759
300.038136978
300.016088049
300.005893446
349.448770588
315.144669056
305.42178472
302.605140881
301.675352635
301.22197111
300.924238043
300.724371781
300.588840402
300.48729051
300.400631679
300.325566607
300.262973188
300.208076603
300.158789277
300.114243604
300.073756519
300.039546449
300.017424418
300.006881124
337.871989024
312.254655589
303.794788533
301.797890101
301.258668133
300.99373235
300.800796181
300.656839402
300.549323625
300.461650984
300.383890733
300.315559522
300.257085734
300.204227131
300.156301406
300.112689047
300.072774785
300.039424886
300.018156208
300.007786764
327.437313115
310.013499016
302.654358953
301.286642688
300.965065238
300.816947876
300.69622195
300.596715052
300.512786093
300.437794621
300.36787067
300.305421844
300.249804281
300.199021825
300.15265187
300.109954215
300.070541514
300.038630108
300.018723893
300.008747425
322.555975113
309.137050589
302.545936
301.127225383
300.850868088
300.720779699
300.628519967
300.553599483
300.485332831
300.419379921
300.354985722
300.296533372
300.243374945
300.194535087
300.149468027
300.107078806
300.068142618
300.03799742
300.019497393
300.009835325
320.745425316
308.27269926
302.395927464
301.088993233
300.816471841
300.684047256
300.595582376
300.528677867
300.467876585
300.407667466
300.347550002
300.291753464
300.240226346
300.192578836
300.147804
300.104976192
300.066784051
300.038188253
300.02061709
300.011054138
320.163163363
307.89576433
302.457888841
301.14435997
300.830390366
300.692305452
300.59313119
300.521292543
300.460874496
300.403236752
300.345886987
300.29181496
300.241113517
300.193516718
300.147937892
300.104768626
300.067206559
300.039267401
300.021888122
300.012544136
320.546755928
307.635875752
302.888277393
301.412387522
300.955319165
300.779530758
300.626501091
300.531135848
300.463666383
300.404767242
300.34871671
300.295692651
300.245122044
300.196753516
300.150375097
300.106933044
300.069091394
300.040542775
300.023478885
300.014485338
324.210201397
308.907950396
303.567648127
301.774660266
301.138909287
300.87378167
300.705151502
300.571427928
300.479391442
300.412174157
300.354853642
300.301789933
300.250977617
300.201953142
300.154917344
300.110459815
300.070929483
300.041911072
300.02577215
300.016578961
331.766772736
311.154478308
304.59813858
302.304739278
301.423539201
301.037810433
300.815062077
300.644052781
300.516281361
300.428228686
300.363306406
300.308440574
300.257225432
300.207737558
300.159678765
300.112993652
300.071645341
300.043722105
300.02815534
300.018242084
336.11535443
313.324024676
305.72536274
302.898344665
301.746501905
301.21843138
300.920943719
300.718105876
300.561078396
300.449798419
300.373015973
300.314112882
300.261942672
300.211801966
300.162024385
300.112424512
300.071131913
300.045402407
300.02965814
300.018978119
338.872651609
314.783285944
306.520429895
303.324117193
301.976168039
301.34001826
300.984877442
300.751033575
300.585375188
300.462972393
300.378630127
300.316244792
300.262667814
300.211254246
300.159022846
300.107874137
300.070219975
300.045846487
300.029837407
300.018683911
340.698357801
315.423152656
306.754366991
303.411859267
302.008300347
301.34108278
300.970129153
300.732813406
300.568880919
300.455584618
300.374231291
300.311725353
300.256886438
300.203563768
300.149375539
300.102077041
300.068067617
300.044711978
300.028820013
300.017560287
341.315697643
315.14980103
306.295603253
303.089667453
301.819232743
301.222099818
300.888410934
300.676615372
300.534392805
300.434595143
300.359901673
300.299567918
300.244293556
300.189544047
300.137276036
300.095657185
300.064602487
300.042521826
300.027078615
300.015912567
340.567084559
313.609439877
305.06110689
302.448133518
301.490046372
301.037151072
300.775260877
300.609811236
300.494976062
300.408202891
300.340282838
300.282252904
300.227454368
300.17309373
300.125568198
300.089167945
300.06094343
300.04017187
300.025026362
300.013976641
337.822154858
310.550161224
303.666937192
301.822907446
301.19493381
300.884943727
300.681244787
300.552390131
300.45626699
300.381420838
300.31922864
300.263066525
300.208651635
300.156716318
300.115190846
300.083785518
300.058208846
300.038139259
300.022880126
300.011914718
334.974658007
308.81815698
302.832704989
301.453043248
301.010627766
300.768635764
300.612593858
300.505357614
300.424052593
300.357660661
300.299086405
300.244025031
300.189991104
300.143105905
300.107444726
300.080170009
300.056421398
300.036450212
300.020750093
300.009887602
332.803005035
309.078643884
302.849331104
301.371074469
300.912445256
300.69996702
300.568655112
300.474664832
300.401176637
300.338468017
300.281216119
300.226145288
300.174713555
300.133472275
300.102542071
300.078273301
300.055394078
300.035045828
300.018731881
300.008107731
327.484690678
309.164373628
303.392903941
301.673660844
300.985842109
300.694566697
300.552671283
300.459333316
300.386247402
300.322965403
300.265619511
300.211336696
300.164391472
300.127933188
300.100401549
300.077663053
300.055018962
300.033917195
300.016979207
300.006787618
322.068755744
309.248707987
303.930534814
302.033530242
301.147821293
300.741350319
300.558387481
300.453473929
300.375664013
300.310347397
300.252945889
300.201531886
300.159073221
300.12613657
300.10044494
300.078004585
300.055222329
300.033185767
300.015790941
300.006080476
318.622789273
308.376485052
303.959062144
302.133121368
301.228272374
300.780375955
300.567226459
300.449041709
300.367000919
300.300877703
300.244530558
300.196888747
300.158031186
300.127260034
300.102186756
300.079312119
300.056004638
300.033240831
300.015610589
300.006071156
316.810617467
307.389354327
303.635932198
302.02110849
301.199402197
300.776210732
300.562380285
300.441494332
300.359452547
300.294792473
300.241150424
300.196660351
300.160378082
300.130797433
300.105648621
300.082038425
300.057982087
300.034689634
300.016602235
300.006641433
315.823494665
306.613481665
303.210742105
301.802158754
301.099328478
300.735226627
300.543145047
300.430726293
300.353258177
300.292715879
300.242453792
300.200471633
300.165859898
300.13687241
300.111359889
300.086912975
300.061988029
300.037875588
300.018747466
300.007762988
315.08992849
306.081557958
302.844108654
301.572525911
300.976248817
300.678566183
300.518446525
300.42094146
300.351095311
300.295046115
300.248091065
300.208407005
300.17493651
300.146073224
300.119987578
300.094491184
300.068393188
300.042926774
300.022082281
300.009505315
314.42136895
305.758526112
302.590736432
301.381651748
300.864766199
300.626666193
300.500477852
300.418154854
300.35503127
300.303023015
300.25888301
300.2210264
300.188159018
300.158986112
300.131837778
300.104870059
300.077135345
300.049763364
300.026644133
300.011981229
313.97339722
305.720939238
302.492229009
301.247702606
300.792788151
300.607210799
300.502387793
300.427554663
300.368279198
300.318916082
300.276481037
300.239245023
300.206005879
300.175719284
300.146766355
300.117771035
300.087889312
300.058138083
300.032297915
300.015130941
314.601664536
306.595145782
302.834041028
301.334576653
300.877781082
300.663751212
300.537575932
300.454770343
300.393936103
300.344581431
300.301845558
300.263539507
300.228526302
300.195756534
300.164130851
300.132486609
300.099953122
300.067445387
300.038605677
300.018667261
320.337044743
309.7119949
304.163955728
302.127772391
301.312246033
300.870790494
300.633265312
300.508546696
300.434716082
300.38074645
300.334822458
300.29310605
300.254251451
300.217658624
300.182584998
300.147763167
300.112175325
300.076694839
300.044835436
300.022153676
337.112187242
313.953857858
305.964175624
303.083431435
301.867430262
301.202022117
300.805943792
300.595301896
300.491001273
300.42533227
300.372081356
300.324100902
300.279754531
300.238630087
300.199803642
300.161664648
300.122972601
300.084627319
300.050094233
300.025123454
348.910396646
317.053266984
307.206174607
303.701844375
302.194462174
301.39734738
300.939192171
300.685086064
300.550028146
300.469292329
300.405925885
300.35054642
300.300620166
300.255254526
300.213106405
300.172082857
300.130691332
300.090033431
300.05367555
300.027331164
353.297336602
318.434978989
307.628504748
303.821654426
302.230078528
301.424267793
300.97567687
300.725253984
300.585102219
300.4974865
300.42782697
300.367434863
300.313629277
300.265356574
300.220986296
300.177913081
300.134581403
300.092523206
300.055332395
300.028509554
353.593882268
318.195893609
307.285415172
303.511212039