/*--------------------------------*- C++ -*----------------------------------*\
| =========                 |                                                 |
| \\      /  F ield         | OpenFOAM: The Open Source CFD Toolbox           |
|  \\    /   O peration     | Version:  2312                                  |
|   \\  /    A nd           | Website:  www.openfoam.com                      |
|    \\/     M anipulation  |                                                 |
\*---------------------------------------------------------------------------*/
FoamFile
{
    version     2.0;
    format      ascii;
    arch        "LSB;label=32;scalar=64";
    class       volScalarField;
    location    "0.61/water";
    object      d.gas;
}
// * * * * * * * * * * * * * * * * * * * * * * * * * * * * * * * * * * * * * //

dimensions      [0 1 0 0 0 0 0];

internalField   nonuniform List<scalar> 
6000
(
0.00497248859524
0.00497255057689
0.00497256658678
0.0049725787144
0.00497258890102
0.00497259789479
0.00497260604496
0.00497261335694
0.00497261976764
0.00497262530487
0.00497262999859
0.00497263390074
0.00497263708912
0.00497263963907
0.00497264161465
0.00497264307006
0.00497264405115
0.00497264459595
0.00497264473486
0.0049726444929
0.00497279959211
0.00497282960532
0.00497282663059
0.00497282596707
0.00497282997872
0.00497283354824
0.00497283690856
0.00497284015266
0.00497284339435
0.00497284652392
0.00497284931737
0.0049728516881
0.00497285367001
0.00497285530379
0.00497285660623
0.00497285757876
0.0049728582178
0.00497285851987
0.00497285848256
0.00497285810592
0.00497307600418
0.00497310711275
0.00497309455993
0.00497308469716
0.0049730817167
0.00497307924016
0.00497307726817
0.00497307599505
0.00497307535559
0.0049730752285
0.00497307540012
0.00497307561855
0.00497307575239
0.00497307578309
0.00497307571641
0.00497307554613
0.00497307525302
0.00497307481143
0.00497307419447
0.00497307338041
0.00497331269055
0.00497333395817
0.0049733204645
0.00497331385649
0.00497331333168
0.0049733118603
0.00497330953964
0.0049733071396
0.00497330499486
0.00497330318717
0.00497330169947
0.00497330040539
0.00497329916451
0.00497329791437
0.00497329665142
0.00497329538348
0.0049732941098
0.00497329281914
0.00497329149337
0.00497329011559
0.00497354915067
0.00497356325856
0.00497354511511
0.00497353801421
0.00497353802558
0.00497353745266
0.00497353552993
0.00497353297793
0.00497353038196
0.00497352792227
0.00497352563651
0.00497352349713
0.00497352142511
0.00497351936182
0.00497351729786
0.00497351524882
0.00497351323193
0.00497351125718
0.00497350932678
0.00497350744157
0.00497377711709
0.00497379129392
0.00497377195233
0.0049737634091
0.00497376184677
0.00497376095524
0.00497375913764
0.00497375639349
0.00497375332372
0.00497375030847
0.00497374742212
0.00497374466382
0.00497374199087
0.00497373935559
0.00497373674063
0.00497373415681
0.00497373162547
0.00497372916715
0.0049737267976
0.00497372453143
0.00497400934725
0.00497402215907
0.00497400137826
0.0049739911761
0.00497398688068
0.00497398395769
0.0049739811652
0.00497397790608
0.00497397424244
0.00497397059583
0.0049739671198
0.00497396380713
0.00497396062835
0.0049739575435
0.00497395452582
0.00497395157415
0.00497394870372
0.00497394593504
0.00497394328779
0.00497394078207
0.00497420703402
0.00497422540629
0.00497421386189
0.00497420760296
0.00497420483037
0.00497420199484
0.00497419893036
0.00497419559291
0.00497419181105
0.00497418785065
0.00497418401138
0.00497418034021
0.00497417683218
0.00497417346526
0.00497417021411
0.00497416706927
0.0049741640382
0.00497416113688
0.00497415838288
0.00497415579635
0.00497444124308
0.00497445683135
0.00497443776595
0.00497442880711
0.00497442420303
0.00497441946814
0.0049744148971
0.00497441060328
0.00497440634746
0.00497440197562
0.00497439774533
0.00497439378604
0.00497439009565
0.00497438663783
0.00497438336682
0.00497438025286
0.00497437728708
0.00497437447388
0.0049743718226
0.00497436934851
0.00497462762271
0.00497464588285
0.00497463163637
0.00497462720201
0.00497462617927
0.00497462406031
0.00497462098897
0.00497461767155
0.00497461422295
0.00497461045115
0.00497460654456
0.00497460283856
0.0049745994585
0.00497459636971
0.0049745934954
0.00497459078816
0.00497458822727
0.00497458580715
0.00497458353047
0.00497458140414
0.00497483215335
0.00497485402092
0.00497483505304
0.00497482716696
0.00497482473146
0.00497482263347
0.00497482030203
0.00497481801598
0.00497481563708
0.00497481290625
0.00497480991639
0.00497480707243
0.0049748046202
0.00497480250588
0.00497480058111
0.00497479876357
0.00497479702513
0.00497479535554
0.00497479375166
0.00497479221448
0.00497499051789
0.00497501985537
0.00497501017178
0.00497500690203
0.0049750087148
0.00497501052118
0.00497501153833
0.0049750117683
0.00497501119176
0.00497500989209
0.00497500826295
0.00497500695021
0.00497500618039
0.00497500577703
0.00497500543466
0.00497500501565
0.00497500450222
0.00497500389366
0.00497500319208
0.00497500240739
0.00497517680573
0.00497521532164
0.00497520706017
0.00497520200627
0.00497520299489
0.00497520520297
0.00497520720747
0.00497520801418
0.00497520755106
0.00497520645916
0.00497520561728
0.00497520575102
0.00497520691504
0.00497520864568
0.00497521025298
0.00497521149025
0.00497521235274
0.00497521287024
0.00497521307213
0.00497521299154
0.00497536755348
0.00497540751632
0.00497539864357
0.00497539651672
0.00497540114787
0.00497540609135
0.00497540947581
0.00497541058496
0.00497540981791
0.00497540850967
0.00497540792529
0.00497540896187
0.00497541163196
0.0049754152276
0.00497541853661
0.00497542110847
0.00497542297735
0.00497542422793
0.00497542493316
0.00497542516268
0.00497557989159
0.00497562527443
0.00497561548059
0.00497561492289
0.00497562108153
0.0049756262764
0.0049756289304
0.00497562888585
0.00497562712058
0.00497562509389
0.00497562369556
0.00497562398719
0.0049756266207
0.0049756306993
0.00497563444799
0.0049756371272
0.00497563886749
0.00497563982899
0.00497564012902
0.00497563986997
0.00497581949693
0.00497586621898
0.00497585687868
0.0049758561085
0.00497586188217
0.00497586654853
0.00497586823677
0.00497586699428
0.00497586457539
0.00497586181002
0.00497585876312
0.00497585655266
0.00497585674969
0.00497585889063
0.00497586085643
0.00497586159045
0.00497586135821
0.0049758604555
0.00497585903443
0.00497585720021
0.00497607894595
0.00497613133561
0.00497612470409
0.00497612449575
0.0049761294975
0.00497613221572
0.00497613151148
0.00497612873694
0.00497612529523
0.00497612088674
0.00497611497856
0.0049761086591
0.00497610361552
0.00497610024009
0.00497609728625
0.00497609354558
0.00497608922262
0.00497608473741
0.00497608025443
0.00497607581669
0.00497638424872
0.00497643617288
0.00497642893103
0.00497642375375
0.00497642133269
0.00497641674444
0.00497641030188
0.0049764032991
0.00497639594943
0.00497638755765
0.0049763779786
0.00497636801904
0.00497635807881
0.00497634748104
0.00497633711473
0.00497632709528
0.00497631741712
0.00497630842236
0.00497630024299
0.00497629280177
0.00497670042314
0.00497672906785
0.00497670466421
0.00497669202161
0.00497668328739
0.00497667320172
0.00497666191649
0.00497665027577
0.0049766385945
0.00497662727848
0.00497661648817
0.00497660627508
0.00497659579841
0.00497658277827
0.00497656712159
0.00497655180767
0.00497653773767
0.00497652515424
0.00497651409067
0.00497650437991
0.00497689765693
0.00497690768556
0.0049768845196
0.00497687585102
0.00497687099303
0.0049768642334
0.00497685508303
0.00497684455393
0.00497683408057
0.00497682459441
0.0049768159176
0.00497680664487
0.00497679746116
0.00497678764805
0.00497677386878
0.00497675791378
0.00497674281702
0.00497672941549
0.00497671770439
0.00497670752886
0.00497704693937
0.00497705238576
0.0049770283274
0.00497702107158
0.00497701877947
0.00497701528323
0.00497700970607
0.00497700312654
0.00497699626549
0.00497698986075
0.00497698423725
0.00497697801299
0.00497697123051
0.00497696381293
0.00497695491347
0.00497694302857
0.00497693077829
0.00497691973315
0.00497691000935
0.0049769015021
0.0049771612415
0.00497717187459
0.00497715579065
0.00497715227508
0.00497715285961
0.00497715259493
0.00497715063628
0.00497714730723
0.00497714349339
0.00497714198231
0.00497714027952
0.0049771372117
0.00497713189286
0.00497712519122
0.00497711933124
0.00497711264739
0.00497710544816
0.0049770989716
0.0049770931996
0.00497708802991
0.00497730681098
0.00497732259354
0.00497730830764
0.00497730223516
0.0049773005596
0.00497729874911
0.00497729560517
0.00497729189502
0.00497729111936
0.00497729302471
0.00497729388315
0.00497729245239
0.00497728866119
0.00497728295776
0.00497727847891
0.00497727565129
0.00497727350424
0.00497727234251
0.00497727137756
0.00497727038017
0.00497743306519
0.00497745162256
0.00497743790636
0.00497743457529
0.00497743543147
0.00497743558278
0.00497743429812
0.00497743437805
0.00497744012861
0.00497744665527
0.00497744663798
0.00497744739323
0.00497744682147
0.00497744317826
0.00497743981297
0.0049774392936
0.00497744142412
0.0049774452705
0.00497744902363
0.00497745223185
0.00497759057142
0.00497761017145
0.00497758776462
0.00497758134115
0.0049775809233
0.00497758069483
0.00497758095386
0.00497758685384
0.00497759848307
0.00497760103591
0.00497760477826
0.00497760767471
0.004977609545
0.00497761099735
0.00497760845714
0.00497760901084
0.00497761445828
0.00497762243202
0.00497763014408
0.004977636949
0.00497771991965
0.00497774572122
0.00497772769285
0.00497772446282
0.00497772732106
0.00497773091271
0.0049777372277
0.00497775119796
0.00497776079982
0.00497776907777
0.0049777724256
0.00497777844315
0.00497778932182
0.0049777926682
0.0049777893871
0.00497778947559
0.00497779671794
0.00497780731069
0.00497781772862
0.00497782708315
0.00497788842242
0.00497792160188
0.00497790077887
0.00497789483966
0.00497789697967
0.00497790186324
0.00497791267614
0.00497792802369
0.00497794122287
0.00497794695587
0.00497795715907
0.00497796925629
0.00497798268319
0.00497798744045
0.00497798155628
0.00497798176609
0.00497798947998
0.00497800105679
0.0049780129832
0.0049780238872
0.00497804033626
0.00497808269663
0.0049780711119
0.00497806849567
0.00497807422586
0.00497808380649
0.00497810017326
0.00497811936005
0.0049781278386
0.00497814062413
0.0049781522299
0.0049781708872
0.00497818787104
0.00497818323361
0.00497818224225
0.00497818344582
0.00497819061122
0.00497820240467
0.00497821553123
0.00497822760715
0.00497822482244
0.00497827438389
0.0049782574699
0.00497825683669
0.00497826665412
0.00497828095297
0.00497830086904
0.00497831546867
0.00497833178818
0.00497834365794
0.0049783600999
0.00497838523917
0.00497838878022
0.00497839205777
0.00497839303308
0.00497839375495
0.00497839956008
0.00497841152963
0.00497842599997
0.00497843912037
0.00497842517077
0.00497847930412
0.00497846199169
0.00497846387733
0.00497847648514
0.00497849245345
0.00497851079204
0.00497853169679
0.0049785448161
0.00497856266234
0.00497859592046
0.00497860711907
0.0049786097231
0.00497861387031
0.00497861697078
0.00497861645873
0.00497862129364
0.00497863264251
0.00497864755637
0.00497866084939
0.00497861487442
0.00497868712513
0.00497868123525
0.00497868642037
0.00497870077675
0.0049787196747
0.00497874508269
0.00497876844079
0.0049787942842
0.00497882979376
0.004978843376
0.00497884565704
0.00497885142752
0.00497885929935
0.0049788603913
0.004978861835
0.00497886429019
0.00497887246686
0.00497888480324
0.00497889588697
0.00497886135607
0.00497896056173
0.00497896147012
0.00497896578365
0.004978980926
0.00497900535912
0.00497903627857
0.00497906566359
0.00497909003338
0.00497910162968
0.00497910741935
0.00497911417071
0.00497912263013
0.00497912798743
0.0049791320334
0.00497913091696
0.0049791308308
0.00497913406987
0.00497913990955
0.00497914540431
0.00497929866853
0.0049794136369
0.0049794103285
0.00497940017194
0.00497939714222
0.00497940560713
0.00497941709379
0.00497942193458
0.00497941982578
0.00497941764279
0.00497941799601
0.00497942065345
0.00497942293855
0.00497942474387
0.00497942330445
0.00497942044658
0.00497941789628
0.0049794155779
0.00497941140244
0.00497940740331
0.00497997613062
0.00498005314389
0.00498000626197
0.00497997410477
0.00497994340265
0.00497991347657
0.00497988407959
0.00497985493579
0.00497982780322
0.0049798044997
0.00497978621252
0.00497977037002
0.00497975536439
0.00497974239725
0.00497973214164
0.00497972447559
0.00497971787029
0.00497970857626
0.00497969311346
0.00497967592085
0.00498055399726
0.00498055311017
0.00498050333305
0.00498047811134
0.00498045329098
0.00498041520413
0.00498036381703
0.00498031070043
0.00498026050571
0.00498021413604
0.00498017198599
0.00498013259806
0.00498009572167
0.00498006399821
0.00498004007562
0.00498002381999
0.00498000943132
0.00497999209189
0.00497996895412
0.00497993894892
0.00498080622993
0.00498078926653
0.00498076777834
0.00498075770876
0.00498074988895
0.00498073524185
0.00498070210929
0.00498065349506
0.00498059930476
0.00498054408547
0.00498049011114
0.00498043889424
0.00498039060272
0.00498034723202
0.00498031198508
0.0049802857062
0.00498026203649
0.00498023993763
0.00498021505771
0.00498017966041
0.0049808743424
0.00498087294107
0.00498086925876
0.00498086804325
0.00498086736915
0.00498086555317
0.00498085616046
0.00498083161457
0.00498079447779
0.00498074931385
0.00498070062437
0.004980652511
0.00498060595214
0.00498056247989
0.00498052475388
0.00498049411303
0.00498046662888
0.00498044302784
0.00498041861953
0.00498038568745
0.00498090797828
0.00498090869697
0.00498090912633
0.00498090942814
0.00498090990467
0.0049809100737
0.00498090913192
0.00498090008238
0.00498088043487
0.00498085209593
0.00498081844797
0.00498078301552
0.00498074712269
0.00498071212885
0.00498068083474
0.00498065335428
0.00498062936057
0.00498060589149
0.00498058217517
0.00498055485365
0.00498093236921
0.00498093283956
0.00498093312384
0.00498093335661
0.00498093361621
0.00498093372086
0.0049809342139
0.00498093057898
0.00498092008586
0.00498090387028
0.00498088460264
0.00498086347648
0.00498083963779
0.00498081611263
0.00498079498786
0.00498077673354
0.00498075827952
0.00498073631781
0.004980715093
0.00498069363316
0.0049809556145
0.00498095605831
0.00498095631348
0.00498095652545
0.00498095677341
0.00498095656435
0.00498095745907
0.00498095641007
0.00498095094755
0.00498094203497
0.00498093261824
0.00498092184974
0.00498090889265
0.00498089510972
0.00498088427062
0.00498087631085
0.00498086375077
0.00498084589517
0.00498082832656
0.00498081222959
0.00498097760955
0.00498097806074
0.00498097831675
0.00498097851052
0.00498097869237
0.00498097825026
0.00498097944523
0.00498097962055
0.00498097680745
0.00498097296417
0.00498097269419
0.00498097182155
0.00498096708222
0.00498096286461
0.00498096070039
0.00498096149834
0.00498095744472
0.00498094414595
0.00498093085432
0.00498091972547
0.00498099949333
0.00498099968214
0.00498099978274
0.00498099969604
0.00498099940647
0.00498099903408
0.00498100060526
0.00498100142242
0.00498100131493
0.00498100521522
0.00498101546683
0.00498102151057
0.00498102459609
0.00498102772042
0.00498103386458
0.00498104457101
0.00498104599114
0.00498103824612
0.00498102963601
0.00498102306275
0.00498102915992
0.00498102597799
0.00498102356679
0.00498102334366
0.00498102319421
0.00498102489398
0.00498102790034
0.00498103095093
0.00498103638966
0.00498105223435
0.0049810696937
0.00498108076817
0.00498109000693
0.00498109982736
0.00498111252122
0.00498112959441
0.00498113848885
0.00498113568819
0.00498113138231
0.00498112816202
0.00498108290481
0.00498107098334
0.00498106407504
0.00498106243165
0.00498106273021
0.00498106605391
0.00498107101512
0.00498107762503
0.00498109368741
0.00498111904845
0.00498113893563
0.00498115345916
0.00498116752229
0.00498118271932
0.00498120174213
0.00498122617268
0.00498123886921
0.004981240924
0.00498123979842
0.00498123835009
0.00498114448657
0.004981120706
0.00498110420605
0.0049811024211
0.00498110691335
0.00498111456955
0.00498112377231
0.00498113940415
0.00498116973545
0.00498119942697
0.00498121961518
0.00498123855241
0.00498125717701
0.00498127812663
0.00498130428494
0.00498133304122
0.00498134967534
0.00498135586243
0.00498135690862
0.00498135683862
0.00498120489838
0.00498117367871
0.00498114688944
0.00498114764082
0.00498115781235
0.00498117110816
0.00498118878497
0.00498122191415
0.00498126128906
0.00498128828025
0.00498131289033
0.00498133606734
0.0049813611667
0.0049813890629
0.00498142122428
0.00498145454812
0.00498147349351
0.00498148360684
0.00498148744306
0.00498148945514
0.0049812598181
0.00498122960609
0.00498120048763
0.00498120641655
0.00498122370406
0.00498124578629
0.00498128120101
0.00498132858429
0.00498136335291
0.00498139402539
0.00498142186921
0.00498145267341
0.00498148536161
0.00498151850291
0.00498155933061
0.00498159372197
0.00498161647265
0.00498163177022
0.0049816400604
0.00498164412661
0.00498131149913
0.00498130375364
0.00498128229864
0.00498129367913
0.00498131961136
0.00498135757066
0.00498140984267
0.00498145166003
0.00498148774901
0.00498151929485
0.00498155547935
0.00498159366294
0.00498163205596
0.004981676561
0.00498172046097
0.00498175840881
0.00498178737267
0.00498180999453
0.00498182402517
0.0049818306998
0.00498135960626
0.00498139057782
0.00498136873299
0.00498139311392
0.00498144238263
0.00498150272188
0.00498155175171
0.00498159447388
0.00498162997504
0.00498167233135
0.00498171631166
0.00498176096638
0.00498180960286
0.00498185713373
0.00498191032002
0.00498195374611
0.00498199179657
0.00498202332232
0.00498204251837
0.00498205528973
0.00498140288778
0.00498149323595
0.00498149202537
0.00498153945673
0.00498160968575
0.00498166617922
0.00498171716324
0.0049817585743
0.00498180725276
0.00498185762716
0.00498190821291
0.00498196403959
0.00498201567636
0.00498207666378
0.00498213177931
0.00498218344346
0.00498223215112
0.00498227048694
0.00498229661923
0.0049823089923
0.00498151226285
0.00498164777119
0.00498168643897
0.00498173703297
0.0049817991764
0.00498186324136
0.00498191823993
0.00498197677604
0.00498203621003
0.00498209630597
0.00498216129637
0.00498221987614
0.0049822865646
0.00498234603123
0.0049824050996
0.00498246344182
0.00498251796456
0.00498256084769
0.00498258879247
0.00498260592353
0.0049817318872
0.00498193627864
0.00498199912217
0.00498204449371
0.00498210817821
0.0049821825026
0.00498225920856
0.00498233360095
0.00498240194979
0.00498247784373
0.00498254230317
0.00498260961827
0.00498266458026
0.00498271767471
0.00498276693277
0.00498281614408
0.00498286196807
0.00498289932557
0.00498292724752
0.00498294218542
0.00498284980223
0.00498310728466
0.00498312402666
0.00498309921719
0.00498307162743
0.00498306281606
0.00498307474991
0.00498308886184
0.00498311462338
0.00498313437056
0.00498315893339
0.00498317988791
0.00498320199199
0.00498322166481
0.00498323975794
0.00498325586466
0.00498327022834
0.00498328264285
0.00498329349658
0.00498329799891
0.0049846765473
0.00498478923666
0.00498468658687
0.00498461533736
0.00498454845535
0.00498446468764
0.00498435435335
0.00498423449137
0.00498412131006
0.00498403130387
0.00498396080876
0.00498390798185
0.00498386435843
0.00498382601143
0.00498379072995
0.00498375766791
0.00498372632408
0.00498369757242
0.00498367952314
0.00498367289732
0.00498529811141
0.00498529184324
0.00498527666874
0.00498525885923
0.00498523945201
0.00498521515503
0.00498517401058
0.00498509988179
0.00498498207201
0.00498484113526
0.00498470535497
0.00498458572304
0.00498448270735
0.00498439150339
0.00498430956457
0.00498423523961
0.00498416755114
0.00498410500156
0.00498405444572
0.00498402829985
0.00498534108807
0.00498534180593
0.00498534255453
0.00498534338341
0.00498534431351
0.00498534506076
0.00498534540133
0.00498534045858
0.0049853145942
0.00498524869781
0.004985145917
0.0049850266867
0.00498490919841
0.00498480131241
0.00498470280507
0.0049846125415
0.00498452984933
0.00498445390485
0.00498438419441
0.0049843366231
0.00498536521342
0.00498536567677
0.00498536598045
0.00498536628459
0.00498536664789
0.0049853671098
0.00498536769769
0.00498536837223
0.00498536784958
0.00498535391724
0.00498530950882
0.00498523615176
0.00498514506855
0.00498505135825
0.00498496180768
0.00498487751966
0.0049847987769
0.00498472560186
0.00498465707559
0.00498460086685
0.00498538755574
0.00498538792182
0.00498538815441
0.00498538836901
0.00498538863236
0.00498538892528
0.00498538925441
0.004985389632
0.0049853907158
0.0049853891998
0.00498536940869
0.00498532822745
0.00498526832312
0.00498519895661
0.00498512827081
0.00498505926953
0.00498499337054
0.00498493120939
0.00498487374975
0.0049848207969
0.0049854086632
0.00498540903826
0.0049854092878
0.00498540952637
0.00498540980434
0.00498541012857
0.00498541051798
0.00498541102194
0.00498541161995
0.00498541153699
0.00498539999833
0.00498537418794
0.00498533535227
0.00498528813682
0.00498523724537
0.00498518533214
0.00498513452041
0.00498508555946
0.00498504079799
0.0049850013116
0.00498542870685
0.00498542903052
0.00498542920966
0.00498542934907
0.00498542949611
0.0049854296457
0.00498542977784
0.00498542988335
0.00498542998876
0.00498543002405
0.00498542323824
0.00498540595274
0.00498538033466
0.00498534934052
0.00498531422601
0.00498527703387
0.00498524010334
0.00498520457599
0.00498517225078
0.00498514661743
0.00498544763926
0.00498544796377
0.00498544813164
0.00498544823655
0.00498544831934
0.00498544836841
0.0049854483709
0.00498544829391
0.00498544804358
0.00498544736992
0.00498544296357
0.0049854308657
0.00498541480735
0.00498539727208
0.00498537522135
0.00498535025
0.00498532542351
0.00498530156783
0.00498528027742
0.00498526815316
0.00498546625219
0.00498546655849
0.00498546672233
0.00498546683873
0.00498546695379
0.00498546706552
0.00498546716491
0.00498546726407
0.00498546654222
0.00498546468528
0.00498546010153
0.00498545175906
0.00498544603707
0.00498544079252
0.00498542853548
0.00498541425223
0.00498540019146
0.00498538685427
0.0049853755623
0.00498537446226
0.00498548401017
0.00498548431806
0.00498548449796
0.00498548461983
0.00498548473711
0.004985484835
0.00498548491859
0.00498548496331
0.00498548330038
0.00498548156442
0.00498547836119
0.00498547596434
0.00498548215238
0.00498548517191
0.00498548137128
0.00498547669538
0.00498547186645
0.00498546771855
0.00498546588693
0.00498547543455
0.00498550119475
0.00498550148183
0.00498550163041
0.00498550169889
0.00498550171684
0.00498550167505
0.00498550152694
0.00498550121009
0.00498549922503
0.00498549960718
0.00498549989927
0.00498550758408
0.00498552406054
0.00498553396564
0.00498553686878
0.00498554049125
0.00498554519603
0.00498554959393
0.00498555660386
0.0049855748045
0.00498551808717
0.00498551835395
0.00498551856911
0.00498551870324
0.00498551879503
0.00498551881121
0.00498551873917
0.00498551890406
0.00498551890272
0.00498552080553
0.00498552680874
0.00498554858098
0.00498557455449
0.00498558626008
0.00498559796352
0.00498561118046
0.00498562352721
0.00498563718859
0.00498565287258
0.00498567894055
0.0049855357848
0.00498553628998
0.00498553563552
0.00498553570942
0.00498553577932
0.00498553583264
0.0049855356074
0.00498553463993
0.00498553792999
0.00498554512641
0.00498556453461
0.0049856021819
0.00498562926295
0.0049856503059
0.00498567027812
0.00498569127292
0.0049857145839
0.00498573552578
0.00498575921408
0.00498579078465
0.00498555987608
0.0049855638606
0.00498555226606
0.00498555225373
0.00498555223401
0.00498555224088
0.00498555423773
0.00498555918146
0.00498556810847
0.00498558594969
0.00498562732935
0.00498567284687
0.00498570648824
0.00498573272355
0.00498576249354
0.0049857946383
0.00498582380625
0.00498585449395
0.00498588346468
0.00498591833636
0.0049855984599
0.00498561833802
0.00498560551204
0.00498560466858
0.00498560692275
0.00498561080018
0.0049856154949
0.0049856245588
0.00498564215978
0.00498567960112
0.00498573667979
0.00498578512913
0.00498581740605
0.00498585389856
0.00498589166809
0.00498592763339
0.00498596994715
0.0049859997316
0.00498602942553
0.00498606637433
0.00498572614723
0.00498577054387
0.00498574498451
0.00498574269748
0.00498574672708
0.00498575102244
0.00498575829125
0.00498577312919
0.00498580389167
0.00498586008625
0.00498591726961
0.00498595203525
0.00498598992413
0.0049860274495
0.00498606647022
0.00498612044563
0.0049861526062
0.00498617548668
0.00498620564202
0.00498624697378
0.00498602737749
0.00498608317831
0.00498604060967
0.00498603463021
0.0049860371923
0.00498603786441
0.0049860400036
0.00498605292221
0.00498608656195
0.00498613248396
0.00498616144035
0.00498619243739
0.00498622184482
0.0049862555572
0.00498631881768
0.00498635480593
0.00498636903442
0.00498638939136
0.00498642190653
0.00498646237174
0.00498643851948
0.0049864816632
0.00498643157157
0.00498642094378
0.00498642068936
0.00498641848659
0.00498641338398
0.00498641415708
0.00498642857414
0.00498644596116
0.00498646430491
0.00498648588886
0.00498651680344
0.0049865881552
0.00498662354559
0.00498662025229
0.00498662150147
0.00498663778923
0.00498666324945
0.00498669137185
0.00498687573159
0.00498689068105
0.00498684171361
0.00498682483771
0.00498682008524
0.00498681611102
0.00498680462971
0.00498679249609
0.00498679145018
0.00498680375124
0.00498683194672
0.0049868857648
0.00498695582285
0.00498696350242
0.00498692888305
0.00498689816365
0.00498688673332
0.00498688856793
0.00498689796312
0.00498691332662
0.00498709508363
0.00498709860622
0.00498708454102
0.00498707814922
0.00498707952798
0.00498708745047
0.0049870913046
0.0049870924491
0.0049871041548
0.0049871323746
0.00498717739637
0.0049872099155
0.00498719062586
0.00498715731738
0.00498712795902
0.00498710626539
0.00498709407904
0.00498708740654
0.00498708662578
0.00498709146131
0.00498712855478
0.00498712939487
0.00498713002714
0.00498713057593
0.00498713215304
0.00498714201996
0.00498715949199
0.00498717810041
0.00498720068842
0.00498722376671
0.00498723670729
0.00498722616114
0.00498720972827
0.00498719975954
0.00498719397076
0.00498719222485
0.00498719320392
0.00498719419838
0.00498719789167
0.00498720605529
0.00498714808492
0.00498714856002
0.00498714890456
0.00498714924314
0.00498714965943
0.00498715201379
0.00498716111411
0.00498717421828
0.00498719067611
0.00498720670917
0.00498721593719
0.00498721486478
0.00498721236817
0.00498721177667
0.00498721173259
0.00498721385015
0.0049872201351
0.00498723036786
0.00498724499751
0.00498726263549
0.00498716472229
0.00498716511084
0.00498716534917
0.00498716555557
0.00498716580062
0.00498716640337
0.00498717082705
0.00498717945577
0.00498719364571
0.00498721074219
0.00498722295745
0.0049872260905
0.00498722540605
0.00498722414435
0.00498722341448
0.00498722485091
0.00498723210171
0.00498724698983
0.00498726956068
0.00498729639226
0.00498717979026
0.00498718015158
0.00498718038235
0.00498718056807
0.00498718076783
0.00498718106751
0.00498718489494
0.00498719399962
0.0049872078179
0.00498722296894
0.0049872339361
0.00498723793296
0.00498723693435
0.00498723486388
0.00498723385344
0.00498723491811
0.00498724250918
0.00498726057694
0.00498728909018
0.00498732369193
0.00498719381033
0.00498719413537
0.00498719431791
0.00498719443841
0.00498719455675
0.00498719469972
0.00498719794442
0.00498720489683
0.00498721420829
0.00498722612173
0.00498723760826
0.00498724446899
0.00498724494168
0.00498724274005
0.00498724177053
0.00498724312306
0.00498725171269
0.00498727416658
0.00498731056185
0.00498735355423
0.00498720683009
0.00498720705371
0.00498720719248
0.00498720723272
0.00498720720304
0.00498720760402
0.00498721072815
0.00498721519949
0.0049872207928
0.00498723043648
0.00498724351492
0.00498725387288
0.00498725748423
0.00498725650094
0.00498725643277
0.00498725964262
0.0049872728032
0.00498730385668
0.00498734677551
0.00498739062342
0.00498722343124
0.00498722893529
0.0049872210777
0.00498722102288
0.00498722117433
0.00498722336898
0.00498722814727
0.00498723304062
0.00498723855854
0.00498725040576
0.00498726739858
0.00498728157029
0.00498728895967
0.00498729096186
0.00498729408908
0.00498730301337
0.00498732537913
0.0049873614582
0.00498740051626
0.00498743930901
0.0049872521804
0.00498727082068
0.00498725581981
0.00498725442434
0.00498725685264
0.00498726128166
0.00498726701572
0.00498727276089
0.00498728179709
0.00498730159919
0.00498732229164
0.00498733663047
0.00498734679113
0.00498735442202
0.00498736405145
0.00498738050201
0.00498740616662
0.00498743597016
0.00498746556587
0.0049874988429
0.00498728719757
0.00498731772572
0.00498729532499
0.0049872932341
0.00498729962947
0.00498730812248
0.00498731728669
0.00498732858057
0.0049873506702
0.00498737977879
0.00498739765396
0.00498741201291
0.0049874264365
0.00498744149404
0.00498745682481
0.00498747499219
0.00498749539456
0.00498751698106
0.00498754129128
0.00498757106966
0.00498732572079
0.00498737576623
0.00498736147422
0.00498736102981
0.00498737002107
0.00498738159092
0.00498739715055
0.00498742244977
0.00498745685728
0.00498748124437
0.00498749934411
0.00498751463705
0.00498753012555
0.00498754555744
0.00498756153541
0.00498757832466
0.00498759488585
0.00498761309771
0.0049876340858
0.00498766071702
0.0049874268899
0.00498750903673
0.00498749409217
0.00498749693665
0.00498751022966
0.00498752868806
0.00498755636545
0.00498759090714
0.00498761678869
0.00498763387211
0.00498764616117
0.0049876586444
0.00498767272689
0.00498768573494
0.00498770044042
0.00498771199913
0.004987724109
0.00498773716187
0.00498775302841
0.00498777482867
0.00498775107606
0.00498784964457
0.00498780876838
0.00498779855732
0.00498780328749
0.00498781439386
0.0049878314406
0.00498784787513
0.00498785969362
0.0049878672826
0.00498787444459
0.00498788501397
0.00498788948509
0.00498789314277
0.00498789360254
0.00498789487356
0.0049878964064
0.00498789917681
0.00498790553278
0.0049879167415
0.00498839311228
0.00498846154132
0.00498838890357
0.00498835640091
0.00498833973789
0.00498832348085
0.00498830516813
0.00498828521838
0.00498826568753
0.00498824697642
0.00498823105876
0.00498821009072
0.00498818791436
0.00498816596252
0.00498814698147
0.00498812977022
0.00498811361181
0.00498809955787
0.00498808864699
0.00498808114393
0.00498897449802
0.00498899527471