/*--------------------------------*- C++ -*----------------------------------*\
| =========                 |                                                 |
| \\      /  F ield         | OpenFOAM: The Open Source CFD Toolbox           |
|  \\    /   O peration     | Version:  2312                                  |
|   \\  /    A nd           | Website:  www.openfoam.com                      |
|    \\/     M anipulation  |                                                 |
\*---------------------------------------------------------------------------*/
FoamFile
{
    version     2.0;
    format      ascii;
    arch        "LSB;label=32;scalar=64";
    class       volScalarField;
    location    "0.185/water";
    object      p;
}
// * * * * * * * * * * * * * * * * * * * * * * * * * * * * * * * * * * * * * //

dimensions      [1 -1 -2 0 0 0 0];

internalField   nonuniform List<scalar> 
1503
(
101465.550019
101461.679644
101460.597408
101459.749115
101459.007852
101458.330702
101457.696661
101457.105783
101456.562072
101456.063772
101455.6091
101455.19514
101454.817508
101454.472082
101454.155577
101453.865486
101453.60001
101453.358051
101453.139229
101452.943753
101446.490987
101444.611682
101444.722604
101444.657008
101444.281256
101443.922313
101443.569285
101443.217355
101442.859204
101442.500774
101442.155436
101441.828685
101441.518784
101441.223629
101440.942736
101440.676777
101440.42698
101440.194818
101439.981966
101439.790216
101429.387813
101427.477818
101428.215876
101428.748426
101428.823969
101428.847856
101428.826798
101428.751739
101428.628102
101428.463667
101428.271457
101428.067357
101427.860351
101427.652502
101427.444335
101427.237225
101427.033555
101426.836343
101426.64894
101426.474627
101414.862873
101413.573205
101414.384053
101414.732047
101414.664019
101414.624308
101414.618272
101414.602974
101414.559696
101414.483989
101414.377106
101414.247487
101414.105309
101413.956131
101413.801649
101413.642769
101413.481028
101413.318807
101413.15914
101413.005187
101400.415734
101399.592623
101400.688807
101401.084458
101401.000711
101400.908147
101400.866397
101400.840849
101400.800241
101400.735351
101400.645117
101400.533201
101400.407515
101400.274702
101400.137645
101399.997216
101399.854111
101399.709592
101399.565571
101399.424184
101387.163173
101386.305087
101387.361024
101387.773479
101387.721746
101387.583204
101387.463067
101387.373861
101387.288385
101387.187261
101387.067228
101386.930466
101386.783535
101386.633318
101386.483458
101386.334996
101386.188138
101386.043237
101385.901098
101385.762683
101374.331718
101373.125622
101373.998928
101374.391831
101374.417428
101374.325269
101374.184445
101374.034692
101373.884208
101373.720816
101373.542997
101373.355731
101373.165565
101372.979248
101372.800582
101372.630501
101372.468684
101372.314635
101372.168089
101372.028839
101361.750482
101360.026681
101360.481213
101360.770985
101360.809775
101360.787889
101360.701314
101360.552629
101360.362221
101360.141736
101359.902695
101359.661567
101359.428527
101359.20933
101359.006659
101358.820553
101358.649753
101358.492688
101358.34791
101358.213924
101348.006627
101345.946369
101346.451015
101346.711762
101346.743002
101346.759858
101346.719455
101346.605759
101346.426246
101346.195956
101345.93205
101345.667157
101345.423107
101345.204133
101345.009249
101344.83627
101344.682503
101344.545168
101344.421613
101344.309379
101332.779804
101330.361165
101331.060387
101331.466122
101331.613454
101331.726243
101331.78925
101331.779142
101331.702562
101331.572448
101331.394772
101331.199875
101331.025186
101330.878032
101330.753028
101330.645493
101330.551947
101330.469358
101330.395003
101330.32648
101315.611322
101313.177202
101314.288178
101314.938873
101315.254061
101315.502362
101315.722318
101315.910123
101316.063101
101316.173821
101316.236274
101316.253768
101316.261969
101316.277358
101316.294609
101316.30869
101316.317988
101316.321841
101316.319624
101316.310732
101297.622199
101295.798603
101297.335395
101298.157049
101298.588601
101298.965563
101299.358012
101299.769717
101300.176395
101300.557272
101300.905962
101301.207208
101301.460244
101301.679308
101301.865254
101302.016745
101302.136477
101302.228435
101302.29587
101302.341333
101282.406119
101281.559954
101282.850675
101283.5509
101283.924304
101284.272577
101284.665183
101285.098641
101285.545399
101285.981217
101286.399349
101286.809217
101287.192175
101287.525817
101287.804243
101288.029048
101288.205233
101288.339272
101288.436849
101288.502622
101272.0609
101271.098924
101271.950436
101272.174747
101272.164377
101272.209583
101272.340313
101272.526297
101272.748942
101272.988351
101273.231057
101273.492835
101273.790174
101274.076326
101274.314132
101274.500247
101274.640937
101274.741266
101274.806007
101274.839587
101259.117728
101258.314917
101259.722697
101260.246615
101260.393768
101260.492437
101260.582063
101260.662877
101260.736428
101260.80834
101260.8876
101260.978587
101261.105243
101261.244701
101261.344534
101261.39868
101261.419988
101261.414322
101261.384366
101261.333297
101249.521744
101248.37046
101249.313037
101249.545651
101249.455775
101249.359949
101249.283733
101249.175916
101249.036812
101248.925876
101248.882631
101248.885371
101248.879932
101248.841432
101248.740806
101248.5922
101248.427289
101248.257479
101248.083511
101247.906693
101238.249027
101236.633973
101237.649978
101238.052419
101238.061406
101237.996789
101237.871482
101237.636134
101237.311615
101237.028714
101236.904827
101236.885004
101236.810568
101236.602694
101236.270687
101235.869606
101235.473417
101235.103141
101234.757673
101234.434892
101228.674099
101226.450881
101226.807014
101226.969401
101226.809928
101226.574797
101226.230074
101225.708069
101225.123188
101224.718107
101224.544354
101224.524648
101224.42239
101224.087094
101223.547017
101222.900799
101222.279176
101221.717266
101221.212069
101220.757473
101215.474207
101213.032158
101213.916926
101214.215364
101214.050213
101213.72361
101213.16232
101212.395916
101211.775056
101211.370528
101211.168988
101211.189657
101211.124005
101210.754902
101210.091331
101209.286505
101208.519943
101207.839644
101207.239493
101206.710846
101200.979385
101198.518118
101199.575549
101199.801314
101199.468664
101198.933305
101198.162152
101197.44423
101196.961185
101196.467262
101196.304536
101196.419271
101196.455564
101196.17013
101195.526485
101194.712008
101193.939772
101193.269404
101192.68643
101192.179756
101185.432928
101182.653544
101183.624615
101183.699045
101183.22131
101182.596623
101181.886329
101181.194897
101180.37475
101179.844751
101179.892507
101180.086867
101180.226393
101180.120891
101179.692811
101179.063581
101178.454629
101177.946286
101177.515437
101177.145151
101169.104582
101166.02637
101166.624789
101166.596815
101166.049679
101165.294972
101164.288811
101163.17929
101162.418306
101162.29388
101162.419139
101162.549653
101162.66292
101162.745302
101162.710603
101162.487311
101162.210359
101162.000118
101161.841393
101161.709773
101151.673736
101147.865769
101147.746172
101147.543369
101146.911442
101146.094941
101145.166577
101144.513707
101144.377289
101144.527818
101144.642082
101144.751174
101144.890035
101145.054689
101145.25087
101145.466993
101145.601139
101145.750275
101145.921626
101146.084318
101128.908912
101124.968094
101125.316187
101125.442652
101125.365752
101125.302916
101125.295355
101125.566754
101126.091583
101126.582182
101126.939162
101127.200733
101127.438797
101127.658413
101127.970177
101128.469088
101129.026803
101129.550532
101130.057395
101130.520073
101104.3859
101101.171054
101102.569553
101103.342546
101103.943288
101104.718802
101105.639479
101106.705058
101107.797141
101108.737232
101109.489172
101110.093501
101110.607338
101111.106586
101111.571758
101112.113637
101112.922371
101113.758209
101114.549856
101115.266152
101084.411483
101082.717926
101084.596049
101085.422802
101086.026685
101086.907972
101088.102696
101089.472257
101090.866625
101092.135819
101093.17953
101094.088222
101094.87603
101095.608525
101096.237886
101096.852936
101097.683906
101098.684209
101099.654488
101100.532071
101069.904975
101069.688285
101071.300473
101071.916134
101072.262814
101072.82541
101073.777582
101074.995623
101076.298932
101077.506564
101078.539262
101079.541768
101080.482805
101081.317672
101082.141331
101082.848367
101083.573477
101084.539838
101085.535764
101086.450305
101059.305454
101059.641981
101060.754912
101061.183124
101061.35786
101061.651139
101062.274505
101063.161504
101064.132146
101065.002865
101065.812177
101066.697415
101067.57941
101068.412752
101069.209197
101069.890797
101070.514703
101071.321446
101072.20752
101073.038917
101050.445522
101050.899952
101051.987418
101052.231505
101052.230835
101052.301451
101052.619303
101053.14297
101053.71785
101054.152458
101054.612469
101055.242456
101055.866365
101056.487312
101057.075217
101057.662983
101058.215418
101058.840648
101059.545885
101060.212778
101040.521663
101041.241848
101042.688162
101043.060061
101043.106874
101043.160596
101043.382152
101043.749743
101044.049454
101044.090979
101044.310687
101044.622171
101044.930519
101045.213904
101045.512025
101045.940731
101046.415561
101046.887782
101047.391205
101047.849455
101032.632152
101033.154052
101034.409625
101034.673193
101034.650705
101034.615983
101034.714598
101034.893082
101034.83027
101034.551147
101034.430192
101034.498273
101034.500439
101034.411936
101034.374007
101034.550183
101034.969188
101035.327858
101035.620133
101035.839524
101023.988807
101024.382361
101025.662176
101026.026663
101026.074767
101026.064073
101026.116838
101026.09414
101025.652407
101025.035093
101024.821552
101024.556345
101024.250421
101023.871717
101023.394832
101023.423783
101023.814554
101024.049461
101024.115291
101024.073588
101016.680098
101016.693775
101017.501225
101017.709537
101017.642073
101017.507068
101017.367273
101016.999952
101016.134944
101015.447077
101014.908473
101014.510124
101013.973761
101013.201102
101012.58185
101012.45612
101012.765691
101012.900066
101012.745622
101012.424273
101006.35325
101006.488765
101007.90752
101008.240355
101008.177481
101008.010789
101007.75331
101007.087154
101006.043168
101005.200302
101004.686888
101004.012363
101003.303228
101002.47805
101001.435283
101001.398428
101001.61453
101001.642086
101001.307603
101000.708219
100996.855593
100996.920279
100998.444434
100998.630563
100998.369691
100997.99912
100997.454341
100996.371721
100995.139745
100994.461167
100993.671624
100992.979313
100992.145276
100990.834555
100990.062349
100989.865323
100989.872339
100989.92699
100989.503931
100988.675338
100985.464969
100985.340272
100987.269029
100987.58082
100987.30816
100986.849245
100986.033564
100984.665806
100983.698579
100982.771186
100982.017532
100981.14225
100980.115743
100978.894802
100977.791017
100977.690015
100977.70018
100977.672551
100977.164285
100976.140431
100975.736493
100975.174651
100976.691362
100976.723845
100976.133952
100975.296815
100973.967692
100972.545922
100971.373383
100970.514243
100969.539842
100968.557494
100967.441384
100965.710207
100965.227428
100964.947602
100964.686224
100964.61639
100964.081552
100962.930645
100964.004257
100962.775517
100964.086236
100964.159706
100963.526871
100962.485184
100960.96392
100959.467415
100958.511744
100957.408922
100956.322438
100955.201187
100953.707523
100952.520783
100951.772643
100951.199265
100950.906734
100950.712258
100950.145968
100948.924619
101452.776399
101452.643471
101452.544684
101452.476321
101452.435457
101452.419842
101452.427756
101452.457951
101452.509583
101452.582157
101452.675527
101452.789972
101452.926427
101453.086843
101453.274165
101453.489797
101453.729881
101453.999243
101454.367837
101458.118258
101439.625099
101439.493414
101439.395109
101439.326319
101439.28389
101439.265105
101439.267592
101439.289246
101439.328183
101439.38277
101439.45175
101439.534461
101439.630989
101439.741697
101439.864999
101439.994359
101440.121962
101440.249276
101440.394007
101440.399928
101426.319468
101426.191156
101426.090942
101426.015558
101425.961954
101425.927145
101425.90839
101425.903205
101425.909432
101425.92534
101425.949727
101425.981881
101426.021093
101426.065301
101426.109284
101426.145642
101426.170507
101426.188849
101426.211109
101426.106442
101412.862455
101412.738768
101412.636649
101412.553847
101412.48795
101412.436478
101412.397188
101412.368166
101412.347912
101412.335391
101412.329972
101412.331112
101412.337648
101412.346824
101412.354273
101412.356985
101412.357855
101412.366282
101412.382
101412.290199
101399.289762
101399.169452
101399.066299
101398.97877
101398.90501
101398.843186
101398.791725
101398.749384
101398.715295
101398.688918
101398.669856
101398.657448
101398.650179
101398.645272
101398.639576
101398.63254
101398.628883
101398.633801
101398.636284
101398.556567
101385.631122
101385.512425
101385.409332
101385.320331
101385.243674
101385.17787
101385.121734
101385.0744
101385.035296
101385.004017
101384.980088
101384.962578
101384.949702
101384.938834
101384.927859
101384.917936
101384.914402
101384.916872
101384.912402
101384.85062
101371.898751
101371.782594
101371.682152
101371.595336
101371.520275
101371.455534
101371.400062
101371.353133
101371.314243
101371.282948
101371.258608
101371.240076
101371.225487
101371.212573
101371.200275
101371.191062
101371.18913
101371.18862
101371.180339
101371.132855
101358.091422
101357.983734
101357.8914
101357.811881
101357.743225
101357.684051
101357.633409
101357.590656
101357.555317
101357.526892
101357.504629
101357.487295
101357.473107
101357.46028
101357.44875
101357.441755
101357.440785
101357.43722
101357.427906
101357.391217
101344.208062
101344.119401
101344.043287
101343.977481
101343.920392
101343.870983
101343.828594
101343.792791
101343.763222
101343.739432
101343.72068
101343.705782
101343.693176
101343.681647
101343.672053
101343.667708
101343.666705
101343.660837
101343.651998
101343.623107
101330.262704
101330.204621
101330.152803
101330.106416
101330.064961
101330.028223
101329.99615
101329.968741
101329.945927
101329.92744
101329.912677
101329.900628
101329.890049
101329.880355
101329.87319
101329.871078
101329.869204
101329.862029
101329.854191
101329.830969
101316.294691
101316.273065
101316.248653
101316.223106
101316.197672
101316.173374
101316.151025
101316.131222
101316.114299
101316.100263
101316.08873
101316.078922
101316.069962
101316.061902
101316.05693
101316.055973
101316.052668
101316.044922
101316.038017
101316.018932
101302.366087
101302.373569
101302.369594
101302.35852
101302.343423
101302.32656
101302.309573
101302.293606
101302.27935
101302.267053
101302.256515
101302.247165
101302.238472
101302.23107
101302.227289
101302.225984
101302.220843
101302.212751
101302.206427
101302.190333
101288.539418
101288.552726
101288.550637
101288.539115
101288.522264
101288.502988
101288.483312
101288.46459
101288.447615
101288.432676
101288.419611
101288.407937
101288.397391
101288.389047
101288.38483
101288.381548
101288.374194
101288.365515
101288.359289
101288.345281
101274.845645
101274.831328
101274.805302
101274.773175
101274.738699
101274.704421
101274.672018
101274.642509
101274.61638
101274.593663
101274.574001
101274.556838
101274.542059
101274.530952
101274.524427
101274.517737
101274.507796
101274.498045
101274.491412
101274.478743
101261.265682
101261.190333
101261.114836
101261.042458
101260.975146
101260.914022
101260.85962
101260.812037
101260.771021
101260.736027
101260.706278
101260.680991
101260.660075
101260.64472
101260.63431
101260.623303
101260.610518
101260.599241
101260.591781
101260.579827
101247.73264
101247.57158
101247.428394
101247.302274
101247.192102
101247.096655
101247.01465
101246.944777
101246.885702
101246.836068
101246.794526
101246.759979
101246.732256
101246.712084
101246.697046
101246.681598
101246.666028
101246.653038
101246.644531
101246.632813
101234.140699
101233.885557
101233.669942
101233.487699
101233.333789
101233.204055
101233.095008
101233.003682
101232.927513
101232.864263
101232.812002
101232.769342
101232.73596
101232.711758
101232.69258
101232.673524
101232.655745
101232.641293
101232.631819
101232.620028
101220.358675
101220.02478
101219.750816
101219.525091
101219.33859
101219.184262
101219.056499
101218.950809
101218.863555
101218.791788
101218.733177
101218.686195
101218.650352
101218.624454
101218.603006
101218.582145
101218.563365
101218.548212
101218.538199
101218.526242
101206.258035
101205.887815
101205.590317
101205.349778
101205.154321
101204.994871
101204.864423
101204.757554
101204.670059
101204.598716
101204.541176
101204.496045
101204.462717
101204.438824
101204.418177
101204.39811
101204.380124
101204.365492
101204.355688
101204.343707
101191.75327
101191.411341
101191.141551
101190.927156
101190.755647
101190.617602
101190.505901
101190.415199
101190.341527
101190.282047
101190.234911
101190.199213
101190.174349
101190.156942
101190.14085
101190.124584
101190.109537
101190.096928
101190.08829
101190.076637
101176.838533
101176.598388
101176.413438
101176.270031
101176.157918
101176.069445
101175.99897
101175.942437
101175.897045
101175.861064
101175.833698
101175.814893
101175.804213
101175.797651
101175.789791
101175.780195
101175.770187
101175.761099
101175.754606
101175.743772
101161.605447
101161.53073
101161.479353
101161.444639
101161.421329
101161.405523
101161.394518
101161.386628
101161.381039
101161.377739
101161.377424
101161.381169
101161.388884
101161.396421
101161.399582
101161.398804
101161.395444
101161.391045
101161.387481
101161.377985
101146.229016
101146.355876
101146.465503
101146.560375
101146.641873
101146.711079
101146.769128
101146.817366
101146.857438
101146.891386
101146.921612
101146.950454
101146.978289
101147.001302
101147.016751
101147.025754
101147.029795
101147.030653
101147.030424
101147.022689
101130.918904
101131.250157
101131.521895
101131.746333
101131.931954
101132.08515
101132.211102
101132.314307
101132.398918
101132.469021
101132.528687
101132.581471
101132.628246
101132.665875
101132.693063
101132.71141
101132.722563
101132.728509
101132.731546
101132.7258
101115.881218
101116.385868
101116.794415
101117.127581
101117.400117
101117.623094
101117.80523
101117.953737
101118.074902
101118.17453
101118.258078
101118.330093
101118.391864
101118.441085
101118.477701
101118.503599
101118.520556
101118.53069
101118.536449
101118.532679
101101.287048
101101.904583
101102.402074
101102.805638
101103.134165
101103.401853
101103.619782
101103.796965
101103.941098
101104.059115
101104.15738
101104.241063
101104.311679
101104.367721
101104.410025
101104.440575
101104.461192
101104.474019
101104.481563
101104.479518
101087.243311
101087.894249
101088.418653
101088.843433
101089.188544
101089.469137
101089.697059
101089.881925
101090.0319
101090.154312
101090.255853
101090.341846
101090.413774
101090.470734
101090.514054
101090.545631
101090.56721
101090.580836
101090.588968
101090.588201
101073.769261
101074.373566
101074.861641
101075.256972
101075.577707
101075.83788
101076.048573
101076.218833
101076.356389
101076.468238
101076.560815
101076.639128
101076.704342
101076.755872
101076.795149
101076.823816
101076.84341
101076.855756
101076.863155
101076.863093
101060.805239
101061.298614
101061.697116
101062.018825
101062.27849
101062.487745
101062.655873
101062.790511
101062.898257
101062.985199
101063.057025
101063.118018
101063.16875
101063.208638
101063.238887
101063.260744
101063.275418
101063.284404
101063.289739
101063.289732
101048.254947
101048.590958
101048.858934
101049.07149
101049.239574
101049.37192
101049.475485
101049.555999
101049.618476
101049.667678
101049.708168
101049.743157
101049.772378
101049.794941
101049.811562
101049.822985
101049.829992
101049.833655
101049.835658
101049.835021
101036.018995
101036.160173
101036.264336
101036.338526
101036.389659
101036.423277
101036.44368
101036.454349
101036.458379
101036.458896
101036.459031
101036.460622
101036.46232
101036.462635
101036.461613
101036.459409
101036.4563
101036.452872
101036.450385
101036.448412
101023.990703
101023.903509
101023.815169
101023.726438
101023.639613
101023.556621
101023.47873
101023.406835
101023.341818
101023.28491
101023.237542
101023.199907
101023.169318
101023.143442
101023.121524
101023.103068
101023.087802
101023.075779
101023.067798
101023.063779
101012.043764
101011.698417
101011.393783
101011.122844
101010.882177
101010.66942
101010.482318
101010.318811
101010.177303
101010.05692
101009.957186
101009.876395
101009.810294
101009.755506
101009.710397
101009.673796
101009.64486
101009.623098
101009.608826
101009.602067
101000.011756
100999.391903
100998.858114
100998.394954
100997.9925
100997.643583
100997.342067
100997.082694
100996.861243
100996.67466
100996.520452
100996.39484
100996.291829
100996.206882
100996.137456
100996.081712
100996.038252
100996.006058
100995.984972
100995.974833
100987.688153
100986.804666
100986.047753
100985.396194
100984.834717
100984.351773
100983.93754
100983.583662
100983.283395
100983.031616
100982.823866
100982.654236
100982.514927
100982.400198
100982.30663
100982.231757
100982.173671
100982.130881
100982.10278
100982.088716
100974.897823
100973.772868
100972.810863
100971.98503
100971.276027
100970.668558
100970.149499
100969.707656
100969.333999
100969.021571
100968.764104
100968.553627
100968.380581
100968.23806
100968.121828
100968.028868
100967.95684
100967.903848
100967.868887
100967.850496
100961.485925
100960.152147
100959.012024
100958.033609
100957.19505
100956.478174
100955.867067
100955.348039
100954.910056
100954.544589
100954.243773
100953.997733
100953.795295
100953.628471
100953.492296
100953.383285
100953.29876
100953.236517
100953.1952
100953.172187
100947.334092
100945.826039
100944.537325
)
;

boundaryField
{
    emptyPatch
    {
        type            empty;
    }
    minY
    {
        type            calculated;
        value           nonuniform List<scalar> 
40
(
101470.959494
101467.54775
101466.949767
101466.242638
101465.539145
101464.869352
101464.236489
101463.64577
101463.102072
101462.603772
101462.1491
101461.73514
101461.357508
101461.012082
101460.695577
101460.405486
101460.14001
101459.898051
101459.679229
101459.483753
101459.316399
101459.183471
101459.084684
101459.016321
101458.975457
101458.959842
101458.967756
101458.997951
101459.049583
101459.122157
101459.215527
101459.329972
101459.466427
101459.626843
101459.814165
101460.029797
101460.269881
101460.539243
101460.907837
101464.658258
)
;
    }
    maxY
    {
        type            calculated;
        value           nonuniform List<scalar> 0();
    }
    maxX
    {
        type            calculated;
        value           nonuniform List<scalar> 
37
(
101458.118258
101440.399928
101426.106442
101412.290199
101398.556567
101384.85062
101371.132855
101357.391217
101343.623107
101329.830969
101316.018932
101302.190333
101288.345281
101274.478743
101260.579827
101246.632813
101232.620028
101218.526242
101204.343707
101190.076637
101175.743772
101161.377985
101147.022689
101132.7258
101118.532679
101104.479518
101090.588201
101076.863093
101063.289732
101049.835021
101036.448412
101023.063779
101009.602067
100995.974833
100982.088716
100967.850496
100953.172187
)
;
    }
    water_to_heater
    {
        type            calculated;
        value           nonuniform List<scalar> 
61
(
101465.550405
101448.402118
101445.858325
101430.658284
101428.12812
101415.502998
101412.972841
101400.425422
101387.174794
101376.521903
101373.61966
101363.249647
101360.28228
101348.788838
101345.72912
101332.79872
101315.632189
101299.899919
101296.894527
101283.74859
101281.118763
101272.741334
101270.138435
101259.1494
101249.555792
101240.250952
101237.629683
101230.010012
101227.414987
101216.169904
101213.548635
101201.022094
101185.477786
101171.140555
101168.488605
101153.114255
101150.329806
101129.69354
101126.751461
101104.437206
101084.466201
101071.83366
101069.341485
101060.474595
101058.263846
101051.057652
101048.872018
101040.589228
101032.702308
101025.709807
101023.511143
101017.836442
101015.673506
101006.979567
101004.780904
100996.935214
100985.546278
100977.441797
100975.280441
100965.189533
100962.99087
)
;
    }
    procBoundary2to3
    {
        type            processor;
        value           nonuniform List<scalar> 
41
(
100952.629887
100951.114279
100952.543392
100952.237827
100951.112425
100949.548626
100947.687656
100946.478347
100945.172332
100943.893374
100942.660869
100941.296219
100939.768509
100938.094513
100937.427285
100936.718939
100936.100021
100935.687928
100935.114458
100933.961699
100943.431709
100942.48549
100941.678191
100940.991484
100940.40947
100939.919329
100939.511166
100939.175692
100938.901371
100938.675599
100938.489438
100938.337254
100938.215218
100938.120398
100938.050432
100938.003671
100937.976065
100932.323829
100930.688525
100943.431709
100929.286148
)
;
    }
}


// ************************************************************************* //
