/*--------------------------------*- C++ -*----------------------------------*\
| =========                 |                                                 |
| \\      /  F ield         | OpenFOAM: The Open Source CFD Toolbox           |
|  \\    /   O peration     | Version:  2312                                  |
|   \\  /    A nd           | Website:  www.openfoam.com                      |
|    \\/     M anipulation  |                                                 |
\*---------------------------------------------------------------------------*/
FoamFile
{
    version     2.0;
    format      ascii;
    arch        "LSB;label=32;scalar=64";
    class       volScalarField;
    location    "0.955/water";
    object      T.gas;
}
// * * * * * * * * * * * * * * * * * * * * * * * * * * * * * * * * * * * * * //

dimensions      [0 0 0 1 0 0 0];

internalField   nonuniform List<scalar> 
1497
(
300.653168566
300.464144023
300.35356115
300.27228094
300.203439522
300.143845212
300.093257584
300.053557894
300.026365995
300.011038794
300.00395198
300.001240527
300.000348481
455.977148401
342.898510232
314.459353617
305.956091761
302.861148771
301.538380148
300.916182956
300.608133287
300.444163083
300.341235182
300.261773729
300.196079452
300.139825879
300.092551349
300.054808679
300.028093882
300.012220691
300.004570542
300.001505312
300.00045379
453.839383631
339.895813436
312.208055362
304.81628201
302.310523418
301.278314986
300.797126135
300.554244249
300.416438181
300.321219958
300.247974021
300.187042563
300.135526234
300.092032402
300.056569999
300.03011149
300.013605454
300.00525603
300.001820525
300.000583274
444.664129146
342.866592079
312.093437698
304.180595312
301.887773754
301.05742481
300.690439805
300.500961649
300.382911557
300.299540106
300.233531844
300.17881129
300.132522597
300.093057265
300.059462251
300.033023733
300.015477476
300.006153128
300.002162383
300.000706157
425.811661298
344.753238827
313.547671671
304.253748154
301.700108111
300.917069031
300.61014902
300.451739121
300.352895514
300.280154126
300.22196914
300.173563474
300.132477383
300.096385148
300.064400346
300.037142531
300.017770715
300.007098654
300.002480959
300.000800441
405.973491773
341.892806439
314.198928002
304.531001148
301.669683125
300.84561196
300.557591983
300.418429121
300.331850742
300.267874905
300.216387049
300.173829123
300.136437308
300.102055256
300.070028114
300.041524481
300.020234257
300.008077568
300.002774458
300.000863207
392.182966343
338.231730335
314.159232207
304.868626425
301.802197491
300.866288992
300.547278026
300.405565045
300.324018184
300.265546918
300.21868561
300.178816983
300.142874022
300.108965797
300.076329795
300.046161061
300.022637665
300.008921788
300.002991892
300.000899124
389.579253064
339.690728952
316.941483769
306.767204777
302.634764263
301.132287879
300.607848132
300.4126787
300.328931529
300.273880554
300.228991343
300.189543013
300.153033725
300.117993985
300.083775717
300.051457663
300.025329411
300.009687244
300.003133486
300.000912366
408.287302496
354.782810589
325.743289082
310.709347034
304.090944143
301.569139602
300.709388815
300.441242628
300.350271322
300.293918067
300.247368587
300.205409511
300.16611913
300.128407268
300.091629423
300.056642418
300.027823629
300.010487317
300.00326546
300.00093497
472.863661256
371.634220121
329.010612054
311.242774082
304.194185262
301.622975945
300.75207992
300.47586413
300.377763688
300.318911598
300.268655576
300.222395929
300.179211793
300.138429222
300.09898104
300.06121923
300.029862345
300.011134405
300.003471399
300.001013048
514.942547136
374.438299695
325.183744576
308.563997913
303.142157326
301.343990171
300.723818777
300.498748799
300.403249623
300.342310803
300.287668333
300.236814833
300.189867128
300.146401842
300.104972883
300.064943208
300.031737863
300.01199002
300.003837029
300.001205897
522.777479392
366.918288838
318.73964067
305.77026086
302.182991278
301.072796022
300.674803637
300.508819971
300.421479778
300.359176594
300.301634098
300.247646002
300.198062698
300.152655325
300.10971209
300.068107543
300.033717971
300.013143483
300.004474436
300.001592233
521.627930311
359.470319139
314.847069561
304.125479929
301.590494017
300.899941579
300.642499565
300.515377423
300.432431183
300.370024209
300.310891089
300.255161927
300.203998194
300.157235016
300.112993225
300.070472209
300.035789946
300.014765455
300.005558424
300.002277294
519.805601584
361.52576572
315.21837446
303.831946216
301.403983785
300.828276187
300.624996404
300.518056443
300.441125475
300.378001895
300.317757202
300.261068468
300.208921454
300.160931784
300.115161279
300.072473653
300.038309296
300.017182635
300.007299338
300.003420005
518.910383005
366.714309678
318.935098809
305.234625641
301.755983519
300.9226194
300.650374311
300.530690548
300.45273276
300.386889277
300.325154747
300.267380739
300.213901297
300.163996627
300.11706159
300.074927854
300.04180474
300.020707598
300.009967849
300.005198234
504.169896426
370.268201419
323.274195102
307.56815968
302.675447383
301.28148009
300.780731654
300.577292309
300.473937613
300.399781551
300.334785255
300.274638015
300.218681917
300.166950213
300.119728462
300.078714692
300.046817003
300.025684658
300.013847591
300.007831543
469.598793355
364.678300966
324.327471132
309.172363167
303.613380877
301.733991438
300.991790284
300.664446523
300.510383947
300.418463206
300.346169949
300.281735034
300.223148111
300.17021657
300.123562321
300.0841289
300.05362615
300.032260807
300.019184475
300.011557247
441.314884516
352.880878557
321.145078891
308.959025162
303.992161217
302.049647036
301.174819143
300.752975912
300.550992548
300.438397832
300.355706244
300.286999842
300.226589749
300.173754494
300.128435503
300.091154548
300.062058412
300.040517287
300.026169433
300.016563877
426.306752588
344.775125231
318.036451807
308.062358649
303.915841662
302.119659773
301.233615065
300.791554775
300.573236717
300.448977359
300.360213536
300.289354475
300.228926437
300.177253806
300.134342239
300.099441849
300.072048379
300.050605922
300.034809959
300.022948694
417.906186146
340.409360462
315.458960224
306.89746966
303.460847704
301.925050401
301.157799693
300.768897745
300.568500737
300.446027536
300.358745476
300.289013122
300.230214858
300.181246288
300.141204108
300.109239024
300.083532013
300.062569882
300.044931943
300.030668162
410.69138368
338.356225364
313.682359842
305.758049818
302.857969664
301.618963063
301.018317263
300.712953458
300.545289775
300.43454842
300.353584911
300.287475143
300.232143709
300.186450218
300.15007594
300.120993837
300.097223359
300.075906483
300.056357874
300.039552407
402.09188142
336.71498066
312.861648875
305.038597338
302.388888794
301.357076826
300.891967818
300.657651155
300.520226989
300.424645307
300.350492522
300.288899223
300.237153293
300.195422376
300.162751981
300.136474255
300.112559816
300.090384887
300.068847726
300.049390091
394.041859584
335.151220318
312.595638565
304.822993163
302.193901457
301.233395948
300.831473013
300.633140952
300.512602545
300.425605323
300.356344264
300.298340695
300.25080426
300.212332418
300.180922615
300.154003254
300.129702929
300.105948955
300.082195865
300.060133423
391.421926091
337.117587663
314.508284516
305.812617429
302.608153361
301.403817928
300.907706705
300.671040959
300.535149228
300.443851241
300.374620716
300.318415177
300.272131264
300.234139036
300.202563881
300.174902723
300.148841239
300.122620336
300.096244311
300.071158079
402.589549002
348.524389718
322.054210102
309.545769667
304.230269373
302.073536762
301.174805976
300.775455635
300.582162694
300.474881037
300.402687238
300.346353205
300.299851354
300.261233424
300.22814214
300.197890389
300.168527795
300.139073626
300.109415969
300.080807938
447.712740195
367.864663117
329.48299652
312.4322664
305.336916889
302.486900075
301.325291883
300.83199775
300.613661025
300.503896454
300.43375883
300.378191767
300.331025396
300.290084357
300.253204716
300.218522336
300.184885812
300.151695673
300.118597029
300.08651585
502.136680028
376.888965369
330.35980285
312.127171525
305.036573736
302.32030634
301.257482605
300.817772408
300.627087403
300.530445439
300.463678658
300.407713431
300.358005014
300.312966811
300.271293812
300.231909908
300.194046246
300.157090872
300.120557574
300.085643247
517.999123536
378.698946115
329.231632603
311.04938066
304.383804446
302.003968887
301.135264298
300.78758145
300.635940758
300.550838605
300.48444376
300.426205053
300.373048305
300.32393916
300.278142306
300.234924015
300.193491802
300.152898983
300.112968098
300.076780961
521.787714379
378.409984889
328.430471745
310.380087377
303.931436778
301.762822936
301.038045281
300.765095324
300.640250239
300.557910073
300.490523245
300.430058982
300.374195174
300.322197719
300.273479883
300.227167936
300.181959135
300.137404152
300.096084458
300.0610892
522.656204624
375.858671511
326.318208487
309.45644433
303.543475616
301.593030956
300.97423754
300.749971121
300.633042008
300.551344532
300.482956333
300.421054922
300.363539115
300.309488984
300.257848119
300.207418049
300.158541152
300.11299062
300.073170534
300.042324639
518.454835767
359.012812415
318.944920535
307.131836016
302.902628186
301.42409048
300.931230668
300.728715428
300.61532312
300.533677606
300.464763986
300.402037564
300.342720207
300.285278144
300.229748517
300.177095655
300.127936272
300.084297032
300.049211871
300.025294597
510.177760416
346.971681608
313.258570951
304.982406203
302.279504263
301.272559055
300.880449683
300.697181993
300.587981401
300.507132974
300.437934556
300.37286569
300.309844468
300.250097279
300.193824244
300.141739391
300.095287067
300.056743549
300.029254602
300.012876567
507.4319712
343.333055532
310.591420857
303.725009759
301.837105619
301.126457895
300.817050485
300.656024519
300.552787327
300.473026934
300.40104964
300.332900758
300.269127284
300.209809745
300.155430375
300.107180272
300.066136158
300.035060352
300.015234375
300.00637212
500.427174679
346.608027294
310.550928163
303.312656681
301.595301209
301.012995737
300.754642171
300.610870484
300.512220764
300.430645723
300.356371745
300.288366139
300.226160165
300.170303626
300.121522362
300.079198232
300.04472495
300.020688423
300.008770516
300.003907853
466.215183219
347.124467379
312.028347115
303.566910393
301.534258235
300.940875495
300.69986443
300.564746535
300.466719625
300.383831427
300.31055344
300.244779498
300.187460208
300.138037237
300.095024162
300.058452559
300.030214803
300.013500264
300.006162081
300.003138122
425.33926505
342.249685305
312.680422404
303.894846704
301.551217361
300.894513551
300.651552696
300.518689807
300.421355035
300.339296866
300.268376815
300.208698547
300.158418537
300.114473922
300.076317902
300.0446942
300.022580734
300.010711036
300.00557778
300.003187128
398.622871749
335.451844243
311.777067423
303.849226717
301.513132396
300.849215752
300.610717169
300.479761373
300.382158576
300.302306052
300.237312016
300.184279778
300.139128369
300.099335023
300.064721961
300.037623831
300.020144565
300.01084892
300.006356875
300.003833601
386.728293355
332.45421738
311.291548349
303.834743446
301.523614849
300.846673519
300.596749147
300.457263926
300.357197183
300.281124533
300.221361223
300.172367714
300.13010776
300.092642159
300.060572349
300.036895048
300.021285013
300.012705763
300.008046379
300.005022094
300.000093086
300.000025029
300.000007491
300.000003449
300.000002852
300.00000352
300.000005748
300.000008844
300.000011328
300.000011935
300.000011523
300.000009088
300.000004725
300.000001852
300.000006816
300.000021175
300.000050321
300.000056312
300.000057792
300.000057489
300.000131889
300.000038631
300.000011617
300.00000441
300.000002949
300.000002936
300.000004164
300.000006057
300.000007231
300.000006963
300.000002833
300
300
300
300.000000746
300.000023111
300.000053287
300.000057793
300.000058924
300.000058858
300.00017961
300.000054971
300.00001655
300.000005419
300.0000029
300.00000246
300.00000272
300.000003415
300.000003637
300.000002498
300
300
300
300
300
300.000030798
300.000056103
300.000059536
300.000060375
300.000060605
300.000222438
300.000069091
300.000020466
300.000006049
300.000002747
300.000002093
300.000001931
300.000001761
300.000001337
300
300
300
300
300
300.000001811
300.000037883
300.000057739
300.000060952
300.00006189
300.00006245
300.000250174
300.000076501
300.000021752
300.000005725
300.000002401
300.000001706
300.000001432
300.000000946
300.000000254
300
300
300
300
300
300.00001096
300.000043768
300.000058848
300.000062174
300.000063357
300.000064629
300.000258569
300.000076112
300.000020458
300.000004661
300.000001825
300.00000121
300.00000083
300.000000235
300
300
300
300
300
300
300.000021844
300.00004995
300.000059665
300.000063299
300.000064344
300.000068472
300.000256927
300.000072283
300.000019159
300.000004413
300.000001373
300.000000684
300.000000182
300
300
300
300
300
300
300
300.000025129
300.000050121
300.000059062
300.000064298
300.000066019
300.00007543
300.000255501
300.000073686
300.000022633
300.000007936
300.000003226
300.00000096
300
300
300
300
300
300
300
300.000002327
300.000026878
300.000045875
300.000059059
300.000065998
300.000072424
300.000084226
300.00026921
300.000088781
300.000036456
300.000018884
300.000010721
300.000005533
300.000001782
300.000001404
300
300.000004755
300.000004981
300.000002878
300.000002749
300.000009111
300.000029503
300.000046747
300.000061224
300.000069514
300.000083179
300.000096236
300.000322683
300.000130259
300.000067749
300.000041734
300.000026743
300.00001637
300.000009279
300.000004544
300.000009304
300.000014935
300.000007034
300.000001449
300.000001812
300.000012515
300.000028301
300.000043717
300.000061725
300.00007101
300.000100928
300.000112272
300.00044808
300.00021546
300.000127079
300.00008345
300.000056084
300.00003634
300.000022425
300.000016451
300.000019505
300.000021084
300.000006376
300
300.000001323
300.000019304
300.000022971
300.000038033
300.00005903
300.000082256
300.000125358
300.000133178
300.000688908
300.000371428
300.00023192
300.00015632
300.000106054
300.000071284
300.000047799
300.000034878
300.000030187
300.00002613
300.000008556
300.000000436
300.000011002
300.000025153
300.000021547
300.000034063
300.000051568
300.00011939
300.000150213
300.000157914
300.001119781
300.00064436
300.000413107
300.00027789
300.000190688
300.00013127
300.000090232
300.000063925
300.000048563
300.000036311
300.000018068
300.000013587
300.00002773
300.000025306
300.000022633
300.000032167
300.000073907
300.000148214
300.000177206
300.00018493
300.001826659
300.001094193
300.000712217
300.000478966
300.000331679
300.000230292
300.000159305
300.000111374
300.000079918
300.000054802
300.000035652
300.000035213
300.000038536
300.000026789
300.000025742
300.000033245
300.000103732
300.000172495
300.000206937
300.000215059
300.002937917
300.001812393
300.00119349
300.000806596
300.000560735
300.000390703
300.000271051
300.000188101
300.000131768
300.000087917
300.000062411
300.000060423
300.000048116
300.000033942
300.000031294
300.000048019
300.000116839
300.000200444
300.000239616
300.000242575
300.004627298
300.002920792
300.001943185
300.001324776
300.000919351
300.000642279
300.00044587
300.000307614
300.000212282
300.000144339
300.000104689
300.00009273
300.000065411
300.000048026
300.000040351
300.000057453
300.000127811
300.000236762
300.000274551
300.000256377
300.007080504
300.004552506
300.003053895
300.002099352
300.001453039
300.001014001
300.000703561
300.000483081
300.000328885
300.000228884
300.000167215
300.000136303
300.000095378
300.00007721
300.000050075
300.000068361
300.000140449
300.00028481
300.000310399
300.000285097
300.010459049
300.006831932
300.004613619
300.003180037
300.002207432
300.001528126
300.001056117
300.000721099
300.000488375
300.000339062
300.000247238
300.00019043
300.000134099
300.000101216
300.000063456
300.000084389
300.000162003
300.000337432
300.000349678
300.000316687
300.014883801
300.009849641
300.00668674
300.004610784
300.00319451
300.002200263
300.001505654
300.001020227
300.000683637
300.000467665
300.000337599
300.000249194
300.000174225
300.000122322
300.000079958
300.000106866
300.000193632
300.000383005
300.000391727
300.000349612
300.020349803
300.013648349
300.009314101
300.00640711
300.004408645
300.003014065
300.002033248
300.00135993
300.000897872
300.000603826
300.000429508
300.000305833
300.000213326
300.000141347
300.000100308
300.000136818
300.000235617
300.000431249
300.000439026
300.000386715
300.026794993
300.018228567
300.012458104
300.008516224
300.005799489
300.003919096
300.002605938
300.001713327
300.001112483
300.000734954
300.000513172
300.000354663
300.000247046
300.000160715
300.000125809
300.000174722
300.000287582
300.000484915
300.000493407
300.000431211
300.034158971
300.023434148
300.015970828
300.010816585
300.007273883
300.004846133
300.003178222
300.002047904
300.001306145
300.000846296
300.000577766
300.000390694
300.000270839
300.000183767
300.000158013
300.000221855
300.000348862
300.000553899
300.000563662
300.000491066
300.042138069
300.028934471
300.019578547
300.013100607
300.008681796
300.005692028
300.003676535
300.002324771
300.001451354
300.000919852
300.000612423
300.000410006
300.00028429
300.000211172
300.000199721
300.000281908
300.000422931
300.000639456
300.000647582
300.000565759
300.050025443
300.034130272
300.022815566
300.015029627
300.009787774
300.006296471
300.003987644
300.002484491
300.001519603
300.000937422
300.000609499
300.000410594
300.000290088
300.000243744
300.000257274
300.000363844
300.000536126
300.000732086
300.00074614
300.000659793
300.056438953
300.03799152
300.024952657
300.016108995
300.010264768
300.006449821
300.003994392
300.002442928
300.001483154
300.000902167
300.000573647
300.000395997
300.000299831
300.000285904
300.0003515
300.000504827
300.000755427
300.000815105
300.000862138
300.000766562
300.059366633
300.039108306
300.025061922
300.015756144
300.009758126
300.005967559
300.003615318
300.002182637
300.00132456
300.000818466
300.000526987
300.000378401
300.000329749
300.00037844
300.000528099
300.000715454
300.00085547
300.000954329
300.001008144
300.000949139
300.056936877
300.036270654
300.022421137
300.013580527
300.008119493
300.004826769
300.002878339
300.001740419
300.001078998
300.000691918
300.000475501
300.000380135
300.000414765
300.000571277
300.00077639
300.000949445
300.001053534
300.001122461
300.001179489
300.001120353
300.048536368
300.029325172
300.017186048
300.009885582
300.00564663
300.00325084
300.001921344
300.001164127
300.000758892
300.000545982
300.000439735
300.000446396
300.000600993
300.00083103
300.001039981
300.001172317
300.00125984
300.001332126
300.001389764
300.001322212
300.035791782
300.0200119
300.010842571
300.005797779
300.003117986
300.001692765
300.000971143
300.000667151
300.000540149
300.00050816
300.00051713
300.000595135
300.000786792
300.001013778
300.001232335
300.001375631
300.001482802
300.001569772
300.001629563
300.001550288
300.022400521
300.011254999
300.005530658
300.00270879
300.001318354
300.000773582
300.000563879
300.000510618
300.000518225
300.000576063
300.00066033
300.000776917
300.000952774
300.001169669
300.00139443
300.001574079
300.001726411
300.001837066
300.001887535
300.001789453
300.011727676
300.005210437
300.00240084
300.00114476
300.000686641
300.000503887
300.000469365
300.000520873
300.000606717
300.000704663
300.000815498
300.000945005
300.001118962
300.001347093
300.001588011
300.001807406
300.00199212
300.002120334
300.002180165
300.002073056
300.005327881
300.002397425
300.001158127
300.000697004
300.000502594
300.00045953
300.000512204
300.000603561
300.000715352
300.000838457
300.000971485
300.001124028
300.001305621
300.001565328
300.001822314
300.002071546
300.002287473
300.002440788
300.002512329
300.002403841
300.002832338
300.001379503
300.00080136
300.000599512
300.000507168
300.000511098
300.000587322
300.000701776
300.000833617
300.000976952
300.001137726
300.001318853
300.001538172
300.00180807
300.002087349
300.002366154
300.00261522
300.002796287
300.002886193
300.002782194
300.001940758
300.001073902
300.000756932
300.000660581
300.000617753
300.000609975
300.000678615
300.000806569
300.000955905
300.001125697
300.001319187
300.001530485
300.001798315
300.002078397
300.002382533
300.002692813
300.002980972
300.00319901
300.003310213
300.003219143
300.00171854
300.001069757
300.000842934
300.000795683
300.000798206
300.000775498
300.000815103
300.000939329
300.001104501
300.001308656
300.00153772
300.001792368
300.002067331
300.002368409
300.002707108
300.003062116
300.003407924
300.003690089
300.003841942
300.003777083
300.001869075
300.001234247
300.000998092
300.000957338
300.000999247
300.001005885
300.00101268
300.001120702
300.001296922
300.001534234
300.001801774
300.002077688
300.002356819
300.002680403
300.003064394
300.003499869
300.003958291
300.004383337
300.004626928
300.004610648
300.002287779
300.001500132
300.001205644
300.001147015
300.00119509
300.001256947
300.001271452
300.001354783
300.001536594
300.001805235
300.002091493
300.002364362
300.002662092
300.003015202
300.003473588
300.004062336
300.004789379
300.005560372
300.005998946
300.006128845
300.003000338
300.001911131
300.00148049
300.001370217
)
;

boundaryField
{
    emptyPatch
    {
        type            empty;
    }
    minY
    {
        type            fixedValue;
        value           nonuniform List<scalar> 0();
    }
    maxY
    {
        type            inletOutlet;
        inletValue      nonuniform List<scalar> 0();
        value           nonuniform List<scalar> 0();
    }
    maxX
    {
        type            fixedValue;
        value           uniform 300;
    }
    water_to_heater
    {
        type            copiedFixedValue;
        sourceFieldName T.liquid;
        value           nonuniform List<scalar> 
60
(
787.636317394
787.738439022
787.737024249
787.791336278
787.776650845
787.78693637
787.765524627
787.741608134
787.744553959
787.711843926
787.709847157
787.67293094
787.670781861
787.631041499
787.69100464
787.700076782
787.701392914
787.689712675
787.691575098
787.731443012
787.728278268
787.805410072
787.805535505
787.888518331
787.83360336
787.979623544
787.951934821
788.111651992
788.102932621
788.251710334
788.247740308
788.378492591
788.376730369
788.491297322
788.49236613
788.586894927
788.587200695
788.661876137
788.660794586
788.739621477
788.818707851
788.833751383
788.845392031
788.827885805
788.82794514
788.782135686
788.78425196
788.714308291
788.711525841
788.637825259
788.634961587
788.555247295
788.552755845
788.469552822
788.416010211
788.30625465
788.304420623
788.266553474
788.268706396
788.247969926
)
;
    }
    procBoundary1to0
    {
        type            processor;
        value           nonuniform List<scalar> 
41
(
388.983161571
336.707672961
313.80876514
304.945111421
301.964101582
301.011520686
300.652471367
300.474201331
300.363332639
300.283507612
300.222725169
300.173618291
300.13151746
300.094401396
300.062903392
300.040007633
300.024626685
300.015800338
300.010611231
300.006846946
300.001403968
300.001488492
300.001554345
300.001637648
300.001818
300.002092829
300.002373727
300.002666015
300.002987777
300.003381303
300.003958317
300.004851089
300.006191259
300.007800778
300.008483563
300.009662041
300.004106288
300.002559507
300.001876213
300.001403968
300.001654445
)
;
    }
    procBoundary1to3
    {
        type            processor;
        value           nonuniform List<scalar> 
41
(
300.681299993
300.474262944
300.357659759
300.27689886
300.207287861
300.145826355
300.093032441
300.051809967
300.024537289
300.009796942
300.003343844
300.000988356
300.000257979
458.596232335
347.602694595
316.788294743
307.04825899
303.370395034
301.771105756
301.019828855
301.019828855
300.000062337
300.000015127
300.000004568
300.000002634
300.000002598
300.00000384
300.000007224
300.000011747
300.000015906
300.000018339
300.000018665
300.000018956
300.00001984
300.000019999
300.00002072
300.000025603
300.000048855
300.000055541
300.000057037
300.000056842
)
;
    }
}


// ************************************************************************* //
