/*--------------------------------*- C++ -*----------------------------------*\
| =========                 |                                                 |
| \\      /  F ield         | OpenFOAM: The Open Source CFD Toolbox           |
|  \\    /   O peration     | Version:  2312                                  |
|   \\  /    A nd           | Website:  www.openfoam.com                      |
|    \\/     M anipulation  |                                                 |
\*---------------------------------------------------------------------------*/
FoamFile
{
    version     2.0;
    format      ascii;
    arch        "LSB;label=32;scalar=64";
    class       volScalarField;
    location    "0.235/water";
    object      k.gas;
}
// * * * * * * * * * * * * * * * * * * * * * * * * * * * * * * * * * * * * * //

dimensions      [0 2 -2 0 0 0 0];

internalField   nonuniform List<scalar> 
1504
(
3.34305856439
1.26083225059
0.49253832079
0.211191616142
0.103624841218
0.0573530749572
0.034995584579
0.0232384902436
0.0163299619195
0.011810276681
0.00839198819665
0.00533559375113
0.0029486301511
0.00187621511254
0.00161739794269
0.00155633530136
0.00145039095746
0.00123670950602
0.000929990197801
0.000546332983748
3.36121688252
1.28397067409
0.508773361119
0.22015160294
0.107942259517
0.05944544263
0.0361655776373
0.0237590909149
0.0164355220598
0.0117723625336
0.00833569395225
0.00535505556015
0.00303684705574
0.00192133428179
0.00162577543706
0.00158173205441
0.00151317354589
0.00130763066696
0.000996798521179
0.000576926244733
3.26038579418
1.25902942724
0.509585130644
0.224975591432
0.111252438483
0.0614030452535
0.0372048712697
0.0240392473834
0.0163855533288
0.0116520365668
0.00824806401656
0.00536923581732
0.00311222682815
0.001954020121
0.00163372441985
0.00161400113265
0.00156685655916
0.00137085965529
0.00106112067096
0.000634950734805
3.08855636702
1.20104154446
0.496827876848
0.224821670934
0.112896718042
0.0627961257556
0.0377200842456
0.0239419833438
0.0161376216389
0.0114340145588
0.00812307855717
0.00536724713051
0.003170212719
0.00198246925653
0.00164426052867
0.00164305104065
0.00159300453595
0.00140606088266
0.00108462229356
0.000680221040303
2.90083454382
1.12626549546
0.476454349247
0.220963133146
0.113041471544
0.0630993029248
0.0373470656223
0.0233575539998
0.0156433129544
0.0111031265924
0.00795557976489
0.00534295694624
0.00322008375164
0.00201796359742
0.00165632442938
0.00165937289372
0.00159816070183
0.00142258855039
0.00109139430994
0.000706857835253
2.69489098374
1.05347446474
0.454929637061
0.215974761505
0.111919468339
0.0619087183845
0.0359907414369
0.0222465401303
0.0148998891065
0.0106715928223
0.00774669871992
0.00529130409949
0.00325474799596
0.00204785708331
0.00165966138891
0.00165873587118
0.00159271694862
0.0014220869359
0.00110196665316
0.000717789791472
2.45595328786
0.97072939264
0.430095570307
0.209509252433
0.109016561573
0.0591913985677
0.0336430254371
0.0206322190304
0.0139660841579
0.0101740481005
0.00749727539831
0.00520843704341
0.0032719419463
0.00206162738697
0.00164092077723
0.00163854085175
0.00157389193398
0.00139506239943
0.00109431030371
0.000719663967339
2.15122936355
0.864109924041
0.403425215668
0.205244515342
0.106576732562
0.0554973034821
0.0304495639905
0.0187289578093
0.0129810876598
0.00965456727862
0.0072211878546
0.00510043056672
0.00326061101583
0.00205265370848
0.00159579568157
0.00159226881368
0.00153130095397
0.00133004461758
0.00105403720422
0.000718697648342
1.75952950122
0.78153463799
0.403711236344
0.213838570103
0.106430686621
0.0508280877822
0.0269578069401
0.0169736058335
0.012107301235
0.0091608243365
0.00693534003267
0.00495138216833
0.00320546930305
0.00201569744501
0.00152758104098
0.0015080859042
0.00145453483189
0.00122654512991
0.000973044617221
0.000692651444035
1.51395919639
0.81139643243
0.452956166985
0.233899974521
0.105649743042
0.0462620213332
0.0243739400622
0.0157558365155
0.0114274499989
0.00870963021212
0.00661401250333
0.00473927385812
0.00309717659897
0.00193813517311
0.00143136613496
0.00137416160214
0.00132892900652
0.00108038601021
0.000842530909895
0.000614878339667
1.69216209145
1.00060152398
0.545112490082
0.258589839454
0.105981449934
0.0442759425218
0.0233921352697
0.0151797250294
0.0109565670511
0.00829015021341
0.00626194822396
0.00449226770263
0.00295253543012
0.00182635953525
0.00129999768696
0.00118959493398
0.00114999799209
0.000899888725089
0.00068070025075
0.000505412205682
2.44507569017
1.37419666753
0.668191298071
0.28999649277
0.116086243712
0.0490190580293
0.02532695192
0.0157388681127
0.0109258617406
0.00805092559991
0.00600234670466
0.00429847423495
0.00282222534161
0.00170547044722
0.0011353460192
0.000975751586885
0.000931678385099
0.000706103514515
0.000512270232784
0.000378740288128
4.01331475583
1.8914309476
0.823613794231
0.35858697454
0.152829565889
0.0667736216086
0.0326453149974
0.0184527434298
0.0118183023701
0.00827477890117
0.00602207815366
0.00427013517954
0.00277129095029
0.00161163649759
0.000974886363456
0.000767980678822
0.00070331244665
0.000521370169506
0.000357758735809
0.000259615481704
5.78110960676
2.35068740165
1.06536158664
0.483322165549
0.218393306958
0.0995040006072
0.0473480390648
0.0243518227815
0.0140640602723
0.00915210594782
0.00642019433283
0.00448850797957
0.00286319902444
0.00158535360097
0.000855476322921
0.0005919233372
0.000501093191047
0.000365308994803
0.000234509911456
0.000168106174849
6.29508408586
2.64425683029
1.25578103895
0.624014493004
0.301727550807
0.142827925657
0.0673255233036
0.0331113841511
0.0177232389166
0.0107060257117
0.0071833836884
0.00494796544044
0.00312986189258
0.00165743670684
0.000797777026125
0.000456096040182
0.000348303068593
0.000246346659882
0.000149886062661
0.000110555629857
6.13603966944
2.70339910681
1.32461700394
0.69212028816
0.370314870314
0.191146637593
0.0894216687616
0.0431821491724
0.0223616199491
0.0128218791153
0.00823722347288
0.00558188823372
0.00353538166823
0.00183135287433
0.000802576270689
0.000379726996397
0.000246687391716
0.00016354941442
0.000100363600229
8.09444386181e-05
5.81365460274
2.61992764625
1.30695454817
0.706243141255
0.399124163335
0.224410883013
0.11153488918
0.053721634116
0.0274547168577
0.0153066515297
0.00949124913373
0.00631630839127
0.00401218516235
0.00208139303378
0.00085762206603
0.000347540656995
0.000182040124011
0.000111573397397
7.60478722073e-05
6.84903885905e-05
5.5108126223
2.49600196746
1.25864944527
0.695578305729
0.407483805552
0.241008116573
0.127034471418
0.0636336709694
0.032743245761
0.0180160905077
0.0108858205107
0.00710495974047
0.00450668099132
0.00236493542321
0.000950120993946
0.000343435463877
0.000145281075635
8.34669034293e-05
6.63367887581e-05
6.4871496731e-05
5.25427142592
2.37602428479
1.19981459915
0.670932470147
0.40144938446
0.24427930937
0.133835727506
0.0700069635032
0.0372083742787
0.020687151439
0.0123593240324
0.00791807328439
0.00498824552107
0.00265329871266
0.00107227743503
0.000359003706097
0.000127550941856
7.14202686107e-05
6.40216638965e-05
6.53626211735e-05
5.07096904459
2.27106028848
1.13949878302
0.63859206574
0.385388528133
0.23718696146
0.133559242122
0.0729375769306
0.0402550183554
0.0228582979343
0.013686279387
0.00865830973507
0.00540180097815
0.00290317686989
0.00120265936417
0.000394671571829
0.000123704989826
6.92235043727e-05
6.5238965761e-05
6.7660917663e-05
4.97783417866
2.19259659817
1.08512995363
0.604459365395
0.363624015974
0.2220044227
0.128699882932
0.0733615434609
0.0419838450469
0.0244188962252
0.0147541099695
0.00927984384765
0.0057330323444
0.00309078284634
0.00130933835585
0.000434862136559
0.0001325041149
7.32420471898e-05
6.82722229518e-05
7.05144190768e-05
4.99613364903
2.15055584943
1.04925455288
0.578121071213
0.343606966101
0.206717354627
0.123153599442
0.0725231412858
0.042684763971
0.0253813270137
0.0155293851106
0.00975053940942
0.00597000317637
0.00321873943295
0.00139195362743
0.000476316267651
0.000149414458464
8.20477297518e-05
7.26165198418e-05
7.33800181632e-05
5.10458512978
2.14458989426
1.03597876756
0.562768930995
0.328510929717
0.198354338151
0.119211117428
0.0713008428151
0.0426705233553
0.0258344997967
0.0160106865103
0.0100457710389
0.0061037570753
0.00329126561669
0.0014547269622
0.0005195850499
0.000176486959753
9.45383276666e-05
7.89045222934e-05
7.63197626033e-05
5.29099509396
2.17768042353
1.05004504585
0.564966767621
0.329682097991
0.196649957723
0.117435045076
0.0701591257958
0.0422173410592
0.0258838003281
0.0161973364672
0.0101442625064
0.00613033771959
0.00331346070125
0.00150039635211
0.00056414633618
0.000211510853646
0.000111261359938
8.7365591014e-05
8.03018875985e-05
5.49420938342
2.24280239622
1.09140615821
0.595925197569
0.342503231613
0.20032670465
0.117489554917
0.0692226276089
0.041500122431
0.0255977526691
0.0160681810207
0.0100370159044
0.0060550559885
0.00329320366253
0.00153277130853
0.000608996068804
0.000248876380412
0.000132351345202
9.84008735928e-05
8.57387609291e-05
5.37897423624
2.29351442372
1.15462560686
0.630605836849
0.358638866542
0.206480898952
0.118682218262
0.0685313784594
0.0406546783561
0.0249989824615
0.0156268180564
0.00975948896419
0.00590589571045
0.00325075664417
0.00156294377257
0.000657881959573
0.00029072593497
0.00015712747093
0.000111636133611
9.26182245541e-05
4.80621009019
2.21755960453
1.15914914074
0.642423021494
0.366963128642
0.210582471794
0.119513782482
0.0677759887659
0.0395837812813
0.0240299094952
0.0149459765069
0.00938697307776
0.00573149024592
0.00321643401857
0.00160681404049
0.000713897936157
0.00033487432633
0.000184237613687
0.000126336821299
0.000100494912322
4.10296153759
2.04540713494
1.09995178835
0.622071127573
0.360487881399
0.208324147185
0.117877237846
0.0660031678449
0.0378227983729
0.0226690584199
0.0141709156226
0.00901101592018
0.00558694837785
0.00322326034919
0.00168011217795
0.000781218923986
0.000378729750764
0.000211512364366
0.000141078471671
0.000108968673282
3.4923447788
1.80155175086
0.992725818662
0.572912044619
0.337381322462
0.197028657693
0.111777368688
0.0619817418106
0.0350704859423
0.021147674807
0.0134613507776
0.00870951844821
0.00551577495415
0.00329275923519
0.00179143448119
0.000861886575166
0.000421868178429
0.000235536025258
0.000154246911935
0.000117444034839
3.05976021691
1.56560689404
0.869220561642
0.507514153087
0.302038152132
0.177805731399
0.1009595106
0.0556673974262
0.0318803681623
0.0198040600924
0.0129171900963
0.00851607059897
0.0055287067922
0.0034219554722
0.00193355704008
0.000953630109238
0.000459594158579
0.000252759408279
0.000163765580194
0.000125572515844
2.71719401106
1.35636871218
0.748793229273
0.438445353231
0.262119423457
0.154690056322
0.0875135467394
0.0488081014705
0.0291486791251
0.0188172284619
0.0125405615303
0.00841533571812
0.00560266153369
0.00358301733561
0.00208910360732
0.00104992374616
0.000489131742422
0.000260806513672
0.000167467652149
0.000133020428562
2.38313295848
1.17427216204
0.647919825014
0.379743472218
0.226194214008
0.132263782667
0.0747232432592
0.0432899627445
0.0272711471125
0.0181588706067
0.0122864993708
0.00837923602758
0.00570242669767
0.00374462271448
0.00224390520809
0.0011507984747
0.00051731385484
0.000261741631867
0.000164682203569
0.000139339562781
2.07336875227
1.05285863394
0.590902108577
0.344314350082
0.20057296268
0.114832182165
0.0657959713151
0.0402696631729
0.0264525785241
0.0178781566128
0.0121992379439
0.00842110920093
0.0058216012921
0.00389466751712
0.00238696283544
0.00125065751169
0.000546712977862
0.000249249313724
0.000155215395203
0.000142621172903
1.94365521472
1.04949467167
0.596045219563
0.339180169464
0.191318952027
0.107860883552
0.0635314753496
0.0402277153777
0.0266608113254
0.0179574461568
0.0122594994837
0.00851104092469
0.00592973822994
0.00400743883846
0.00249300124216
0.00133209296527
0.000581909265728
0.000232707690929
0.000141770392184
0.00014134940035
2.16665623897
1.21035182783
0.676779309478
0.370138569329
0.198559279824
0.110050526978
0.0661550768222
0.0423918087271
0.027852978916
0.0185771673631
0.0126291551879
0.00874588120137
0.00608138145044
0.00410939717446
0.00255958617649
0.00137458714115
0.000602030800556
0.000224288953469
0.000125470495416
0.000136003313712
2.79942653612
1.52373363505
0.786227738333
0.394796425867
0.201436564647
0.113262847108
0.0709963527547
0.0463426570904
0.030231891487
0.0200254125908
0.0135546473925
0.00930262938808
0.00639359806654
0.00427602947668
0.00262517225554
0.00137626359214
0.00059054380432
0.000215053904906
0.000111323419245
0.000128385533505
3.64583120175
1.77870587919
0.828714844313
0.386449653341
0.19787192089
0.117650521255
0.0782239275949
0.0523930262641
0.0337384999587
0.0221370136647
0.0148980142392
0.0101810349537
0.00694143085205
0.00459429958667
0.00276382120753
0.00138136764983
0.000562411541211
0.000199343669291
0.000102448350961
0.000120851863873
4.17009943716
1.77741929824
0.793028457067
0.375233244729
0.200574132604
0.12655263391
0.0885672312019
0.00121837821738
0.0011887445394
0.00116469130773
0.00116419767359
0.00123579119905
0.00151269937406
0.00227523417273
0.0037960383247
0.00591383976445
0.00816264631719
0.0102510628672
0.0120980535965
0.0137673505095
0.0154831893245
0.0178132648006
0.0223183761438
0.0332788071436
0.00049316625762
0.00121713675644
0.00121143443661
0.00118455486479
0.00115438988349
0.00112992107392
0.00113231653122
0.00121762649331
0.00153422400664
0.00237214301386
0.00396413867559
0.00608599346085
0.00828047208635
0.0102903768834
0.0120525408935
0.0136370903984
0.0152656497185
0.0174828641729
0.0217698711311
0.032313617968
0.00040994514877
0.00114970005539
0.00116302358566
0.00113796543552
0.00110822583319
0.00108410941614
0.00109018049565
0.00119030709643
0.00154743078818
0.00245737699858
0.00411022256013
0.00622812031029
0.00836808298598
0.0103031687831
0.0119851752014
0.0134894146401
0.0150349755126
0.0171440780434
0.0212126088839
0.031297664276
0.000385322897324
0.00106075734042
0.00110079952783
0.00107866896178
0.00105011457613
0.00102700100803
0.00103750765768
0.00115354283922
0.00155193112851
0.00253084638224
0.00423616909329
0.0063445185281
0.00843057926291
0.0102942157775
0.0118998766544
0.0133270820026
0.0147925439036
0.0167969020641
0.0206459533775
0.0302240432678
0.000395714805674
0.000954052786653
0.00102737020456
0.00100819460143
0.000980988930017
0.000959205035535
0.000974834646414
0.00110798987757
0.00154863078017
0.00259419629263
0.0043453851586
0.00644013350389
0.00847308336512
0.0102680165295
0.0118001768126
0.0131524687582
0.0145393482971
0.0164409917013
0.0200693278065
0.029087382572
0.000425891483107
0.000848207181596
0.000944252436984
0.000927413511089
0.000901660974089
0.000881588154666
0.000903233289562
0.00105503538235
0.00153930417912
0.00264990532522
0.00444154234674
0.0065194417917
0.00849991526507
0.0102282156996
0.011688839143
0.012967319959
0.0142759243392
0.016075661628
0.0194823695901
0.0278857128446
0.000455627389213
0.000757229519152
0.000849123605757
0.000835641225462
0.000812456982222
0.000795194227257
0.00082431548124
0.000996682171235
0.00152622194781
0.00270065281859
0.00452796329743
0.00658616001446
0.00851456871958
0.0101777357481
0.0115680769135
0.0127730431986
0.0140026269727
0.0157001773518
0.018885186141
0.0266222085279
0.000430061374042
0.000643372011103
0.000747391152329
0.000734315646485
0.000715049541449
0.000702243511966
0.000740767794567
0.000935852378003
0.00151241989447
0.00274964000711
0.00460808558191
0.00664388531726
0.00852039184685
0.0101194258593
0.0114401593081
0.0125712760364
0.0137202638516
0.0153143488515
0.0182788173383
0.0253066763011
0.000381816036364
0.000471987176481
0.000663268440865
0.000628210722349
0.000613128286476
0.000606475698243
0.000656483707908
0.000876536841917
0.00150202807999
0.0028010260927
0.00468594706261
0.006696606615
0.00852105228254
0.0100564770097
0.0113078047647
0.0123643278536
0.0134306090042
0.0149191845949
0.017665732518
0.0239556913333
0.00039777185156
0.000317269452835
0.000627789078258
0.000522081359303
0.000511131270105
0.00051242336376
0.0005760051453
0.000823395861456
0.00150001674518
0.00285972560477
0.00476608895672
0.0067487130315
0.00852060382528
0.00999254674788
0.0111743651725
0.0121554086868
0.0131367262498
0.0145172421758
0.0170498198863
0.022591007361
0.000388909538187
0.000265354116649
0.000609696790886
0.000422442139161
0.00041465387819
0.00042517178909
0.000504152860264
0.000781550892335
0.00151211680214
0.00293131595762
0.00485352981589
0.00680500765632
0.00852353051781
0.00993184374121
0.0110439463801
0.0119487731736
0.0128431227575
0.0141127666346
0.0164360898169
0.021236715205
0.00034737099402
0.000228543599898
0.000454665701604
0.000342999657089
0.000329300925159
0.000349353771586
0.000445412805671
0.000756236197973
0.00154441101274
0.00302138785192
0.00495311017183
0.00687009693953
0.00853424620131
0.00987877155103
0.0109211880514
0.0117495849605
0.0125556217936
0.0137115730962
0.0158301559661
0.0199158396788
0.000272082446861
0.000191931363458
0.000223256493912
0.000299206879835
0.000258325246059
0.000287850172754
0.000403077259086
0.000751820982384
0.00160189331969
0.00313391472496
0.00506817908243
0.00694740421876
0.00855643071652
0.00983754299893
0.0108110890583
0.0115638433041
0.0122813164924
0.0133209020334
0.0152377937613
0.0186478556131
0.000194665315976
0.000154338326645
0.000137057492519
0.000283927863062
0.000202854446475
0.000241928599788
0.00037920710852
0.000771439339349
0.00168779288956
0.0032708121661
0.0052005722798
0.00703935602636
0.00859334087175
0.00981257547649
0.0107194721493
0.0113989040214
0.0120290281545
0.0129499113548
0.0146651796487
0.0174475567482
0.000132103621131
0.000110660443999
0.000106617725214
0.000218653257547
0.000163156711968
0.000212043937863
0.000375358339214
0.00081773201483
0.00180439763916
0.00343302688315
0.00535159449974
0.00714808587642
0.00864828652831
0.00980886146279
0.0106533896244
0.0112639990943
0.0118100645015
0.0126105634613
0.0141196304197
0.0163245021256
9.16159901654e-05
7.75158385887e-05
6.93974543185e-05
0.000111543698301
0.000140262681241
0.0001985715762
0.000393333880619
0.000893505007069
0.00195340893868
0.00362056484222
0.00552145327088
0.00727448322374
0.00872356200502
0.00983103104819
0.0106205273479
0.0111701548249
0.011638602599
0.0123187160755
0.0136111487309
0.0152834900433
7.09283347957e-05
5.77249138614e-05
5.23970758896e-05
6.49857661624e-05
0.000131639448633
0.000202096310919
0.000435028680772
0.00100068233895
0.00213394215064
0.00383008372813
0.00570670378318
0.00741587617729
0.00881848809973
0.00988171367041
0.010627819685
0.0111290704948
0.0115310384965
0.012094030509
0.0131547592588
0.014329881795
6.33917492429e-05
5.03811751239e-05
4.13060985101e-05
5.07337576706e-05
0.000122350355022
0.000222869372042
0.000501302061325
0.00113796473712
0.00233978100341
0.00405276879975
0.00589901316624
0.00756565318382
0.00892917328653
0.00996005067259
0.0106770919681
0.0111449810442
0.0114944631996
0.011948009101
0.0127743882489
0.0135657619078
6.28688435549e-05
5.04822280428e-05
3.74478383967e-05
3.8406071168e-05
0.000105661970635
0.000258863899005
0.000590788608049
0.00129933390765
0.00255891346941
0.0042749995135
0.00608610482606
0.00771301539077
0.0090442803199
0.0100492195235
0.0107396846507
0.0111740175952
0.0114741427084
0.0118323914033
0.0124769088116
0.0132395460998
6.57757013557e-05
5.48982615919e-05
3.93064048027e-05
3.03332012661e-05
9.17725938785e-05
0.000302907164523
0.000698768900004
0.00147307010132
0.00277320139164
0.00447742695037
0.00624921563329
0.00783834330641
0.00913974971699
0.0101164232838
0.0107729673734
0.0111688556378
0.0114266234514
0.0117154614197
0.0122303370778
0.0130528611871
7.02066157928e-05
6.2112660416e-05
4.53051789097e-05
3.19666631225e-05
8.05939438203e-05
0.000340674186111
0.000813128198924
0.00163796891853
0.00295416321523
0.00462933839939
0.00635546569708
0.00790295228747
0.00916684767664
0.0101024300066
0.0107132277182
0.0110693679558
0.0112978512813
0.0115520692567
0.0120043325262
0.01295343636
7.49171247149e-05
7.12955759356e-05
5.47652143674e-05
3.68658893838e-05
6.80683544776e-05
0.000346834509062
0.000901181788594
0.00175671082602
0.00305661467064
0.00468217572967
0.00635168781591
0.00784427568584
0.00905101968381
0.00992521507751
0.0104780879481
0.0107891028987
0.0109990655388
0.0112735561493
0.0117888539074
0.013084122439
7.87205149031e-05
8.09561932062e-05
6.76251739318e-05
4.45378516845e-05
5.52056211828e-05
0.000292364537003
0.000895795919119
0.00176024835537
0.00301612083989
0.0045682650276
0.0061675237156
0.00758965852297
0.00872194560012
0.00952296359666
0.0100057076132
0.010261648816
0.010461440793
0.0108199850747
0.0116635004071
0.013985766136
8.08626391089e-05
8.77839424038e-05
8.38850016339e-05
5.86339135113e-05
4.94804994775e-05
0.000156771739147
0.000711811011267
0.00155396291432
0.00276167852202
0.00422496999328
0.00576125426051
0.00713696875265
0.00823375321309
0.00900533634836
0.00948042141549
0.00976718044817
0.0100204157384
0.0104922237938
0.0117586377215
0.0156684341167
8.19962340979e-05
9.04718164614e-05
9.51995331686e-05
8.40627971269e-05
5.04893817884e-05
4.78026651268e-05
0.000234579592287
0.00099784544225
0.00215888027264
0.00362926004002
0.00516218320859
0.0065652176309
0.00770172630396
0.00853548751289
0.00910007195537
0.00947933545884
0.00981252708777
0.0103742570494
0.0119810814373
0.0175449458992
8.42278002192e-05
9.08679103626e-05
9.90452533228e-05
0.000102362086513
8.51624867159e-05
5.3631755403e-05
5.05951258461e-05
0.000109903165411
0.00109808056682
0.00274270756076
0.0044382242986
0.00595261790306
0.00722823760458
0.00820939933839
0.00890478445523
0.00938774330173
0.0097897172265
0.0104031189968
0.0122251743696
0.0192226189482
8.78394618737e-05
9.20095522508e-05
9.99275079272e-05
0.000105767392019
9.48775209287e-05
7.40022539899e-05
6.93179693205e-05
5.95496693365e-05
0.000147438501581
0.00123468786706
0.00372008091626
0.00553044504325
0.00699582076281
0.0081291592779
0.00893641761232
0.00948919718674
0.00992585194945
0.0105456578585
0.0124382627121
0.0204118673471
9.29474074788e-05
9.48954001403e-05
0.000101138905557
0.000106842381898
9.88502810438e-05
8.03322770769e-05
8.05608891687e-05
7.35519232774e-05
0.000181163613708
0.00030857030491
0.00160861312445
0.00551037354529
0.00711632553417
0.00833460219351
0.0091868540934
0.00975188706677
0.010178756951
0.0107620135055
0.0125960820573
0.0209464304263
9.92370763808e-05
9.94018768574e-05
0.00010342186359
0.000107428189257
0.000100334653359
8.70751695963e-05
9.86831359184e-05
0.000102923259504
0.000268772590877
0.000572285964973
0.000635542446496
0.00244108457615
0.00750078712374
0.00873366149038
0.00955078332744
0.0100700919371
0.0104485730893
0.0109708757329
0.0126696879332
0.0207970459826
0.000106380371316
0.000104645720975
0.000105737091628
0.000106398533064
0.000100316100096
9.63498916742e-05
0.000125418087139
0.000162854569501
0.000465794504333
0.000849176305246
0.000991977837196
0.0011767606758
0.00585908857625
0.00919715263916
0.00989211835795
0.0103064199322
0.0106061100938
0.0110648524201
0.0126190914561
0.0200946382687
0.000113759790742
0.000109679414164
0.000106800728674
0.000103696975939
0.000100966133731
0.000113296870813
0.000171550777055
0.000286880643419
0.00077816082765
0.00124885851303
0.00119995041285
0.00127976159071
0.00320130713277
0.00937670586305
0.0100712413158
0.0103165474065
0.0105165682787
0.0109353181233
0.0124034626109
0.0191131957087
0.000120759527538
0.000113374783947
0.000106250435824
0.000101449129457
0.000108830465464
0.000150754336054
0.000268165397276
0.00053099588174
0.00116814024374
0.00157504202099
0.00131756076326
0.00145507436908
0.00275220444251
0.00910064531071
0.00993964710638
0.00998369108896
0.0101073161723
0.0105722388921
0.0121002324216
0.0181748429027
0.000126431459984
0.000115401021388
0.000105562645217
0.000105179941665
0.000135053248562
0.000231756129987
0.000454391560025
0.000880072041661
0.00153128204867
0.0016038112152
0.00130366149698
0.0015868062446
0.00311981189527
0.00902351541941
0.00958174240871
0.00945879068973
0.00959539345414
0.0102646960906
0.0120721319036
0.0177944755493
0.000130310269865
0.000116589139437
0.000108326428794
0.000122211887197
0.000194864793642
0.000379779612294
0.000732623131893
0.00122799406886
0.00169178715438
0.00146266592207
0.00142161726422
0.00172741399828
0.00444904384573
0.00908350156439
0.00915132960403
0.00899689286099
0.00929597448184
0.0103621736787
0.0126968527128
0.0184530963157
0.000132699373088
0.000118896212696
0.00011758880746
0.00015723031543
0.000292863904581
0.00058126653884
0.00101754992702
0.00150680543723
0.00153007940286
0.00131668225269
0.00164528932224
0.00272331974107
0.00725120933188
0.00906535177406
0.00886292307282
0.00887238047703
0.00948029994315
0.0110928228187
0.0142239298853
0.0206010862824
0.000134319381961
0.000122907247888
0.000130911283623
0.000197123295917
0.000387965622812
0.000734585551536
0.00115338232393
0.00140848337675
0.00122029674879
0.00147204629609
0.00215142673468
0.0056940209445
0.00834229614552
0.00857786700317
0.00869652128781
0.0090628110842
0.0101106153653
0.0124443312217
0.0167789829297
0.0247481808448
0.000135126472688
0.000127000439548
0.000138672644086
0.000207787080359
0.000391859243129
0.000674125258408
0.000932993946458
0.0009315306159
0.000948966030341
0.00117412041597
0.00329311912234
0.00566834739619
0.00670021501599
0.0076358911016
0.0084718889435
0.00932242798914
0.0108508233714
0.01402795803
0.0201024564583
0.0311743111246
0.000134790154222
0.000129683275037
0.000138033281781
0.000183929703278
0.000301611372391
0.000447974834939
0.000509390067909
0.000523941790448
0.000426127209284
0.000880381390984
0.0018463926777
0.00293736615446
0.00425063958913
0.00614145494888
0.00813900790127
0.00944904509703
0.0112922275143
0.0151960751095
0.0234010461679
0.0393377874589
)
;

boundaryField
{
    emptyPatch
    {
        type            empty;
    }
    minY
    {
        type            fixedValue;
        value           nonuniform List<scalar> 0();
    }
    maxY
    {
        type            inletOutlet;
        inletValue      nonuniform List<scalar> 0();
        value           nonuniform List<scalar> 0();
    }
    maxX
    {
        type            kqRWallFunction;
        value           nonuniform List<scalar> 
38
(
0.0332788071436
0.032313617968
0.031297664276
0.0302240432678
0.029087382572
0.0278857128446
0.0266222085279
0.0253066763011
0.0239556913333
0.022591007361
0.021236715205
0.0199158396788
0.0186478556131
0.0174475567482
0.0163245021256
0.0152834900433
0.014329881795
0.0135657619078
0.0132395460998
0.0130528611871
0.01295343636
0.013084122439
0.013985766136
0.0156684341167
0.0175449458992
0.0192226189482
0.0204118673471
0.0209464304263
0.0207970459826
0.0200946382687
0.0191131957087
0.0181748429027
0.0177944755493
0.0184530963157
0.0206010862824
0.0247481808448
0.0311743111246
0.0393377874589
)
;
    }
    water_to_heater
    {
        type            kqRWallFunction;
        value           nonuniform List<scalar> 
60
(
3.34305856439
3.34305856439
3.36121688252
3.26038579418
3.08855636702
3.08855636702
2.90083454382
2.90083454382
2.69489098374
2.69489098374
2.45595328786
2.15122936355
1.75952950122
1.75952950122
1.51395919639
1.51395919639
1.69216209145
1.69216209145
2.44507569017
4.01331475583
5.78110960676
5.78110960676
6.29508408586
6.29508408586
6.13603966944
6.13603966944
5.81365460274
5.5108126223
5.25427142592
5.25427142592
5.07096904459
5.07096904459
4.97783417866
4.97783417866
4.99613364903
5.10458512978
5.29099509396
5.29099509396
5.49420938342
5.49420938342
5.37897423624
5.37897423624
4.80621009019
4.10296153759
3.4923447788
3.4923447788
3.05976021691
3.05976021691
2.71719401106
2.71719401106
2.38313295848
2.07336875227
1.94365521472
1.94365521472
2.16665623897
2.16665623897
2.79942653612
2.79942653612
3.64583120175
4.17009943716
)
;
    }
    procBoundary3to1
    {
        type            processor;
        value           nonuniform List<scalar> 
41
(
0.0607789179734
0.0379600799678
0.0245442978398
0.0164297147432
0.0112104600233
0.00767857590187
0.00510260179941
0.00304878134567
0.00146256019873
0.000557261114324
0.000189553913291
9.87707033529e-05
0.000113410655182
4.38148009194
1.78162107662
0.786695670462
0.37719869484
0.208462488121
0.136337778676
0.0607789179734
0.0978160388018
0.000133173669824
0.000131234394292
0.000135311757803
0.000157952805332
0.000213648124145
0.000266247543258
0.000259718249639
0.000205397709065
0.000134689400807
0.000192417318107
0.000406858007092
0.000690437228481
0.000829600004262
0.0011873440628
0.00289371468942
0.00860961791404
0.0113350016396
0.0154890190186
0.0256403147044
0.0478287395694
)
;
    }
    procBoundary3to2
    {
        type            processor;
        value           nonuniform List<scalar> 
41
(
3.1039372773
1.18353951371
0.465689175686
0.201157014706
0.0995675081166
0.0555518237516
0.0340044546287
0.0226535237178
0.016110028354
0.0117794756475
0.00842013792693
0.00532063038827
0.00286241462387
0.00181949138934
0.00160527088517
0.00153882941612
0.00139974915525
0.001182555334
0.000866009846472
0.000563100778614
0.00124099540401
0.0012126661189
0.00118963485888
0.0011869268483
0.00124595858998
0.00148448377934
0.00216879233011
0.0036065114738
0.00570912797086
0.00801052312793
0.0101810077338
0.0121180839974
0.0138775831781
0.0156862294228
0.01813461592
0.0228560861504
0.0341974090062
0.000657545869547
0.00126428406288
0.00124593336809
0.00124593336809
)
;
    }
}


// ************************************************************************* //
