/*--------------------------------*- C++ -*----------------------------------*\
| =========                 |                                                 |
| \\      /  F ield         | OpenFOAM: The Open Source CFD Toolbox           |
|  \\    /   O peration     | Version:  2312                                  |
|   \\  /    A nd           | Website:  www.openfoam.com                      |
|    \\/     M anipulation  |                                                 |
\*---------------------------------------------------------------------------*/
FoamFile
{
    version     2.0;
    format      ascii;
    arch        "LSB;label=32;scalar=64";
    class       volScalarField;
    location    "0.065/water";
    object      alpha.gas_0;
}
// * * * * * * * * * * * * * * * * * * * * * * * * * * * * * * * * * * * * * //

dimensions      [0 0 0 0 0 0 0];

internalField   nonuniform List<scalar> 
1496
(
0.747169713106
0.651144755119
0.583233473638
0.514315341018
0.441231557257
0.400264322106
0.41483035964
0.477070871389
0.536347804416
0.543502027139
0.502516934696
0.409617803744
0.304259511634
0.212936073746
0.135599102019
0.0753706399092
0.0429192268736
0.0310670448653
0.0254559555642
0.0210385328765
0.745099472809
0.639591780186
0.569435354351
0.497037433053
0.423225059387
0.377736166616
0.392867429246
0.458674275229
0.522198167636
0.526482616555
0.4782554488
0.379622933318
0.275665894613
0.188760409047
0.116328842877
0.063829473685
0.0387167437806
0.0295489740845
0.0244539580695
0.0201553088261
0.751660978718
0.621970618999
0.552360143878
0.480516650028
0.408164058451
0.369399050009
0.376547874342
0.442611415479
0.511181609125
0.511627932677
0.454214154961
0.349813213422
0.24783783385
0.165301042783
0.0984594339608
0.0543765609372
0.0355284275853
0.0282271268848
0.0234824715448
0.0192905596132
0.745099472809
0.595612896944
0.529102912554
0.463043880296
0.395225049994
0.368563591879
0.368381715454
0.424140236603
0.499269292013
0.496173873747
0.428923478965
0.319502895994
0.220281183536
0.142381335199
0.0822186567382
0.04689371914
0.0330594641319
0.0270192081188
0.022521887115
0.0184295040315
0.752108268705
0.560010448597
0.49934147806
0.442340400101
0.381492550983
0.368381715454
0.366606187894
0.404273822044
0.484024771833
0.478110468075
0.401325952799
0.288252852086
0.192697922231
0.120076272105
0.0679356921402
0.0411590821949
0.0310707312616
0.0258629718528
0.021553944022
0.0175553289585
0.745099472809
0.523284108717
0.472546244987
0.422026350426
0.370973084131
0.366700933025
0.367426128469
0.382119395889
0.464465628892
0.456577210452
0.371023715401
0.256075210595
0.165137351626
0.0989014285458
0.056058402015
0.0368843134212
0.0293793140026
0.0247127082989
0.0205693338665
0.0166607195726
0.750580254922
0.490117657914
0.452748927453
0.407451599992
0.367801027374
0.367426128469
0.363782147686
0.366145617091
0.438252941662
0.430955437548
0.338263022437
0.223293522559
0.138101505009
0.0798318831386
0.0469205359668
0.0337181284451
0.0278554118495
0.0235506558677
0.0195761907534
0.01575377349
0.745099472809
0.45996707511
0.437400286861
0.400495674824
0.367426128469
0.364679918974
0.366145617091
0.363043461266
0.409648800815
0.402004217177
0.303317346911
0.190649363009
0.112771262322
0.0640929584162
0.0404484437463
0.0313059209646
0.0264274912815
0.0223955832449
0.0185995339208
0.0148570569741
0.746757138532
0.433042176964
0.424049543822
0.397640537559
0.366378532555
0.366145617091
0.36131824002
0.365217455382
0.381783457862
0.372037326109
0.267087722899
0.159584156367
0.0908940511634
0.052498503717
0.0360932140685
0.029377142751
0.0250932853124
0.0212998429851
0.0176755593644
0.0140010340718
0.710987740217
0.414634129266
0.415870130201
0.397851648747
0.366145617091
0.362471506353
0.365217455382
0.360417659076
0.364256724055
0.344080203144
0.231538282927
0.132387153534
0.0740840152211
0.0448432686343
0.0331569538833
0.0277908525738
0.0238964434429
0.0203142462407
0.0168344741875
0.0132158000036
0.659037327735
0.404789807529
0.421597051535
0.406996756029
0.365105410574
0.365217455382
0.360494658328
0.363777968782
0.36210733531
0.319506927742
0.199048136794
0.111153792105
0.062634112194
0.0400376863539
0.0310725943251
0.0264789290972
0.0228613740815
0.0194502962849
0.0160814783003
0.0125122176897
0.612848617573
0.402164238944
0.444014142649
0.423964494019
0.366517390687
0.361331657241
0.365217455382
0.359695257919
0.375754774495
0.294098302481
0.170746013719
0.095273639862
0.0548532630301
0.0367839298642
0.0294680238061
0.0253798105905
0.0219665756427
0.0186893564523
0.0154066522104
0.0118852240146
0.580354531144
0.400831575642
0.449846035701
0.423535553257
0.365312516825
0.366517390687
0.360492065869
0.380908288214
0.386749472103
0.261611864667
0.145646810593
0.0823643447591
0.0487871672984
0.0342349669034
0.0281294015148
0.0244205596765
0.0211662622554
0.0180007076287
0.0147857638261
0.0113082602038
0.562182751137
0.397916391654
0.449470827864
0.407039470087
0.367925815731
0.361316626845
0.366517390687
0.465145621616
0.389327202766
0.219632580483
0.122366294774
0.0702672650536
0.0433653946988
0.0319924697021
0.0269043167683
0.0234901703975
0.0203607488316
0.0173019497018
0.0141616770729
0.0107506458182
0.543711123248
0.392130228059
0.430790572122
0.37034486718
0.363228210748
0.367925815731
0.434261724034
0.470554547008
0.343038008786
0.172862628594
0.0970086968977
0.0573320199594
0.0379860858773
0.0297609652416
0.0255974699253
0.0224399322201
0.0194718722515
0.0165712321365
0.0135502060871
0.0102485727598
0.494837296722
0.391627977894
0.391084485794
0.367699119985
0.369377578766
0.361737828149
0.519571683325
0.461540414372
0.259935605331
0.122231409897
0.0695150117562
0.0441796497394
0.0327177899114
0.0274659095052
0.0242221128706
0.0214099548752
0.0186919821684
0.0159822435779
0.0130796761163
0.00988117708066
0.430963931255
0.392130228059
0.391582653618
0.370585455218
0.363371378424
0.428317581
0.520533794291
0.380931331929
0.176520668654
0.0844359884869
0.0502745879619
0.0356692425887
0.0292128906609
0.0258265859579
0.0232769703727
0.0207955492262
0.0182763735117
0.0156868066045
0.0128528911856
0.00971538461744
0.447370599837
0.481742266266
0.498560820044
0.445167045542
0.438118483764
0.516939370343
0.487555791745
0.301927019328
0.14717925468
0.0738093103892
0.0451842731295
0.0334678158559
0.0281983370135
0.025306276634
0.0230100307527
0.0206693014523
0.0182201246337
0.0156676169799
0.0128594593347
0.00974246888608
0.596578848746
0.668866556341
0.677255453891
0.65762551484
0.630837267616
0.594453084476
0.492821023432
0.32238658803
0.167006998995
0.083746442718
0.0484988710504
0.0344410372825
0.0284627781571
0.0254240439349
0.0231699490359
0.0209042439069
0.0184960634262
0.0159649512895
0.013185874718
0.0100707526936
0.725656916401
0.742345695435
0.753545973186
0.751492478836
0.745482475252
0.701445015369
0.61248915547
0.472208270138
0.265684729896
0.13076202156
0.0693952747156
0.0416390111641
0.0307218838584
0.0263150540503
0.0238704878327
0.021698388831
0.0193241811186
0.0167643572582
0.0139695777331
0.0108104538833
0.747917304579
0.751823434473
0.751615734238
0.756250976842
0.751705947923
0.753456697465
0.729839126999
0.659746134558
0.441125988725
0.21210625359
0.116740739611
0.0622893760618
0.0375281375875
0.0285166250621
0.0250355659599
0.0228447061435
0.0205608799508
0.0179648563195
0.0151164735323
0.0118978728661
0.739915272022
0.751576921288
0.755789825731
0.751705947923
0.756905239077
0.75177567656
0.754060825629
0.740592772349
0.621805131345
0.331003072886
0.181497747794
0.100779610423
0.0528573009504
0.0331727977392
0.0266913061706
0.0240482016608
0.0219063622265
0.0193682476131
0.0164720457091
0.0132032766809
0.698148412856
0.748789732188
0.751705947923
0.757387374227
0.751796160977
0.75676450653
0.751866693955
0.753292295248
0.717222473947
0.502773275701
0.254270120926
0.149865659858
0.0797074927887
0.0424088496715
0.0292956439236
0.0252236146677
0.0230706161835
0.0207259393308
0.0178587904083
0.014565718542
0.616691417234
0.743943443558
0.755601238374
0.751796160977
0.757200379135
0.751866693955
0.755761672464
0.751956395046
0.748775240983
0.646692708061
0.34940126802
0.204501813419
0.116929979535
0.0587101454534
0.0338903261906
0.026565559259
0.0239785443194
0.0218496249006
0.0191379138133
0.0158719311212
0.571694622704
0.730750143338
0.751796160977
0.757200347794
0.751866693955
0.75682160371
0.751956395046
0.75479924467
0.751956395046
0.70375540155
0.486300847325
0.273908257118
0.162872724735
0.0840967888603
0.0423511337722
0.0285984859013
0.0247861393812
0.0227086175426
0.0202426773308
0.0170807820789
0.569363445685
0.709583068122
0.754230966255
0.751866693955
0.756578048335
0.751956395046
0.756031299073
0.752046095485
0.753552176585
0.731554909253
0.608682399864
0.370988003202
0.217514124034
0.119261014205
0.0572480336561
0.0323633479094
0.0257694674615
0.0233960622233
0.021161820442
0.0181871590306
0.571694622704
0.681028327179
0.751866693955
0.755442941964
0.751956395046
0.755940506791
0.752046095485
0.755137275197
0.752046095485
0.749562100671
0.682061125014
0.481063901889
0.284556172587
0.162666760034
0.0806024270512
0.0396438862074
0.0273778943592
0.0240569676251
0.0219194802159
0.0191894662339
0.569071458222
0.662118799148
0.752395293336
0.751956395046
0.755109109078
0.752046095485
0.755404738652
0.752116384465
0.754215339132
0.752046095485
0.715437146085
0.572139584801
0.365460014172
0.212497575637
0.112084848015
0.0526615410325
0.0304528421914
0.024878418901
0.0225664314103
0.0200781899263
0.571694622704
0.659017360471
0.751184773089
0.753678840101
0.752046095485
0.754790917383
0.752116384465
0.754646190428
0.752116384465
0.753086561227
0.728877333224
0.630381571526
0.441549339944
0.265577207199
0.148141600877
0.0722734793671
0.0362749815152
0.0261414348429
0.0231744911492
0.0208396092358
0.580233967419
0.669390140455
0.747119916688
0.752046095485
0.753820978637
0.752116384465
0.754253202208
0.752206483902
0.75387197378
0.752116384465
0.734163524736
0.65924535077
0.494570972667
0.311752908965
0.182130412725
0.0956078096279
0.0457053012565
0.028231328892
0.0238184140363
0.021467035499
0.635443521434
0.676066600912
0.734595170705
0.752480814069
0.752116384465
0.753690296062
0.752206483902
0.753927679778
0.752206483902
0.752949652577
0.736047080474
0.670191833571
0.520334173166
0.34039516112
0.206114895021
0.116172514372
0.0574196040761
0.0313874435826
0.0245424436277
0.0219574844495
0.662679911563
0.666450478222
0.711852563813
0.747774047921
0.752854249004
0.752206483902
0.753631068312
0.752296582692
0.753459229285
0.752206483902
0.736741149832
0.673187166058
0.527592958217
0.351188795336
0.217108400154
0.128587194654
0.0676192467999
0.0351236567137
0.0253072486127
0.022300755822
0.662391143857
0.64196718366
0.67885543333
0.734198799562
0.752206483902
0.752973389515
0.752296582692
0.753453325729
0.752296582692
0.752666396836
0.736666458484
0.6727485196
0.527084871174
0.352220345772
0.219385282322
0.133026834929
0.0733412856665
0.0380958956784
0.0259290835226
0.0224819804614
0.662663266176
0.614391346841
0.640893256571
0.706050933253
0.746165887913
0.752296582692
0.753071951017
0.752366723744
0.753077065573
0.752296582692
0.735121436954
0.666458188926
0.517884728923
0.347132965944
0.217877269767
0.133260382836
0.0749469612924
0.039376954472
0.0261917047509
0.0225210086738
0.662343974696
0.58627273247
0.597060886114
0.65743755691
0.725130345684
0.750035757923
0.752366723744
0.752860081674
0.752366723744
0.751427689405
0.727487435063
0.644567006346
0.490325359274
0.327769199442
0.208912056571
0.130568474218
0.0745148641187
0.03941977776
0.0261715401095
0.0224636960227
0.662537428236
0.552282306664
0.54374640052
0.587387347305
0.680026029754
0.742239749185
0.752481533063
0.752456938937
0.752577633638
0.744516274808
0.70547466994
0.592884125719
0.438776633012
0.292783828259
0.190733570047
0.122422873573
0.0714202988125
0.0384725193317
0.0258486759597
0.0222408717861
0.662031975978
0.516622505411
0.481634295518
0.513540963235
0.632531438123
0.736558628349
0.751982561798
0.75254873794
0.752456938937
0.73644759608
0.677644082479
0.514815661846
0.347325240002
0.2252892331
0.149484234387
0.0973680990557
0.0574300152197
0.0330474112716
0.0242828247034
0.021356584685
0.00498907986267
0.00464356936454
0.00413140042098
0.00296287765718
0.00126564030071
0.000201790921627
8.12937605998e-06
2.16815718181e-08
7.24602649073e-15
9.98643483386e-15
1.17588874224e-14
1.15200382565e-14
1.1017136531e-14
1.11287092786e-14
1.32784234573e-14
1.20211175631e-14
0.0166546307703
0.0120213681734
0.00791022148996
0.00561409266634
0.0049047158849
0.00458006460198
0.00403404243192
0.00279350025575
0.00111321835004
0.000160487429786
6.13063371713e-06
1.58276956902e-08
7.24483146346e-15
9.92932206458e-15
1.16702659688e-14
1.13934070072e-14
1.08596045136e-14
1.09870337117e-14
1.29591195844e-14
1.20102610049e-14
0.0158308724545
0.0112532482661
0.00738582580185
0.00541087355493
0.00482537551552
0.00451319312838
0.0039224751043
0.00260591429412
0.000962361890971
0.000125413669677
4.6691820158e-06
1.26689558932e-08
7.24533034407e-15
9.86749673011e-15
1.1557112711e-14
1.12376568294e-14
1.06786812238e-14
1.08373223852e-14
1.2647711062e-14
1.20146209247e-14
0.0150064605886
0.0104918910836
0.00690701988467
0.00523687290212
0.00475075603837
0.0044429293019
0.00379669436467
0.0024057242316
0.000820483042476
9.72615841508e-05
3.63638054108e-06
1.10191839152e-08
7.24483146292e-15
9.79419758533e-15
1.14163525976e-14
1.10532241488e-14
1.04816604461e-14
1.06897515241e-14
1.23375778675e-14
1.20091016084e-14
0.0141691600819
0.00974350247024
0.0064793578643
0.00508860794229
0.00467992231776
0.0043684227981
0.00365602357364
0.00219792247284
0.000692024260673
7.54896511731e-05
2.91078242815e-06
1.01125318363e-08
7.24523818431e-15
9.70420411872e-15
1.12510224132e-14
1.08464584392e-14
1.02802440589e-14
1.05490217809e-14
1.20203173307e-14
1.20077516773e-14
0.0133107382455
0.00901810532219
0.00610511556698
0.00496171151407
0.00461172059986
0.00428832452756
0.00349995522302
0.00198741798358
0.00057898788707
5.89603842988e-05
2.38775526066e-06
9.44228843649e-09
7.24483129077e-15
9.59202640162e-15
1.10681189164e-14
1.062786338e-14
1.00852068145e-14
1.04130440173e-14
1.16961623134e-14
1.20036176149e-14
0.0124371847766
0.008333607875
0.00578515571332
0.00485195776526
0.004545037698
0.00420137552171
0.00332952775967
0.00178014937495
0.000482010699125
4.64730555384e-05
1.98945132443e-06
8.64626552819e-09
7.24516517217e-15
9.42331208527e-15
1.08706573403e-14
1.04072807988e-14
9.90038425847e-15
1.02751593165e-14
1.13768740643e-14
1.19852856754e-14
0.0115709600741
0.00771218742545
0.00551817716833
0.00475572238208
0.00447910409709
0.00410711721143
0.00314844081669
0.0015831984169
0.000400945805996
3.70355557498e-05
1.66430912552e-06
7.47846859151e-09
7.24483111867e-15
9.16050985622e-15
1.06603146049e-14
1.01892541438e-14
9.72122990156e-15
1.01294336837e-14
1.10795461602e-14
1.19398063583e-14
0.0107450331684
0.00717164659817
0.00529983388372
0.00467029669461
0.00441375213084
0.00400637672034
0.00296306014404
0.00140358784589
0.000335063645698
2.99224851571e-05
1.38345953825e-06
5.89973685959e-09
7.24514728635e-15
8.83358282616e-15
1.04466134009e-14
9.97166698375e-15
9.53919804578e-15
9.97574088766e-15
1.08104926376e-14
1.18582921983e-14
0.0099911793417
0.0067185692112
0.00512265186929
0.00459392172918
0.00434941298773
0.00390116478119
0.00278105163859
0.0012466275433
0.00028303566723
2.46152822446e-05
1.13550376911e-06
4.13759882428e-09
7.24483103145e-15
8.55216179356e-15
1.02441363938e-14
9.74787557066e-15
9.34873151536e-15
9.82071826237e-15
1.05596953193e-14
1.17280117917e-14
0.00933130856878
0.00634802169221
0.00497796313871
0.00452548871316
0.00428672003319
0.00379402133471
0.00260932251182
0.00111435577542
0.000242967019309
2.0734257305e-05
9.19207046322e-07
2.54271924115e-09
7.24514728397e-15
8.43765624575e-15
1.00539668983e-14
9.51153955768e-15
9.15230369438e-15
9.67234921607e-15
1.0318727748e-14
1.15455733364e-14
0.00876735208088
0.00604750185562
0.0048586880851
0.00446398874448
0.00422606640275
0.00368753125515
0.00245245529559
0.00100572766014
0.000212716628663
1.79671714498e-05
7.34195651305e-07
1.33924860643e-09
7.24482897108e-15
8.65258188816e-15
9.85667775101e-15
9.26568453385e-15
8.96093471752e-15
9.53599030244e-15
1.00977757844e-14
1.13214081056e-14
0.00828718289225
0.00580274770086
0.00475944945276
0.00440792152983
0.00416745763741
0.00358446325376
0.00231338820368
0.00091834597317
0.00018993363165
1.5975725261e-05
5.77022479795e-07
5.51580238531e-10
7.24514724281e-15
8.99017580376e-15
9.63561507488e-15
9.02413969117e-15
8.78479641615e-15
9.41199290592e-15
9.91431582204e-15
1.10720769052e-14
0.00786185673374
0.00559475843438
0.00467411906485
0.00435568171421
0.00411031007005
0.0034871000024
0.00219571965828
0.000850157537554
0.000173071649371
1.45499784642e-05
4.45932177863e-07
1.39126993553e-10
7.2448281886e-15
9.28849004974e-15
9.40297403215e-15
8.80017572106e-15
8.62373114445e-15
9.29670682501e-15
9.77295086515e-15
1.08032011331e-14
0.0074747893962
0.00541002183036
0.00459590824792
0.00430658127919
0.0040566103355
0.00340191632947
0.00210379673642
0.000801449557664
0.000161852097687
1.36577211455e-05
3.41461872716e-07
6.45715969136e-12
7.24514649895e-15
9.41236403063e-15
9.16743734147e-15
8.59875845206e-15
8.46948023942e-15
9.18859852311e-15
9.66730683993e-15
1.05046980781e-14
0.00715155659664
0.00525739938562
0.00452405755663
0.00425996899842
0.00401103706469
0.0033389639576
0.00204486191296
0.000774465682016
0.000156658471578
1.33344753053e-05
2.6784074824e-07
3.8529989365e-15
7.84826238619e-15
9.42615986676e-15
8.92607377513e-15
8.41229780174e-15
8.3140072754e-15
9.09213596385e-15
9.59109459147e-15
1.01622205106e-14
0.00693297875947
0.00515929046074
0.00446793106615
0.00421387211332
0.00396994625955
0.00330867120264
0.00202587165682
0.000770025310551
0.000157107376081
1.35659737917e-05
2.3481481562e-07
3.85299893018e-15
8.2199791045e-15
9.28129613445e-15
8.68202037561e-15
8.2287108882e-15
8.15614484069e-15
9.01566883188e-15
9.54415548737e-15
9.77163824352e-15
0.00684676622657
0.005123832166
0.00444064111672
0.00418198225566
0.00394427499829
0.00330893902903
0.00204545629799
0.000791481834093
0.0001664619531
1.49591771328e-05
2.3920745269e-07
1.57019771463e-12
7.43562727541e-15
8.99597152558e-15
8.44204918988e-15
8.04772774583e-15
8.00553703488e-15
8.96140844275e-15
9.53012429417e-15
9.34756585641e-15
0.00687906273517
0.00513834023484
0.0044386732017
0.00417221901993
0.00394246780198
0.00334730073234
0.00213184888424
0.000859885802442
0.00019080869169
1.83573093102e-05
2.94039187265e-07
4.07218655628e-11
7.2357333342e-15
8.697102247e-15
8.21987558773e-15
7.88415708912e-15
7.8787765193e-15
8.92368410373e-15
9.54997668512e-15
8.91287699213e-15
0.00712357948919
0.00524761966185
0.00446179032649
0.00417364915816
0.00395313601226
0.00343313683149
0.002292432832
0.00098633235871
0.00023639105435
2.50856577418e-05
4.57485886416e-07
1.60926874163e-10
6.76236075123e-15
8.38699817678e-15
8.04171781567e-15
7.75332875184e-15
7.78529494344e-15
8.89510448498e-15
9.61965821233e-15
8.4919507148e-15
0.0076698928866
0.00551083510956
0.00453893674405
0.00418989780459
0.00397905911523
0.00354699516345
0.00251902975392
0.00118202430475
0.000312780625182
3.74846927955e-05
8.59858177577e-07
5.83048261682e-10
6.45688991906e-15
8.10893974038e-15
7.92078308076e-15
7.66497021922e-15
7.72146385199e-15
8.8660766018e-15
9.72041030352e-15
8.10238502768e-15
0.00852705569831
0.00597041487282
0.00469547362042
0.00423143718132
0.00401321500384
0.00366583562527
0.00278695594054
0.00144839980966
0.000431003241275
5.93359322616e-05
1.82355966636e-06
2.08058551788e-09
6.22659102037e-15
7.89944153559e-15
7.8368289604e-15
7.60887938442e-15
7.67797386785e-15
8.83262089955e-15
9.83362953367e-15
7.75062589619e-15
0.00964250010341
0.00665163752089
0.0049604733439
0.00430586911295
0.00405243951064
0.00376965586561
0.00305535942029
0.00176983189529
0.000600651808267
9.64829318414e-05
4.04926805695e-06
7.42106001488e-09
5.99735184329e-15
7.74854732656e-15
7.75927528449e-15
7.56626046205e-15
7.64833905442e-15
8.79834187033e-15
9.95714857153e-15
7.43294466881e-15
0.0108929078078
0.00753050414774
0.00535846290132
0.00442470603428
0.00409872095862
0.00385028379215
0.00328778872896
0.00211620803465
0.000825498813319
0.000156511754675
8.85056295898e-06
2.64971365964e-08
5.63574890401e-15
7.62869936154e-15
7.67486571163e-15
7.52216061961e-15
7.63043059152e-15
8.76370610729e-15
1.00902718394e-14
7.13886720398e-15
0.0121561589679
0.00854060642964
0.00589802924144
0.00460251722597
0.00415611117882
0.00391188118243
0.00346830763942
0.00245240374654
0.00109928414228
0.00024674130884
1.82985856103e-05
9.2532074484e-08
5.6219509039e-15
7.49552144169e-15
7.57947031932e-15
7.46623673347e-15
7.62264868642e-15
8.72261342699e-15
1.02290157348e-14
6.85855035384e-15
0.0133688828084
0.00961000810674
0.00656917621146
0.00485439148148
0.00423005765891
0.00396288576135
0.00360023510281
0.00275005242045
0.00140507416873
0.000372239207829
3.50797183208e-05
3.0201087141e-07
2.19269542147e-12
6.98293267385e-15
7.46192441598e-15
7.39629650821e-15
7.61865517571e-15
8.6693838193e-15
1.03786517705e-14
6.58495955954e-15
0.0145186492689
0.0106875885292
0.00734761916096
0.00519399550884
0.00432807653713
0.00401049755817
0.00369541347015
0.00299482876071
0.00171957918629
0.000534131065323
6.21524849441e-05
8.87112138877e-07
5.28977817253e-11
5.96707573911e-15
7.31521002604e-15
7.33069303779e-15
7.61129390432e-15
8.59928363247e-15
1.05361117191e-14
6.32144808207e-15
0.015613114894
0.0117477742417
0.00820120380629
0.00563031600148
0.00446012411267
0.00405990071409
0.00376567698595
0.00318560086713
0.00202032713681
0.000728805719112
0.000103063935569
2.30739533283e-06
5.48507130451e-10
5.37106454044e-15
7.14541496172e-15
7.27582703715e-15
7.59477809765e-15
8.50607159538e-15
1.06678620798e-14
6.08645400702e-15
0.0166554946496
0.0127815114715
0.00909499390787
0.0061617647965
0.00463741054231
0.00411512259391
0.00381975300432
0.00332863235018
0.00229090296834
0.000948021663465
0.000161642535839
5.30619552467e-06
3.58370134226e-09
5.19278028823e-15
6.96007950763e-15
7.21749640403e-15
7.5643770547e-15
8.38650171583e-15
1.07397124435e-14
5.90578125084e-15
0.0176274006543
0.0137791519032
0.00999252965711
0.00676826862885
0.00486760366765
0.00417942998974
0.00386328351243
0.00343245122235
0.00252115356639
0.00117932139289
0.000240169180496
1.09127357023e-05
1.73054592812e-08
5.15057457347e-15
6.76535467833e-15
7.1454778331e-15
7.51575175818e-15
8.24136576632e-15
1.07483441743e-14
5.78981186667e-15
0.0184849666231
0.0147116976125
0.0108530193447
0.007407223366
0.00514541739483
0.00425399676677
0.00389936511793
0.00350544937813
0.00270549320698
0.00140539774358
0.000336930407487
2.02050149223e-05
6.36978455746e-08
5.15057457338e-15
6.56764872837e-15
7.05637943857e-15
7.44745364307e-15
8.06999352346e-15
1.07348893268e-14
5.72225389603e-15
0.0191729777923
0.0155244680579
0.0116249533
0.00801853089411
0.00544680625087
0.00433520231581
0.00392807830486
0.00355388367972
0.00284144184368
0.001605276266
0.000443832618158
3.36134374083e-05
1.81662292885e-07
5.15057457345e-15
6.37246786975e-15
6.952746269e-15
7.36097823428e-15
7.87629110135e-15
1.06385504853e-14
5.68128783525e-15
0.0196470324979
0.0161488855161
0.012245346077
0.00853183268722
0.00572693395601
0.00441148318346
0.0039465678234
0.00358182251663
0.00293013584453
0.0017592616005
0.000544518404087
4.9532700268e-05
4.00438281581e-07
5.1505745734e-15
6.1933515848e-15
6.84173995109e-15
7.2591112055e-15
7.67131978325e-15
1.04954147788e-14
5.65201499274e-15
0.0198930462336
0.0165289832889
0.0126505178177
0.00887891401777
0.00592929223675
0.00446376670116
0.00395169740591
0.00359164907853
0.00297695413041
0.00185684446464
0.000619200932617
6.36122176149e-05
6.78432512417e-07
5.15057457345e-15
6.03778615026e-15
6.72781539812e-15
7.1416528629e-15
7.46090544713e-15
1.03259433214e-14
5.62442452181e-15
0.0199551378326
0.0166651530267
0.0128162500155
0.00902756445848
0.00601745476046
0.00447945233366
0.00394519952699
0.00358916023425
0.00299170353478
0.00190179215427
0.00065784325145
7.1627411088e-05
8.80757424542e-07
5.15057457342e-15
5.92849570284e-15
6.63199287371e-15
7.02530454614e-15
7.27164870584e-15
1.01371559812e-14
5.59798018397e-15
0.019914965685
0.016651260493
0.0128167638129
0.00903204569831
0.00601730690217
0.00446657007432
0.00391569182828
0.0035666627559
0.00298781143581
0.00190965573251
0.000667105404424
7.35301688675e-05
9.26606926291e-07
5.15057457337e-15
5.82473338831e-15
6.50254760495e-15
6.86307236934e-15
7.05007496891e-15
9.83858956345e-15
5.53580249859e-15
0.01971911818
0.0164781053643
0.0126733506011
0.00891993637486
0.00593588095552
0.00440699697633
0.00386821044484
0.00352551433495
0.00296164319276
0.00189788651893
0.000662622158909
7.27389093409e-05
9.09130447308e-07
5.15057457327e-15
5.84383150067e-15
6.4764168224e-15
6.79913795246e-15
6.9590523578e-15
9.66856070811e-15
5.53052506247e-15
0.018804620912
0.0154926123193
0.0117634655418
0.00818445594058
0.0054714138396
0.00418994671625
0.00374630528915
0.00341475408794
0.00283628251281
0.00177332165273
0.000590372853034
5.92829036646e-05
6.41907733039e-07
5.1505745733e-15
5.6146657997e-15
6.10730687109e-15
6.30141674485e-15
6.39151800218e-15
8.71607114729e-15
5.21126471512e-15
)
;

boundaryField
{
    emptyPatch
    {
        type            empty;
    }
    minY
    {
        type            fixedValue;
        value           nonuniform List<scalar> 0();
    }
    maxY
    {
        type            inletOutlet;
        phi             phi.gas;
        inletValue      uniform 1;
        value           nonuniform List<scalar> 
40
(
0.662031975978
0.516622505411
0.481634295518
0.513540963235
0.632531438123
0.736558628349
0.751982561798
0.75254873794
0.752456938937
0.73644759608
0.677644082479
0.514815661846
0.347325240002
0.2252892331
0.149484234387
0.0973680990557
0.0574300152197
0.0330474112716
0.0242828247034
0.021356584685
0.018804620912
0.0154926123193
0.0117634655418
0.00818445594058
0.0054714138396
0.00418994671625
0.00374630528915
0.00341475408794
0.00283628251281
0.00177332165273
0.000590372853034
5.92829036646e-05
6.41907733039e-07
5.1505745733e-15
5.6146657997e-15
6.10730687109e-15
6.30141674485e-15
6.39151800218e-15
8.71607114729e-15
5.21126471512e-15
)
;
    }
    maxX
    {
        type            zeroGradient;
    }
    water_to_heater
    {
        type            zeroGradient;
    }
    procBoundary0to1
    {
        type            processor;
        value           nonuniform List<scalar> 
41
(
0.737293721231
0.657956737477
0.596790344458
0.532467881865
0.460875680173
0.425058403735
0.441605170363
0.502672733777
0.557091510957
0.564984056997
0.528710775574
0.440482526398
0.334067104934
0.238094454999
0.156053308591
0.0889479277409
0.0484833651914
0.0329178511655
0.0265150067788
0.0219431252125
0.00507718409421
0.00470271716832
0.00421391724746
0.0031088738274
0.00141041272503
0.000246989661044
1.06826021939e-05
3.10634380978e-08
7.24483146445e-15
1.00513008214e-14
1.18322642887e-14
1.16228473909e-14
1.11502982706e-14
1.12538919151e-14
1.36072054481e-14
1.20239542031e-14
0.0174817286845
0.0127866524617
0.00846701487196
0.00584673956405
0.00584673956405
)
;
    }
}


// ************************************************************************* //
