/*--------------------------------*- C++ -*----------------------------------*\
| =========                 |                                                 |
| \\      /  F ield         | OpenFOAM: The Open Source CFD Toolbox           |
|  \\    /   O peration     | Version:  2312                                  |
|   \\  /    A nd           | Website:  www.openfoam.com                      |
|    \\/     M anipulation  |                                                 |
\*---------------------------------------------------------------------------*/
FoamFile
{
    version     2.0;
    format      ascii;
    arch        "LSB;label=32;scalar=64";
    class       volScalarField;
    location    "0.86/water";
    object      nut.gas;
}
// * * * * * * * * * * * * * * * * * * * * * * * * * * * * * * * * * * * * * //

dimensions      [0 2 -1 0 0 0 0];

internalField   nonuniform List<scalar> 
1497
(
2.68976789529e-06
2.31409934812e-06
1.88509965987e-06
1.47995629625e-06
1.13242729666e-06
8.73996879578e-07
6.92215056219e-07
5.38989004482e-07
3.63098154864e-07
1.85713511766e-07
7.78739910977e-08
3.8519169252e-08
2.97370335964e-08
5.32726869347e-06
5.22018055254e-06
4.49568698297e-06
3.82718160764e-06
3.39523890457e-06
3.15357645848e-06
2.98845060487e-06
2.77342989824e-06
2.44908718042e-06
2.05320131919e-06
1.64931741961e-06
1.27848110436e-06
9.86587392443e-07
7.83050110894e-07
6.2893391738e-07
4.56509296441e-07
2.58481189148e-07
1.13395577167e-07
5.06308040452e-08
3.27167097044e-08
4.85565217004e-06
4.89780642678e-06
4.32216388189e-06
3.757039133e-06
3.39093826107e-06
3.17525604435e-06
3.01324158076e-06
2.80761268427e-06
2.50786678976e-06
2.13191457341e-06
1.73392245895e-06
1.36040490563e-06
1.05847261778e-06
8.45625883098e-07
6.90500738585e-07
5.23391892551e-07
3.18543268776e-07
1.48717186353e-07
6.47558426042e-08
3.71664792305e-08
4.57165466077e-06
4.67891651162e-06
4.16011161078e-06
3.64449433777e-06
3.33148178584e-06
3.14580186057e-06
2.98993905652e-06
2.78627171004e-06
2.4961064171e-06
2.13172544785e-06
1.74469456158e-06
1.3825904131e-06
1.09136063716e-06
8.83978870527e-07
7.31972849186e-07
5.67424309132e-07
3.59042631569e-07
1.75478880633e-07
7.73406867918e-08
4.19729958242e-08
4.48691650925e-06
4.62724502245e-06
4.01097466597e-06
3.44067384489e-06
3.17364016115e-06
3.03759366106e-06
2.89891136235e-06
2.69643449197e-06
2.4096078459e-06
2.05668119249e-06
1.69024718613e-06
1.35839469131e-06
1.09479207039e-06
9.05216783629e-07
7.60198047337e-07
5.94579206477e-07
3.81901093628e-07
1.92227595933e-07
8.7176295552e-08
4.67507168008e-08
4.72379666109e-06
4.73395001794e-06
3.79130135021e-06
3.10472297752e-06
2.91738721577e-06
2.85564965526e-06
2.73813714026e-06
2.53637811482e-06
2.25578073327e-06
1.92440170015e-06
1.5934577866e-06
1.30901021933e-06
1.08338737717e-06
9.18742221462e-07
7.81396490941e-07
6.10196580038e-07
3.92004016422e-07
2.01765106086e-07
9.52867367005e-08
5.1882394454e-08
5.16399602421e-06
4.76127291882e-06
3.49816838948e-06
2.6980228547e-06
2.57544271112e-06
2.60035141677e-06
2.52223645227e-06
2.33338288837e-06
2.0676358357e-06
1.77486321886e-06
1.49572497311e-06
1.25875274841e-06
1.07375949354e-06
9.34768557754e-07
8.0110962871e-07
6.18817943815e-07
3.95164375112e-07
2.08691107939e-07
1.0378589173e-07
5.81145729333e-08
5.47616941586e-06
4.83815466266e-06
3.51929223987e-06
2.53352377292e-06
2.29997360683e-06
2.34078075342e-06
2.29670170716e-06
2.12959220281e-06
1.89009268637e-06
1.64317751516e-06
1.41636855675e-06
1.22689361833e-06
1.08090160054e-06
9.61795577494e-07
8.22520185654e-07
6.24204708247e-07
3.97764718395e-07
2.17758322801e-07
1.14674132789e-07
6.58356563369e-08
5.7735763884e-06
4.97555667169e-06
3.74021143241e-06
2.61458799401e-06
2.1782944457e-06
2.14681037088e-06
2.11501147263e-06
1.97449077941e-06
1.76566311966e-06
1.56040239547e-06
1.37899107344e-06
1.23132185784e-06
1.11536469187e-06
1.00241325871e-06
8.45702812939e-07
6.31601158805e-07
4.06685560615e-07
2.32699263562e-07
1.28517274722e-07
7.45046392136e-08
5.83027552318e-06
4.98994165175e-06
3.92731639133e-06
2.82893702658e-06
2.1964645436e-06
2.05684939622e-06
2.00915842153e-06
1.89480590978e-06
1.72045139434e-06
1.54599562615e-06
1.3972117817e-06
1.27832212072e-06
1.17528009695e-06
1.05081201294e-06
8.72180424097e-07
6.48936955036e-07
4.27247494913e-07
2.53491586602e-07
1.42993906626e-07
8.4047547514e-08
5.74857334591e-06
4.95954950642e-06
4.11207633635e-06
3.12523012048e-06
2.33191311243e-06
2.0577527051e-06
1.98016583266e-06
1.87726414506e-06
1.73409356176e-06
1.58554887485e-06
1.45851322048e-06
1.35255182726e-06
1.24514776926e-06
1.10236492767e-06
9.08726883531e-07
6.81587029641e-07
4.56006897966e-07
2.72376006428e-07
1.57401873946e-07
9.70093138607e-08
5.60978659113e-06
4.91547227963e-06
4.26480575521e-06
3.37715876966e-06
2.55112855702e-06
2.10302685581e-06
1.97934298749e-06
1.88475365467e-06
1.76495090517e-06
1.64006815025e-06
1.5288173966e-06
1.42747726481e-06
1.3132747253e-06
1.159343668e-06
9.57737803038e-07
7.17516838612e-07
4.73046563878e-07
2.87026704846e-07
1.78193662569e-07
1.14660799946e-07
5.41058723901e-06
4.86307886122e-06
4.33449322803e-06
3.53906459347e-06
2.82419072849e-06
2.26156527084e-06
2.00347914733e-06
1.88570643187e-06
1.78331746681e-06
1.67867781666e-06
1.58159956617e-06
1.48815185914e-06
1.37529822202e-06
1.21808293376e-06
9.98764182293e-07
7.25819364157e-07
4.77559190042e-07
3.09996176707e-07
2.06872446442e-07
1.34707601481e-07
5.30950709499e-06
4.8186269012e-06
4.29278234528e-06
3.61709330983e-06
3.01584379424e-06
2.48640761954e-06
2.0954518061e-06
1.89053357188e-06
1.77908125784e-06
1.68995772411e-06
1.60814964943e-06
1.52760029608e-06
1.42172716542e-06
1.25551836954e-06
1.0020010316e-06
7.17894199839e-07
4.93809045087e-07
3.42673976707e-07
2.37005894647e-07
1.53488584598e-07
5.0768788956e-06
4.54867868911e-06
4.06543748275e-06
3.57506100344e-06
3.08525208744e-06
2.62753409154e-06
2.22183862304e-06
1.91693252668e-06
1.75798457644e-06
1.67023436508e-06
1.60263826898e-06
1.53490824791e-06
1.43279109655e-06
1.25150978875e-06
9.86566089968e-07
7.25062620993e-07
5.22728236312e-07
3.75454399019e-07
2.62683506743e-07
1.68815576604e-07
4.6952171851e-06
4.24353868589e-06
3.80133612891e-06
3.43463857993e-06
3.0438333976e-06
2.65265989969e-06
2.28042958878e-06
1.94914258836e-06
1.72707508796e-06
1.62582185143e-06
1.56445541229e-06
1.50308751102e-06
1.4029687338e-06
1.22301577856e-06
9.77736214089e-07
7.4226563404e-07
5.5024534271e-07
4.01674853868e-07
2.82392000559e-07
1.80934527188e-07
4.45428005328e-06
4.02735530101e-06
3.59142319211e-06
3.27326857037e-06
2.94272901763e-06
2.59227447716e-06
2.24899107541e-06
1.93180591523e-06
1.68456900132e-06
1.56850580458e-06
1.50546128354e-06
1.44692901895e-06
1.35359539946e-06
1.18940374222e-06
9.6995423175e-07
7.5355841134e-07
5.68440262962e-07
4.20633526068e-07
2.98072108662e-07
1.91647262383e-07
4.35998545755e-06
3.93352141889e-06
3.46191600082e-06
3.13452588653e-06
2.82214131132e-06
2.4846886558e-06
2.15389954598e-06
1.85224709628e-06
1.61781625405e-06
1.5024097372e-06
1.44059230365e-06
1.38726997207e-06
1.30276929637e-06
1.15387705012e-06
9.550172682e-07
7.54166956523e-07
5.78402856185e-07
4.36188204751e-07
3.13283706662e-07
2.03132170772e-07
4.44773709114e-06
3.95955686861e-06
3.38417696781e-06
2.99738616082e-06
2.67361022924e-06
2.33065992777e-06
2.00059194199e-06
1.72414915115e-06
1.53367292223e-06
1.43437237646e-06
1.380578263e-06
1.33393341335e-06
1.25550562025e-06
1.11673312218e-06
9.3379225863e-07
7.48317437779e-07
5.86957535977e-07
4.53768969241e-07
3.31512993132e-07
2.17231621897e-07
4.57958985067e-06
4.01665653809e-06
3.32415880026e-06
2.84533570677e-06
2.48337630536e-06
2.14357489716e-06
1.82331634545e-06
1.59485408522e-06
1.45409246018e-06
1.37802201142e-06
1.33505153795e-06
1.2924473777e-06
1.2147614508e-06
1.08115761709e-06
9.11959760096e-07
7.44808348166e-07
6.01778127757e-07
4.78052931821e-07
3.55031405481e-07
2.3544140546e-07
4.75521540695e-06
4.12005548818e-06
3.30106411903e-06
2.69835855902e-06
2.30178782883e-06
1.95372159405e-06
1.68005851345e-06
1.50847137215e-06
1.40730423838e-06
1.35009693791e-06
1.31304907691e-06
1.26753757054e-06
1.1844826781e-06
1.05336755448e-06
8.9919331241e-07
7.53680968146e-07
6.29114209564e-07
5.12012323998e-07
3.8489664991e-07
2.59471556291e-07
5.07496614053e-06
4.3176745602e-06
3.33070113891e-06
2.5866141203e-06
2.11171461656e-06
1.81246418171e-06
1.61487543175e-06
1.48974277079e-06
1.41079407654e-06
1.35949712618e-06
1.31738284402e-06
1.26087355671e-06
1.16932644412e-06
1.04264747284e-06
9.06454822425e-07
7.82820303236e-07
6.72431550192e-07
5.55969651142e-07
4.22283013157e-07
2.91721979695e-07
5.36796296012e-06
4.45813889941e-06
3.36389323483e-06
2.49897736905e-06
1.98758436342e-06
1.75474533035e-06
1.6286567345e-06
1.53429429582e-06
1.45877411956e-06
1.39824903142e-06
1.3415505542e-06
1.27131335379e-06
1.17480059509e-06
1.05791135802e-06
9.40301674316e-07
8.33774902091e-07
7.29753556429e-07
6.09119034635e-07
4.70099431531e-07
3.34947232525e-07
5.74891062661e-06
4.79403468656e-06
3.58319612313e-06
2.5778171602e-06
2.04064879456e-06
1.82903975897e-06
1.71616960084e-06
1.61779058714e-06
1.5266836871e-06
1.44719990044e-06
1.37463878849e-06
1.29607321678e-06
1.20273057458e-06
1.09929322439e-06
9.96396592644e-07
8.99275942928e-07
7.96426759796e-07
6.72904934158e-07
5.31407685409e-07
3.90810899059e-07
6.57100082865e-06
5.61765641007e-06
4.16046718419e-06
2.97281017859e-06
2.33781003308e-06
2.05606841988e-06
1.89037037598e-06
1.74869529662e-06
1.6190089962e-06
1.50840155319e-06
1.4165449356e-06
1.33226155878e-06
1.24492208501e-06
1.15323910853e-06
1.06186694216e-06
9.70715507256e-07
8.698973687e-07
7.46962311006e-07
6.04396557054e-07
4.57165005823e-07
7.52661422368e-06
6.56975070862e-06
4.8865598014e-06
3.5744863146e-06
2.78620641729e-06
2.37871555996e-06
2.13657758303e-06
1.93994283096e-06
1.75942472681e-06
1.60281700512e-06
1.47780135777e-06
1.37851760712e-06
1.29121531708e-06
1.20663850035e-06
1.12364756184e-06
1.03919186272e-06
9.42291459487e-07
8.22513958885e-07
6.80316455279e-07
5.25971875565e-07
7.69758486931e-06
7.0073109679e-06
5.40067775209e-06
4.12634509924e-06
3.28123797981e-06
2.7448891426e-06
2.40180442051e-06
2.1462005023e-06
1.92172058352e-06
1.72081088707e-06
1.55511175988e-06
1.42844747774e-06
1.33004475331e-06
1.24617825094e-06
1.16910339123e-06
1.09098225384e-06
1.00009956485e-06
8.85795354812e-07
7.44901248517e-07
5.83618964439e-07
7.81058431978e-06
7.26030930286e-06
5.78834387009e-06
4.53440265134e-06
3.65434774426e-06
3.06291735398e-06
2.65170589703e-06
2.33631543144e-06
2.06575523422e-06
1.82445728914e-06
1.62110648017e-06
1.46461080975e-06
1.34919460496e-06
1.26144332362e-06
1.18850297973e-06
1.1175752884e-06
1.03416418342e-06
9.24873237788e-07
7.83021722928e-07
6.1351262378e-07
7.60382836228e-06
7.26228856692e-06
5.90240060145e-06
4.65598897957e-06
3.76716767307e-06
3.16946144907e-06
2.75076217377e-06
2.42282557594e-06
2.13539330842e-06
1.87343888895e-06
1.6469443952e-06
1.47144862079e-06
1.34459264858e-06
1.25497522652e-06
1.18694715877e-06
1.12285847538e-06
1.04380794764e-06
9.33165440264e-07
7.83213462972e-07
6.01332471425e-07
7.16377322967e-06
6.97083118371e-06
5.69700299497e-06
4.49089952948e-06
3.65608433965e-06
3.10640974541e-06
2.71290542691e-06
2.3935813667e-06
2.10925287925e-06
1.85014061683e-06
1.62500829468e-06
1.44753392628e-06
1.32131996067e-06
1.23641877121e-06
1.17455919207e-06
1.11343733272e-06
1.03025694444e-06
9.07298628731e-07
7.39629725333e-07
5.4117026268e-07
6.76121139204e-06
6.4364200919e-06
5.19396590612e-06
4.15306489603e-06
3.4900045513e-06
3.04086468648e-06
2.67439165159e-06
2.35607698729e-06
2.06358582917e-06
1.79760685696e-06
1.57250205225e-06
1.40202888057e-06
1.28680343903e-06
1.21282677279e-06
1.15674129944e-06
1.0917406911e-06
9.93398066169e-07
8.46540055842e-07
6.53432912854e-07
4.39928068212e-07
6.60256967132e-06
5.93443257436e-06
4.61654981191e-06
3.79535529852e-06
3.36887147752e-06
3.02269832893e-06
2.67894066149e-06
2.33978594873e-06
2.01871496952e-06
1.73543386883e-06
1.51048557132e-06
1.35328146594e-06
1.25568704575e-06
1.19436291184e-06
1.13888139818e-06
1.05961136109e-06
9.33934381766e-07
7.52942869227e-07
5.3280361952e-07
3.20435051014e-07
6.72262508968e-06
5.76475153738e-06
4.31302287767e-06
3.55187474252e-06
3.18315815001e-06
2.90090967602e-06
2.60015526679e-06
2.27515084963e-06
1.95353197156e-06
1.67080518996e-06
1.45688351479e-06
1.31982101771e-06
1.24123213622e-06
1.18685158931e-06
1.12069020212e-06
1.01360151747e-06
8.47772437467e-07
6.28058250636e-07
3.97871550802e-07
2.18454856574e-07
6.95439210931e-06
5.84361449441e-06
4.33845221373e-06
3.38566228554e-06
2.92040295608e-06
2.66535175514e-06
2.4258067987e-06
2.15020147298e-06
1.86074879226e-06
1.60312538565e-06
1.41575058971e-06
1.30470217438e-06
1.24108291417e-06
1.18186289843e-06
1.08982706687e-06
9.40526673979e-07
7.28895026411e-07
4.88351471238e-07
2.84042021354e-07
1.51087416608e-07
7.29630539447e-06
6.28635887575e-06
4.59739720102e-06
3.31373924387e-06
2.66392452978e-06
2.39173582333e-06
2.20945549465e-06
1.99557406001e-06
1.75447378325e-06
1.53638723223e-06
1.38387863411e-06
1.29783781425e-06
1.2386678917e-06
1.1591969386e-06
1.02794478409e-06
8.331936406e-07
5.94064273231e-07
3.69278752542e-07
2.0650527005e-07
9.96994379337e-08
7.51117083355e-06
6.522262545e-06
4.65312808677e-06
3.17968895198e-06
2.39894453164e-06
2.11835538864e-06
1.99382850222e-06
1.84252493048e-06
1.65200346409e-06
1.47429076108e-06
1.35353759267e-06
1.28332295013e-06
1.21475860622e-06
1.10448225885e-06
9.34380949676e-07
7.11380952209e-07
4.77391524578e-07
2.83340185221e-07
1.44338192355e-07
5.60420273757e-08
7.48436476438e-06
6.45264026609e-06
4.50125230142e-06
2.91194086987e-06
2.08892878369e-06
1.8580266447e-06
1.80468400995e-06
1.70994046623e-06
1.55956798508e-06
1.41360603259e-06
1.31829426699e-06
1.25360585475e-06
1.16582812915e-06
1.02486920636e-06
8.2952813482e-07
6.04197692165e-07
3.86032211776e-07
2.08770046134e-07
9.65496303989e-08
3.67414713266e-08
7.42318034209e-06
6.14506438675e-06
4.23735132689e-06
2.62043495754e-06
1.81871599675e-06
1.65413815339e-06
1.66048997742e-06
1.60192316238e-06
1.47642089722e-06
1.35838628649e-06
1.2828398792e-06
1.21185761943e-06
1.10029288936e-06
9.37278019818e-07
7.36148862862e-07
5.12757283709e-07
2.99692583751e-07
1.55546183132e-07
7.48317578804e-08
3.19376230489e-08
3.72611188771e-08
6.6080912802e-08
1.15310192783e-07
1.65025766917e-07
1.96984931549e-07
2.14671466052e-07
2.25683245569e-07
2.42494179923e-07
2.78992625583e-07
3.05707256642e-07
2.8526964592e-07
2.51876926905e-07
2.29396497001e-07
2.18612004393e-07
2.09135816203e-07
2.03917290804e-07
2.06265408673e-07
2.01058396844e-07
2.26992824598e-07
3.99569057455e-07
3.50545742984e-08
5.58705875255e-08
9.54750970524e-08
1.39903531454e-07
1.72587766715e-07
1.92045631025e-07
2.1098914662e-07
2.38315737427e-07
2.52968468016e-07
2.44047946186e-07
2.29876891414e-07
2.19473331419e-07
2.12978521403e-07
2.06516752217e-07
1.99047929826e-07
1.99568706932e-07
2.12228124047e-07
2.10878841855e-07
2.15757034367e-07
4.40932016813e-07
3.457083937e-08
4.88003692825e-08
7.91419886861e-08
1.164043771e-07
1.47732904139e-07
1.70187900366e-07
1.96076687381e-07
2.19392126522e-07
2.21053257457e-07
2.14915621126e-07
2.08378890874e-07
2.01847387674e-07
1.96778249804e-07
1.94061481184e-07
1.90716948542e-07
1.99710036886e-07
2.229770452e-07
2.26848128114e-07
2.17988207079e-07
4.39278223631e-07
3.51181359525e-08
4.41995311492e-08
6.69097623033e-08
9.68513591876e-08
1.2451407803e-07
1.4811559658e-07
1.76787820313e-07
1.9883732354e-07
1.99873315766e-07
1.95176078779e-07
1.90966199368e-07
1.86599270145e-07
1.83605847146e-07
1.82832367631e-07
1.85113795133e-07
2.04402315021e-07
2.38109719303e-07
2.47472991606e-07
2.29065107379e-07
4.545093498e-07
3.64210211888e-08
4.14007271307e-08
5.80509182848e-08
8.14235315211e-08
1.04575374288e-07
1.26941928376e-07
1.55754425463e-07
1.80894775762e-07
1.85205406517e-07
1.79418025659e-07
1.75866982414e-07
1.73220060217e-07
1.72921679352e-07
1.74793532468e-07
1.82759898547e-07
2.14306130211e-07
2.57802015089e-07
2.70909242728e-07
2.44891518266e-07
4.90848294059e-07
3.85416050617e-08
3.99829732174e-08
5.16844538328e-08
6.95491943319e-08
8.86584969673e-08
1.08903773595e-07
1.35531639842e-07
1.64133725709e-07
1.73009016626e-07
1.65581295619e-07
1.62449503828e-07
1.61646083914e-07
1.63849705073e-07
1.679973061e-07
1.84303021149e-07
2.29012206349e-07
2.80410823183e-07
2.96010792379e-07
2.63777837194e-07
4.92586231458e-07
4.16318164483e-08
3.96733782351e-08
4.71682079619e-08
6.05689010795e-08
7.65124836829e-08
9.47637023133e-08
1.18323729295e-07
1.47102706562e-07
1.60167496407e-07
1.53157784022e-07
1.50472535088e-07
1.51696217162e-07
1.55977008964e-07
1.62191420067e-07
1.89230712374e-07
2.4585124811e-07
3.02760806487e-07
3.21486871392e-07
2.85844325032e-07
5.03423687986e-07
4.55493679688e-08
4.02712817345e-08
4.41802252598e-08
5.39814292132e-08
6.72657416152e-08
8.34637726312e-08
1.04126097409e-07
1.30879111939e-07
1.46653295728e-07
1.41419543504e-07
1.39733701182e-07
1.43009545821e-07
1.48806326349e-07
1.56987685702e-07
1.95156029345e-07
2.60666775165e-07
3.21669718134e-07
3.44743788403e-07
3.08798380899e-07
5.19435502145e-07
5.0214242972e-08
4.18429022981e-08
4.2499724936e-08
4.92146126091e-08
6.00454821244e-08
7.41917201584e-08
9.24456462834e-08
1.16818018159e-07
1.32979210757e-07
1.29791491281e-07
1.30033254799e-07
1.35136357034e-07
1.41556111767e-07
1.51893138826e-07
2.0001348069e-07
2.71145050965e-07
3.36957746179e-07
3.6663469446e-07
3.30768918798e-07
5.39395915114e-07
5.64138014839e-08
4.4439831587e-08
4.17982020124e-08
4.57427004524e-08
5.43713992134e-08
6.66523276737e-08
8.28780065675e-08
1.04579896682e-07
1.19483453393e-07
1.18557562857e-07
1.21275958594e-07
1.27759454006e-07
1.33613118614e-07
1.47376292472e-07
2.02359361432e-07
2.76880306662e-07
4.73414665647e-07
5.08558863731e-07
3.51852466373e-07
5.61795307412e-07
6.46233773576e-08
4.78374050314e-08
4.1755288364e-08
4.32151357931e-08
4.9961325341e-08
6.05787907715e-08
7.49907234715e-08
9.37604797789e-08
1.06736641315e-07
1.08295183224e-07
1.13337967489e-07
1.20670095375e-07
1.25472320783e-07
1.44313480408e-07
2.03683637901e-07
3.20005519446e-07
5.74015463192e-07
5.56273922586e-07
3.70702866963e-07
5.89977631457e-07
7.43236165481e-08
5.16693509601e-08
4.21410249182e-08
4.14591801774e-08
4.66191818988e-08
5.5735969196e-08
6.84830115887e-08
8.42443788183e-08
9.5145560299e-08
9.92446220791e-08
1.06039715967e-07
1.13323028491e-07
1.18639593962e-07
1.42742559131e-07
2.06639719389e-07
4.25935687596e-07
1.09621737978e-06
5.71517747273e-07
3.86307028699e-07
6.26179031822e-07
8.43236012664e-08
5.55349561615e-08
4.28502809229e-08
4.04223595071e-08
4.42234160863e-08
5.19716184327e-08
6.31352132452e-08
7.5904886699e-08
8.50310238446e-08
9.13865499532e-08
9.92590377522e-08
1.05946505004e-07
1.13687940114e-07
1.42522883583e-07
2.9862769047e-07
1.07678020829e-06
1.55299786453e-06
5.49673383298e-07
3.99931733849e-07
6.72415917133e-07
9.33463896376e-08
5.91578622842e-08
4.39279016788e-08
4.01254957457e-08
4.27228277513e-08
4.9227896912e-08
5.87389512889e-08
6.8695536454e-08
7.6683800129e-08
8.45194136704e-08
9.2842816444e-08
9.99701405546e-08
1.10270325302e-07
2.00346385097e-07
7.85218828754e-07
1.55792319763e-06
1.71748077654e-06
5.10928139856e-07
4.07143397341e-07
7.20905465055e-07
1.00894379139e-07
6.2628173683e-08
4.55649249485e-08
4.06416489199e-08
4.21316896737e-08
4.74282891878e-08
5.51269388762e-08
6.27883864874e-08
7.00872184091e-08
7.85242098634e-08
8.73058590684e-08
9.53961926765e-08
1.12333051567e-07
4.68812548459e-07
1.2231336707e-06
1.60517935987e-06
1.72467762301e-06
4.79448471682e-07
4.04312258545e-07
6.50556150429e-07
1.07502677038e-07
6.64187911288e-08
4.80413151323e-08
4.20814659636e-08
4.24594187193e-08
4.64322324871e-08
5.22417937335e-08
5.82432602791e-08
6.49772553901e-08
7.35406695524e-08
8.30254609311e-08
9.17091369666e-08
2.00536414817e-07
8.61833374794e-07
1.24907632971e-06
1.6470057298e-06
1.79764850187e-06
5.29100732595e-07
4.00125136777e-07
5.0600688074e-07
1.14251200946e-07
7.11781620655e-08
5.1647800481e-08
4.45262367503e-08
4.36392331719e-08
4.61409739259e-08
5.02033452362e-08
5.4881973791e-08
6.10859053278e-08
6.98616298439e-08
7.93163688026e-08
1.25133563184e-07
5.94259068048e-07
8.89329821706e-07
1.276935086e-06
1.72310825525e-06
1.91636701492e-06
5.81995119053e-07
4.02601093267e-07
4.40044855726e-07
1.22358728629e-07
7.75585814713e-08
5.66206061562e-08
4.80055918873e-08
4.56203491138e-08
4.65421692857e-08
4.90529119447e-08
5.24413625846e-08
5.81853087158e-08
6.72309039814e-08
7.63010613741e-08
2.96106210281e-07
6.37888644263e-07
9.12396373134e-07
1.28148997294e-06
1.80058354335e-06
2.03927848184e-06
6.20315267253e-07
4.09294394146e-07
4.23631329188e-07
1.33053067757e-07
8.61838531032e-08
6.31934609122e-08
5.26008224489e-08
4.84293232359e-08
4.76803364671e-08
4.85955637573e-08
5.07617393869e-08
5.61365100871e-08
6.48085144827e-08
1.11641559609e-07
5.01541471896e-07
6.5175057378e-07
9.0977113924e-07
1.24243232287e-06
1.83587641545e-06
2.15768139717e-06
6.1868622948e-07
4.19120494277e-07
4.02333580862e-07
1.47599741203e-07
9.77152784083e-08
7.17193189398e-08
5.8517489438e-08
5.21731581468e-08
4.947660901e-08
4.85550836632e-08
4.96814016163e-08
5.4854036514e-08
6.27329506014e-08
2.61330932852e-07
5.10861361237e-07
6.60785550152e-07
8.70380907574e-07
1.13918917131e-06
1.83258477173e-06
2.26781026813e-06
4.98359808962e-07
4.36293104328e-07
3.80359993462e-07
1.6736618775e-07
1.13000971582e-07
8.27647729011e-08
6.60675944614e-08
5.68943543611e-08
5.17312430522e-08
4.87572138286e-08
4.89377273515e-08
5.38772561133e-08
8.82065898137e-08
4.12973502348e-07
5.21480875903e-07
6.60999809305e-07
7.72516709864e-07
9.88806729804e-07
1.76672295099e-06
2.29649006243e-06
5.26921293029e-07
4.67804418442e-07
3.66572255676e-07
1.94033112335e-07
1.33232395731e-07
9.7034259845e-08
7.55078027053e-08
6.24972019469e-08
5.42037229992e-08
4.9063139629e-08
4.83133119345e-08
5.27899747877e-08
1.53269675786e-07
4.25336016808e-07
5.3487504874e-07
6.38170045424e-07
6.32911725999e-07
7.94896713419e-07
1.64529370014e-06
1.72155549842e-06
5.48870076315e-07
5.22016885418e-07
3.83147365311e-07
2.29555210883e-07
1.59606665749e-07
1.15031371173e-07
8.68628680872e-08
6.8760190689e-08
5.6650656612e-08
4.92555218721e-08
4.76871403793e-08
6.52346059481e-08
2.70961167307e-07
4.40131416727e-07
5.42636189638e-07
5.92111104712e-07
4.67480787715e-07
6.19052797847e-07
1.50505234404e-06
5.86528139695e-07
5.46968273989e-07
5.94162003137e-07
5.75906646111e-07
2.7486369541e-07
1.92386365991e-07
1.36611532588e-07
9.97358419209e-08
7.52178794309e-08
5.87070842486e-08
4.90196421074e-08
4.69464126691e-08
7.40169941986e-08
3.45044966669e-07
4.5886893944e-07
5.42020429666e-07
5.08246340479e-07
3.2109512654e-07
4.97741379196e-07
1.36550194127e-06
4.06018259128e-07
5.30617846349e-07
6.2726842546e-07
1.22827873044e-06
3.27798586454e-07
2.29799850833e-07
1.60291868731e-07
1.12835062797e-07
8.08460709067e-08
5.97297618109e-08
4.80618059676e-08
4.61693621019e-08
7.99016698173e-08
3.84825981283e-07
4.82717070124e-07
5.1764915006e-07
3.93654171739e-07
2.07736506055e-07
4.59012426355e-07
3.48662139635e-07
3.98434747123e-07
5.18218822472e-07
6.17604106704e-07
1.76712137743e-06
3.81794453398e-07
2.66738658829e-07
1.82167342019e-07
1.23263139498e-07
8.37159069157e-08
5.88183252184e-08
4.64224501571e-08
4.59685698122e-08
8.34220918194e-08
4.18553961419e-07
5.01466056983e-07
4.62073984474e-07
2.61260970209e-07
1.4101284215e-07
2.54327710032e-07
2.50384626229e-07
3.85608287904e-07
5.00311662887e-07
5.96695212423e-07
1.83359493085e-06
4.25186835241e-07
2.93817794118e-07
1.95207281334e-07
1.26259304277e-07
8.1249327546e-08
5.53022735976e-08
4.47232119732e-08
4.7326915093e-08
8.66857093848e-08
4.31719254481e-07
5.06019523068e-07
3.67557457047e-07
1.54608870304e-07
2.94566765238e-08
8.97965739696e-08
2.4594495157e-07
3.79879084509e-07
4.80246626017e-07
5.65252624951e-07
1.57427081699e-06
4.42279883691e-07
2.98342792861e-07
1.90236129949e-07
1.16340448632e-07
7.15705676657e-08
4.9843550687e-08
4.4676544514e-08
5.1738683468e-08
7.52274226795e-08
2.47578282076e-07
4.01395299886e-07
1.22927480221e-07
1.58393822233e-08
1.63526041745e-08
9.57937334709e-08
2.54250077169e-07
3.71496978092e-07
4.67834261031e-07
5.4754238172e-07
9.51557520383e-07
4.18900698241e-07
2.68944900324e-07
1.60310618199e-07
9.17589136072e-08
5.68846649726e-08
4.58405731318e-08
4.91743048845e-08
6.06475331161e-08
8.02683822262e-08
9.76346228253e-08
9.06673922028e-08
3.1164515714e-08
1.10832169914e-08
1.53563744961e-08
1.12084071943e-07
3.56685017231e-07
5.1722434347e-07
4.60366678698e-07
5.51636930473e-07
8.27221474802e-07
3.51914739047e-07
2.06784226696e-07
1.11986228647e-07
6.24834070384e-08
4.54624274686e-08
4.70730463203e-08
5.75464989366e-08
7.03942320531e-08
8.69081411862e-08
9.80658949149e-08
6.59281905186e-08
2.44414830069e-08
8.08848728514e-09
1.79574439459e-08
1.69197435741e-07
6.4171110281e-07
9.87893024621e-07
4.55185681351e-07
5.65209615406e-07
8.16673935157e-07
2.58524350653e-07
1.35357477121e-07
6.84525248781e-08
4.26923984686e-08
4.03800573951e-08
5.06500512201e-08
6.45800034415e-08
7.50793183767e-08
8.40493726194e-08
8.74886636572e-08
5.92448785079e-08
1.78845286696e-08
6.97340879936e-09
2.43154844875e-08
1.79052477657e-07
1.01083825217e-06
2.4429553208e-06
6.05230585679e-07
5.71068656491e-07
7.12219834104e-07
1.70954103854e-07
8.11348941278e-08
4.08162818015e-08
3.13649064421e-08
3.93861522216e-08
5.41315270314e-08
6.65834133785e-08
7.31955459485e-08
7.53508603745e-08
7.04242546024e-08
4.68682858223e-08
1.25035938592e-08
7.23901957791e-09
3.55529442668e-08
2.2862919958e-07
1.56653900531e-06
2.76748877667e-06
1.04323505351e-06
5.62734046422e-07
7.12312103454e-07
1.07493117062e-07
4.49247237558e-08
2.44661959234e-08
2.73145426984e-08
4.00048707478e-08
5.42682706082e-08
6.40973164252e-08
6.72031212801e-08
6.44923739342e-08
5.41262972131e-08
2.986515833e-08
9.25060665195e-09
8.86658501916e-09
6.7329020571e-08
4.7116334985e-07
1.97092856472e-06
2.78858304532e-06
3.55697565283e-06
5.38142463326e-07
7.30877551883e-07
6.14850267413e-08
2.30259357101e-08
1.85010142831e-08
2.60731135878e-08
3.85108875978e-08
5.09665072374e-08
5.85895616309e-08
5.93354492811e-08
5.38781945045e-08
4.17251524386e-08
1.67324244814e-08
7.55766472329e-09
1.3573161298e-08
1.04497600611e-07
1.03102043853e-06
2.08859246363e-06
2.84184653222e-06
3.56302944765e-06
5.06774314141e-07
7.00553453897e-07
3.14724496698e-08
1.53374887344e-08
1.66897899872e-08
2.43041656573e-08
3.53808844306e-08
4.59783964398e-08
5.18494758694e-08
5.08087078386e-08
4.28993334344e-08
2.84701922158e-08
1.09018031586e-08
7.3815166461e-09
2.67779290563e-08
2.54543450134e-07
1.37492040591e-06
2.14654874286e-06
2.9322795933e-06
3.57443145003e-06
4.87813966472e-07
6.37694111375e-07
2.0245043277e-08
1.35162021861e-08
1.55714070481e-08
2.23229390759e-08
3.17316601732e-08
4.05149546946e-08
4.5027843484e-08
4.30369406064e-08
3.39215783925e-08
1.74409362578e-08
8.95732892959e-09
9.34408095152e-09
5.26919802979e-08
6.5252895916e-07
1.4734501215e-06
2.18040161834e-06
3.02688198681e-06
3.28373112504e-06
5.10092212355e-07
5.89961896989e-07
1.78952665263e-08
1.32228631528e-08
1.50692681439e-08
2.07272181955e-08
2.83755433605e-08
3.53217514803e-08
3.8565689986e-08
3.58282291639e-08
2.54270788786e-08
1.28426992182e-08
9.10323613447e-09
1.40412405794e-08
1.2649695731e-07
9.29759311825e-07
1.50984559882e-06
2.17111650459e-06
3.01069595984e-06
1.5244340807e-06
5.70318985318e-07
6.20743326527e-07
1.84263093067e-08
1.40702510986e-08
1.54235924281e-08
1.9915947729e-08
)
;

boundaryField
{
    emptyPatch
    {
        type            empty;
    }
    minY
    {
        type            calculated;
        value           nonuniform List<scalar> 0();
    }
    maxY
    {
        type            calculated;
        value           nonuniform List<scalar> 0();
    }
    water_to_cooler
    {
        type            nutkWallFunction;
        blending        stepwise;
        value           uniform 0;
    }
    water_to_heater
    {
        type            nutkWallFunction;
        blending        stepwise;
        value           uniform 0;
    }
    procBoundary1to0
    {
        type            processor;
        value           nonuniform List<scalar> 
41
(
7.18642351886e-06
5.7869472639e-06
4.01400092034e-06
2.44769181715e-06
1.66904720398e-06
1.53336205286e-06
1.56407665963e-06
1.51916353239e-06
1.41283509858e-06
1.31942977157e-06
1.25029891284e-06
1.16242856991e-06
1.03054006832e-06
8.59728455839e-07
6.52775116577e-07
4.23584297078e-07
2.47179712318e-07
1.41693446521e-07
7.67313653071e-08
3.82512867959e-08
2.57566587407e-08
3.08055962561e-08
3.27501978726e-08
2.9326059204e-08
1.84924921545e-08
1.22273040286e-08
1.07121084291e-08
2.98325148222e-08
3.58673184594e-07
1.01783340779e-06
1.52364717797e-06
2.13377917315e-06
2.87702561171e-06
5.89479554364e-07
5.74595452002e-07
1.01358505253e-06
2.2245005584e-08
1.65344370507e-08
1.69448064072e-08
2.57566587407e-08
2.00801880383e-08
)
;
    }
    procBoundary1to3
    {
        type            processor;
        value           nonuniform List<scalar> 
41
(
2.51747776851e-06
2.06455789949e-06
1.60693224159e-06
1.23560535567e-06
9.48652171229e-07
7.36398259103e-07
5.73997046232e-07
4.19393171924e-07
2.54789529914e-07
1.19175780736e-07
5.21800505361e-08
3.11903712886e-08
2.92883220236e-08
5.98456167842e-06
5.58112258445e-06
4.67880552604e-06
3.90385825415e-06
3.39718967736e-06
3.11849247165e-06
2.93677636101e-06
2.93677636101e-06
4.22778858386e-08
7.94658961248e-08
1.35402744848e-07
1.86996765831e-07
2.19130810975e-07
2.37622054719e-07
2.44620217534e-07
2.48857804939e-07
2.68462261373e-07
3.26979846895e-07
3.91889181826e-07
3.75277768802e-07
2.99656275097e-07
2.45306876345e-07
2.21937980777e-07
2.10685062934e-07
2.04240132019e-07
2.00809606611e-07
2.59385011338e-07
4.34815864245e-07
)
;
    }
}
