/*--------------------------------*- C++ -*----------------------------------*\
| =========                 |                                                 |
| \\      /  F ield         | OpenFOAM: The Open Source CFD Toolbox           |
|  \\    /   O peration     | Version:  2312                                  |
|   \\  /    A nd           | Website:  www.openfoam.com                      |
|    \\/     M anipulation  |                                                 |
\*---------------------------------------------------------------------------*/
FoamFile
{
    version     2.0;
    format      ascii;
    arch        "LSB;label=32;scalar=64";
    class       volScalarField;
    location    "0.045/water";
    object      d.gas;
}
// * * * * * * * * * * * * * * * * * * * * * * * * * * * * * * * * * * * * * //

dimensions      [0 1 0 0 0 0 0];

internalField   nonuniform List<scalar> 
6000
(
0.0049826440843
0.00498270178961
0.00498271288587
0.00498272112208
0.00498272741987
0.0049827328486
0.00498273771218
0.00498274214313
0.00498274607988
0.00498274952259
0.00498275249389
0.00498275507179
0.0049827573661
0.00498275946609
0.00498276142521
0.00498276326851
0.00498276500079
0.0049827666136
0.00498276808824
0.00498276940069
0.00498293523758
0.00498296877687
0.00498296289831
0.00498295795313
0.00498295808788
0.00498295855242
0.00498295932818
0.0049829604516
0.00498296209494
0.00498296414219
0.00498296624666
0.00498296825884
0.00498297024554
0.00498297227389
0.00498297434817
0.0049829764335
0.00498297847944
0.00498298043337
0.00498298224383
0.00498298386352
0.00498316861168
0.00498320536687
0.00498319658254
0.00498318668009
0.0049831834912
0.00498318122781
0.00498317976573
0.00498317923816
0.00498317953285
0.00498318055244
0.00498318207834
0.00498318380155
0.00498318561335
0.00498318755896
0.00498318965079
0.00498319184618
0.00498319407468
0.00498319626078
0.00498319833316
0.00498320023201
0.00498336818581
0.00498339905996
0.00498339166079
0.00498338642237
0.00498338774548
0.0049833892405
0.00498339056101
0.00498339192694
0.00498339343828
0.00498339529742
0.00498339757003
0.00498340001001
0.00498340246397
0.00498340494451
0.00498340746485
0.00498341000041
0.00498341250416
0.0049834149223
0.00498341720231
0.00498341930252
0.00498357111386
0.0049835962224
0.00498358677214
0.00498358496125
0.00498359008913
0.00498359506108
0.00498359911673
0.00498360242227
0.00498360560633
0.00498360916254
0.00498361300826
0.00498361682073
0.00498362047447
0.00498362396077
0.00498362727937
0.00498363041624
0.00498363335093
0.00498363606453
0.00498363854199
0.00498364077784
0.00498376290052
0.00498379047092
0.00498378568071
0.00498378845333
0.00498379734294
0.00498380515242
0.0049838108457
0.00498381528444
0.00498382013432
0.0049838257361
0.00498383136212
0.00498383661567
0.00498384144388
0.00498384585473
0.00498384986125
0.0049838534747
0.00498385670655
0.00498385957218
0.00498386209165
0.00498386429605
0.00498397622783
0.00498401297668
0.00498401555813
0.00498402109818
0.00498402867431
0.00498403312181
0.00498403571369
0.00498403894506
0.00498404450386
0.00498405124966
0.00498405767188
0.00498406340592
0.00498406847716
0.00498407293676
0.00498407683691
0.00498408022802
0.00498408315705
0.00498408566979
0.00498408781159
0.00498408963118
0.00498423121471
0.00498427952411
0.00498429161179
0.00498429539055
0.00498429401439
0.00498428844058
0.00498428442288
0.00498428412033
0.0049842874886
0.00498429222112
0.00498429667296
0.00498430056765
0.004984303916
0.00498430676916
0.00498430918289
0.00498431121235
0.00498431290877
0.00498431431895
0.00498431548632
0.0049843164525
0.0049845327936
0.00498458459283
0.00498459207247
0.0049845875919
0.00498457692798
0.00498456347841
0.00498455385549
0.00498454922612
0.00498454762752
0.00498454704386
0.00498454663773
0.0049845463273
0.00498454602962
0.00498454573326
0.00498454543102
0.00498454512757
0.00498454482928
0.00498454454279
0.0049845442747
0.00498454403244
0.00498482023548
0.00498486928528
0.00498486627944
0.00498485465689
0.00498484112533
0.00498482741707
0.00498481674448
0.00498481020112
0.00498480564868
0.00498480124583
0.00498479663396
0.00498479214661
0.00498478804487
0.00498478446303
0.00498478134952
0.00498477865654
0.00498477633863
0.00498477435258
0.00498477265807
0.00498477121942
0.00498505926982
0.00498510168142
0.00498508942786
0.00498507502888
0.00498506393156
0.00498505414025
0.00498504666772
0.00498504267485
0.00498504102931
0.00498503905219
0.0049850349578
0.00498502886646
0.00498502255602
0.00498501702434
0.00498501223713
0.00498500812254
0.00498500460273
0.00498500159663
0.00498499902844
0.00498499683117
0.00498525490735
0.00498528936645
0.00498527702354
0.00498526571011
0.0049852589594
0.00498525294727
0.00498524983797
0.00498525147809
0.00498525623193
0.00498525912341
0.00498525737602
0.00498525149246
0.00498524514959
0.00498523984833
0.00498523527775
0.0049852313658
0.00498522800703
0.00498522509578
0.00498522254256
0.00498522027593
0.00498543089899
0.00498546833956
0.00498546248264
0.00498545431675
0.00498544866649
0.00498544447482
0.00498544549765
0.00498545408476
0.00498546355388
0.00498546648175
0.0049854625856
0.00498545693191
0.00498545407349
0.00498545239424
0.00498545060408
0.00498544885633
0.00498544715342
0.00498544546013
0.00498544375028
0.00498544201182
0.00498562989935
0.00498566499677
0.00498565388214
0.00498564489503
0.00498564012285
0.00498563889086
0.0049856462022
0.00498566071853
0.00498567054825
0.00498566892099
0.00498566093547
0.0049856569873
0.00498565965075
0.00498566272574
0.0049856645319
0.00498566551671
0.00498566583268
0.00498566556356
0.00498566479006
0.00498566359269
0.00498584462302
0.00498587860783
0.00498586453701
0.00498585613908
0.0049858542025
0.0049858587284
0.00498587291022
0.00498588967891
0.00498589469344
0.00498588617969
0.00498587578713
0.0049858736384
0.00498587872125
0.0049858834533
0.004985886512
0.00498588837239
0.00498588920881
0.00498588914824
0.0049858883204
0.0049858868602
0.00498608914457
0.00498612606162
0.00498611261639
0.00498610658571
0.00498610827741
0.00498611702423
0.00498613430646
0.00498614830602
0.00498614504659
0.00498613040799
0.00498611781677
0.00498611439318
0.00498611757372
0.00498612001199
0.00498612097827
0.00498612088463
0.0049861198753
0.00498611807323
0.00498611560893
0.00498611261634
0.00498636367998
0.00498640284677
0.0049863926104
0.00498638847344
0.00498639245888
0.00498640502372
0.00498642267756
0.00498642890572
0.00498641780727
0.00498639952579
0.00498638432901
0.00498637716187
0.00498637432499
0.00498637071228
0.00498636639095
0.00498636164959
0.00498635656232
0.00498635119584
0.00498634562533
0.00498633993395
0.00498664903791
0.00498668862382
0.00498668554315
0.00498668270833
0.00498668866826
0.00498670145098
0.00498671243892
0.00498671122112
0.00498669715757
0.00498667834062
0.00498666154177
0.00498664918329
0.00498663810552
0.00498662669135
0.0049866154824
0.00498660472954
0.00498659445442
0.00498658463957
0.00498657526641
0.00498656633148
0.00498693489201
0.0049869667378
0.00498695522772
0.00498695036409
0.00498695447635
0.00498696260403
0.00498696801243
0.00498696478117
0.00498695204683
0.00498693463536
0.00498691802187
0.00498690313651
0.00498688805507
0.00498687209559
0.00498685620573
0.00498684094657
0.00498682652662
0.00498681300594
0.00498680037493
0.00498678860301
0.0049871748271
0.00498719684973
0.00498717711793
0.00498716941013
0.00498717130419
0.00498717747797
0.00498718254614
0.00498718023155
0.0049871688253
0.00498715259739
0.00498713689275
0.0049871232322
0.00498710982425
0.00498709479347
0.00498707884169
0.00498706274153
0.00498704696161
0.00498703181673
0.00498701749205
0.00498700407591
0.00498737441372
0.00498738891441
0.00498736588286
0.00498735750348
0.0049873597416
0.00498736661757
0.0049873722354
0.00498736978324
0.00498735725373
0.00498734247044
0.00498732839566
0.00498731710058
0.00498730716815
0.00498729564885
0.00498728256831
0.00498726855694
0.0049872540433
0.0049872394591
0.0049872251918
0.00498721152883
0.00498755903282
0.00498756901188
0.00498754659421
0.0049875388253
0.00498754200599
0.00498754932686
0.00498755477712
0.00498755133635
0.00498753978143
0.00498752642628
0.00498751238552
0.00498750168697
0.00498749360278
0.00498748457717
0.00498747404254
0.00498746246523
0.00498745007285
0.0049874371448
0.00498742405281
0.00498741117061
0.0049877405512
0.00498774731116
0.00498772890873
0.004987722183
0.00498772556602
0.00498773262328
0.00498773770634
0.00498773451017
0.00498772283673
0.00498770858979
0.00498769446799
0.00498768396955
0.00498767668569
0.00498766884924
0.00498765963221
0.00498764953539
0.00498763875204
0.00498762740441
0.00498761572823
0.00498760403595
0.00498793670983
0.00498793348099
0.00498790855959
0.00498790201207
0.00498790622842
0.0049879135412
0.0049879185984
0.00498791498364
0.00498790396385
0.00498789033272
0.00498787572343
0.00498786506195
0.00498785799129
0.00498785062251
0.00498784195531
0.00498783254526
0.00498782266605
0.00498781239976
0.0049878018856
0.00498779134178
0.00498813228533
0.00498811936085
0.00498808841784
0.00498808159503
0.00498808608354
0.00498809312058
0.0049880977373
0.00498809416932
0.00498808251144
0.00498806793624
0.00498805344861
0.00498804300227
0.00498803615345
0.00498802908309
0.00498802075763
0.00498801176524
0.0049880024772
0.00498799300008
0.00498798344016
0.00498797395096
0.00498832108103
0.00498830074852
0.00498826690023
0.00498825957577
0.00498826325497
0.00498826896893
0.00498827234468
0.00498826753351
0.00498825611167
0.00498824227326
0.00498822746969
0.00498821683276
0.00498820988291
0.00498820293837
0.0049881948838
0.00498818632567
0.00498817767193
0.00498816903874
0.00498816051025
0.00498815219096
0.00498849574577
0.00498847235446
0.00498843930199
0.00498843066864
0.00498843245106
0.00498843631986
0.00498843832712
0.00498843315626
0.0049884210981
0.00498840657638
0.00498839228427
0.00498838220361
0.00498837582481
0.00498836960334
0.00498836240497
0.00498835480303
0.00498834727564
0.00498833994191
0.00498833286577
0.00498832611469
0.00498862458789
0.0049886052907
0.00498858190189
0.00498857654112
0.0049885801032
0.00498858535497
0.00498858841951
0.00498858337628
0.00498857247915
0.00498855972208
0.00498854612238
0.00498853707778
0.00498853201246
0.00498852744489
0.00498852207755
0.00498851634491
0.00498851075549
0.00498850546326
0.00498850051858
0.00498849595656
0.00498875396199
0.00498873479648
0.00498870846884
0.00498870489854
0.00498871137155
0.00498871963387
0.0049887251917
0.00498872191624
0.00498871175518
0.00498869958693
0.00498868786295
0.00498868099217
0.00498867844293
0.00498867666384
0.00498867415936
0.00498867126404
0.0049886685184
0.00498866610477
0.00498866406795
0.00498866242113
0.00498885930055
0.00498884382697
0.00498881865702
0.00498881959658
0.0049888317006
0.00498884488597
0.00498885339133
0.00498885032444
0.00498884145237
0.00498883172922
0.00498882149207
0.00498881682786
0.00498881718896
0.00498881886666
0.00498882003172
0.00498882080465
0.00498882175893
0.00498882307391
0.0049888247794
0.00498882682058
0.00498897308692
0.00498896509786
0.00498893905788
0.00498893940424
0.00498895293233
0.00498896821851
0.00498897752746
0.00498897446478
0.00498896639844
0.00498895638956
0.00498894745192
0.00498894522021
0.00498894908394
0.0049889551316
0.00498896103581
0.00498896653051
0.00498897216815
0.00498897815859
0.00498898448495
0.00498899100492
0.00498905596753
0.00498905865612
0.00498903952264
0.00498904429939
0.00498906336367
0.00498908299756
0.00498909366016
0.0049890895889
0.00498908076461
0.00498907144416
0.00498906453446
0.00498906605561
0.00498907488298
0.004989087026
0.00498909933374
0.0049891110124
0.00498912258121
0.00498913430068
0.004989146143
0.00498915787092
0.00498915474264
0.00498917147548
0.0049891554388
0.00498915895591
0.00498917841151
0.00498919824567
0.00498920734262
0.00498920084346
0.00498919042107
0.00498918160563
0.00498917773424
0.00498918437556
0.00498919997828
0.00498922025056
0.00498924061881
0.00498925982688
0.00498927842847
0.00498929675444
0.0049893147249
0.00498933199186
0.00498924722723
0.00498927452472
0.00498925737918
0.0049892660412
0.00498929066128
0.00498931272834
0.00498932202811
0.00498931492372
0.00498930434481
0.00498929798266
0.00498929944429
0.00498931281995
0.00498933696714
0.00498936670563
0.00498939569268
0.00498942278897
0.00498944866123
0.00498947360176
0.00498949736442
0.00498951950272
0.00498934944188
0.00498939301432
0.0049893774999
0.00498939258333
0.00498941760698
0.00498943922216
0.00498945082419
0.00498944754612
0.00498943985797
0.00498943842855
0.00498944835014
0.00498947039145
0.00498950508066
0.00498954386077
0.00498958018582
0.00498961390831
0.00498964565166
0.00498967540769
0.00498970277782
0.00498972737851
0.00498947194119
0.00498953186948
0.00498952848479
0.00498955207694
0.00498957936156
0.00498960117248
0.00498961848948
0.00498962668506
0.00498962701683
0.00498963256776
0.0049896523575
0.00498968784063
0.00498973221192
0.00498977526448
0.00498981461154
0.00498985072696
0.00498988371997
0.00498991333828
0.00498993934723
0.00498996167673
0.0049896745759
0.00498975936532
0.00498977701304
0.00498980763971
0.0049898380385
0.00498986704186
0.00498989466616
0.00498991229732
0.00498992214891
0.00498993601565
0.00498996633846
0.00499000844892
0.00499005039157
0.00499008777321
0.00499012079436
0.00499014964028
0.00499017430918
0.00499019488473
0.00499021156817
0.00499022469745
0.00499023578718
0.00499034805617
0.00499036934461
0.00499039075578
0.0049904170074
0.00499044766909
0.00499046850086
0.00499046853679
0.00499045195051
0.00499044062136
0.00499044660667
0.00499046360195
0.00499048158642
0.00499049608615
0.00499050634406
0.00499051274231
0.00499051590311
0.00499051638196
0.00499051464922
0.00499051115121
0.00499138635253
0.00499148450858
0.00499146993708
0.00499145083715
0.00499142642161
0.00499139946221
0.00499136326149
0.00499131432044
0.00499126209828
0.00499121008188
0.00499115088441
0.00499108752023
0.00499103332259
0.00499099090434
0.00499095420343
0.00499092038731
0.00499088888177
0.00499085953323
0.00499083218904
0.00499080671083
0.00499202728267
0.00499202508144
0.00499199166952
0.00499197293418
0.00499195164221
0.00499191818927
0.00499187704341
0.00499183709896
0.00499180174868
0.00499176833003
0.00499172889863
0.00499166523369
0.00499156937028
0.00499146921399
0.00499138399711
0.00499131058801
0.0049912455542
0.00499118751754
0.00499113564642
0.00499108919722
0.00499206037032
0.0049920495052
0.00499204968236
0.00499204967034
0.00499204959591
0.00499204573011
0.00499202954183
0.0049920041948
0.0049919787866
0.00499195580665
0.00499193511205
0.00499191178965
0.00499186997799
0.00499179322527
0.00499169970891
0.0049916117222
0.00499153207855
0.00499145982115
0.00499139443474
0.00499133550165
0.00499208353222
0.00499206778845
0.00499206814524
0.00499206848929
0.00499206886945
0.00499206927365
0.00499206712495
0.00499205893111
0.00499204598441
0.00499203134685
0.00499201596017
0.00499199982059
0.00499197824772
0.00499194042346
0.00499187806954
0.00499180323176
0.00499172953836
0.00499165985278
0.00499159454133
0.00499153395726
0.00499211114257
0.00499208796958
0.00499208861539
0.00499208911295
0.00499208956255
0.00499208996784
0.00499209034926
0.0049920893213
0.00499208411942
0.00499207601962
0.00499206564252
0.00499205292041
0.00499203690214
0.00499201254834
0.00499197223594
0.00499191724043
0.00499185746187
0.00499179845365
0.0049917413257
0.00499168661836
0.00499214118899
0.00499211461416
0.00499211082883
0.00499211116835
0.00499211154172
0.00499211192491
0.0049921119248
0.00499211251549
0.00499211076728
0.00499210678646
0.00499210027329
0.00499209108254
0.00499207860988
0.00499206066426
0.00499203287278
0.00499199322207
0.00499194658358
0.00499189875551
0.00499185149166
0.00499180521971
0.00499216270307
0.00499214109948
0.00499213182056
0.00499213212056
0.00499213246636
0.00499213285447
0.00499213254467
0.00499213377162
0.0049921353042
0.00499213499826
0.00499213124971
0.00499212416406
0.00499211372534
0.00499209956071
0.0049920791292
0.00499205040063
0.00499201496541
0.0049919770825
0.00499193889627
0.00499190103136
0.00499217474932
0.00499216336505
0.00499215074997
0.00499215103014
0.00499215139081
0.00499215175605
0.00499215112557
0.00499215200248
0.00499215619142
0.00499215990419
0.00499215965461
0.00499215444044
0.00499214533015
0.0049921335431
0.00499211779104
0.00499209699893
0.00499207100944
0.00499204204878
0.00499201208434
0.00499198197845
0.00499217853248
0.00499217933767
0.00499216738571
0.00499216780744
0.0049921682027
0.00499216856538
0.0049921673083
0.00499216732092
0.00499217320936
0.00499218098752
0.00499218499696
0.0049921820865
0.00499217428031
0.00499216411466
0.0049921516554
0.00499213712888
0.00499211948057
0.0049920987958
0.00499207647322
0.0049920535765
0.00499218245003
0.0049921949139
0.00499218504276
0.00499218391643
0.00499218413291
0.00499218437634
0.00499218244746
0.00499218233653
0.00499218955955
0.00499220133862
0.00499220992984
0.00499220971484
0.00499220330545
0.00499219464346
0.00499218504873
0.00499217586083
0.00499216548697
0.00499215223135
0.00499213681258
0.00499212044201
0.00499220043336
0.00499221564264
0.00499220219343
0.00499219802741
0.00499219819902
0.00499219838834
0.00499219634575
0.00499219790111
0.00499220799785
0.00499222497981
0.00499223859395
0.00499224141581
0.00499223665231
0.00499222951352
0.00499222262424
0.0049922181011
0.00499221382886
0.00499220688663
0.00499219738721
0.0049921865958
0.00499224813381
0.00499225565975
0.00499223667442
0.00499222928619
0.00499222807776
0.00499222750305
0.00499222654099
0.00499222981609
0.00499224285039
0.00499226340451
0.00499227901424
0.00499228308405
0.00499227912502
0.00499227295904
0.00499226845668
0.0049922677291
0.00499226835688
0.00499226640307
0.00499226160806
0.0049922552752
0.0049922957596
0.00499230829606
0.00499229382642
0.00499228751259
0.00499228546301
0.00499228437616
0.00499228427112
0.00499228885817
0.00499230303298
0.0049923226198
0.00499233635013
0.00499233946654
0.00499233499889
0.0049923290948
0.00499232649533
0.0049923287096
0.0049923326371
0.00499233376326
0.00499233206601
0.00499232881712
0.00499238430286
0.00499239742552
0.00499237945987
0.00499237122865
0.0049923689577
0.00499236829906
0.00499236880924
0.00499237369649
0.00499238649003
0.0049924020731
0.00499241170857
0.00499241174213
0.00499240592884
0.00499240014882
0.00499239890373
0.00499240276329
0.00499240786157
0.0049924100609
0.00499240982636
0.00499240826941
0.00499245705058
0.00499247557237
0.00499246654556
0.00499246327077
0.00499246481442
0.00499246694076
0.00499246946592
0.00499247484846
0.004992485027
0.00499249535948
0.0049924995847
0.00499249635441
0.00499248920473
0.00499248366616
0.00499248326589
0.00499248762175
0.00499249226927
0.00499249419638
0.00499249425837
0.00499249334133
0.00499258092207
0.00499259654422
0.00499257842611
0.00499257380029
0.0049925758797
0.00499257872442
0.00499258120619
0.00499258459497
0.00499258996517
0.00499259426797
0.00499259364482
0.0049925878115
0.00499257989336
0.00499257526844
0.00499257563369
0.00499257961997
0.00499258297143
0.00499258402883
0.00499258378803
0.00499258291352
0.00499267308585
0.00499268952306
0.00499267417565
0.00499267428055
0.00499268056023
0.00499268610797
0.00499268938171
0.00499269113929
0.00499269284046
0.00499269272779
0.00499268885714
0.00499268160035
0.004992674678
0.0049926714354
0.0049926722285
0.00499267529411
0.00499267717389
0.00499267731764
0.00499267663541
0.0049926756076
0.00499278590887
0.00499280346231
0.00499278328065
0.00499278071994
0.0049927857454
0.0049927904518
0.00499279252975
0.00499279238867
0.0049927909259
0.00499278768714
0.00499278200692
0.00499277528215
0.0049927705007
0.00499276854715
0.00499276963607
0.00499277180905
0.00499277262131
0.00499277220235
0.00499277128052
0.00499277020482
0.00499285374803
0.00499287704794
0.00499286572448
0.0049928674681
0.00499287561203
0.00499288244396
0.00499288559563
0.0049928851861
0.00499288238902
0.00499287802975
0.00499287259881
0.0049928680631
0.00499286531262
0.00499286463833
0.0049928660956
0.00499286777015
0.00499286814495
0.00499286764785
0.004992866832
0.00499286595528
0.00499294831092
0.00499297774651
0.00499296781977
0.00499296718303
0.00499297316884
0.00499297838597
0.00499298013827
0.00499297810306
0.00499297359551
0.00499296801731
0.00499296359225
0.00499296092184
0.00499295955365
0.0049929599018
0.00499296175696
0.00499296330513
0.00499296373883
0.0049929635409
0.00499296312656
0.00499296267542
0.00499303313109
0.00499306324421
0.00499305278889
0.00499305473981
0.00499306287962
0.0049930693066
0.00499307138988
0.00499306885163
0.00499306339875
0.00499305805046
0.00499305524929
0.00499305400342
0.00499305385695
0.00499305522192
0.00499305754913
0.00499305924967
0.00499306003882
0.0049930603549
0.00499306051021
0.00499306060604
0.00499313112803
0.00499316319713
0.00499314787345
0.00499314845722
0.00499315626758
0.00499316250054
0.00499316413683
0.00499316084468
0.00499315494646
0.0049931504222
0.00499314891644
0.00499314877958
0.00499314968936
0.00499315197631
0.00499315470529
0.0049931566689
0.00499315791743
0.00499315880953
0.00499315955983
0.00499316019303
0.00499321881431
0.00499325241535
0.00499323801216
0.00499323970035
0.00499324889539
0.00499325620804
0.00499325826529
0.00499325491528
0.00499324929828
0.00499324586272
0.00499324530228
0.00499324605599
0.00499324798768
0.00499325112704
0.00499325421495
0.00499325650605
0.00499325822389
0.00499325964231
0.00499326088013
0.00499326191138
0.00499331242273
0.00499334989765
0.00499333688234
0.00499333888402
0.00499334880628
0.00499335654889
0.00499335833247
0.00499335451058
0.00499334892226
0.00499334599385
0.00499334583774
0.004993347215
0.00499335010177
0.00499335394671
0.00499335729778
0.00499335984703
0.00499336188089
0.00499336359352
0.00499336503435
0.0049933661701
0.00499341728827
0.00499345658992
0.00499344918702
0.00499345215894
0.0049934620059
0.00499346895819
0.00499346941824
0.00499346436468
0.00499345840686
0.00499345522971
0.00499345457872
0.00499345581323
0.00499345897513
0.00499346274933
0.00499346576485
0.00499346804851
0.00499346986003
0.00499347131488
0.00499347242946
0.00499347318935
0.00499354815573
0.00499358426039
0.0049935724463
0.00499357626924
0.00499358657974
0.00499359282528
0.00499359187839
0.00499358574914
0.00499357964857
0.00499357586657
0.00499357407694
0.0049935744646
0.00499357671963
0.00499357909972
0.00499358072483
0.00499358180336
0.00499358251122
0.00499358289992
0.00499358297972
0.00499358275593
0.00499369974191
0.00499373428933
0.00499371912699
0.00499372243772
0.00499373172802
0.00499373532764
0.0049937310881
0.00499372250352
0.00499371416755
0.00499370799982
0.00499370388616
0.00499370209011
0.00499370199332
0.00499370186451
0.00499370115527
0.00499370010341
0.00499369882847
0.00499369736785
0.00499369574495
0.00499369397856
0.00499385687376
0.00499388910842
0.00499387359704
0.00499387612912
0.00499388372913
0.00499388551749
0.00499387925595
0.00499386874076
0.00499385827831
0.00499384913788
0.00499384152444
0.0049938358453
0.00499383176791
0.00499382793711
0.00499382399227
0.00499382007381
0.0049938162223
0.00499381244869
0.00499380876678
0.00499380518786
0.00499397996891
0.00499401385408
0.00499400309501
0.00499400573848
0.00499401273373
0.00499401610351
0.00499401257351
0.00499400436904
0.00499399475947
0.00499398478415
0.00499397510218
0.00499396637815
0.00499395839481
0.00499395081593
0.00499394365287
0.00499393696828
0.00499393071641
0.00499392485426
0.00499391935587
0.0049939142039
0.00499407726432
0.00499411478306
0.00499410996267
0.00499411231118
0.00499411816224
0.00499412166472
0.00499411969332
0.00499411348096
0.00499410548375
0.00499409682868
0.0049940881552
0.00499408001872
0.00499407141611
0.00499406261839
0.00499405415471
0.00499404623153
0.00499403882885
0.00499403190686
0.00499402543765
0.00499401940433
0.00499417569301
0.00499421064521
0.00499420094727
0.00499420235518
0.00499420710108
0.00499420941186
0.0049942067817
0.00499420071798
0.00499419367668
0.00499418671525
0.0049941801575
0.00499417440451
0.00499416814006
0.00499416105321
0.00499415371418
0.00499414650329
0.00499413952009
0.00499413279791
0.00499412636781
0.00499412026291
0.00499427087267
0.00499430366164
0.00499428949518
0.00499428937729
0.00499429289201
0.00499429395877
0.00499429025219
0.00499428360559
0.00499427665684
0.00499427041636
0.00499426492443
0.00499426045814
0.00499425626732
0.00499425139845
0.00499424592385
0.00499424018084
0.00499423435391
0.00499422852314
0.0049942227624
0.00499421714683
0.00499435541195
0.00499438904665
0.00499437524554
0.00499437494365
0.00499437814266
0.00499437907657
0.00499437535977
0.00499436876106
0.0049943619175
0.00499435592218
0.00499435072505
0.00499434644182
0.00499434301915
0.00499433944941
0.00499433529693
0.0049943307137
0.00499432591987
0.00499432099785
0.00499431601894
0.00499431106323
0.00499443698946
0.00499447377455
0.00499446245015
0.00499446186112
0.00499446456552
0.00499446528093
0.00499446156143
0.00499445509753
0.00499444847565
0.00499444273106
0.00499443775971
0.00499443350667
0.00499443026577
0.00499442731304
0.00499442391478
0.00499442004432
0.0049944159466
0.0049944117039
0.00499440737053
0.00499440301325
0.00499451320533
0.0049945548622
0.00499455003607
0.00499455025125
0.00499455264785
0.00499455293717
0.00499454884375
0.00499454215879
0.00499453551484
0.00499452991496
0.00499452513434
0.00499452091483
0.00499451768485
0.00499451501883
0.00499451206254
0.00499450864097
0.00499450500848
0.00499450125853
0.00499449743126
0.00499449357672
0.00499460927336
0.00499464840822
0.00499463839818
0.00499463790888
0.00499463987062
0.00499463975408
0.00499463531822
0.00499462840587
0.00499462173494
0.0049946162997
0.00499461171559
0.00499460760297
0.00499460442586
0.00499460197303
0.00499459936747
0.00499459631525
0.00499459307129
0.0049945897465
0.00499458637082
0.00499458297949
0.00499470237804
0.00499473895187
0.00499472507144
0.00499472365246
0.00499472513737
0.00499472473052
0.00499472009329
0.00499471302489
0.00499470633936
0.00499470102537
0.0049946966139
0.00499469269845
0.00499468970752
0.00499468756127
0.00499468537786
0.00499468276379
0.00499467997193
0.00499467711705
0.0049946742264
0.00499467132528
0.00499478426429
0.00499482096041
0.00499480680277
0.00499480513322
0.00499480643209
0.00499480606291
0.00499480158259
0.00499479469644
0.00499478825609
0.00499478327453
0.00499477924799
0.00499477568935
0.00499477308097
0.00499477145124
0.00499476989306
0.00499476790818
0.00499476571591
0.00499476344256
0.00499476112069
0.00499475877159
0.00499485749073
0.00499489748689
0.00499488639439
0.00499488490881
0.00499488599595
0.00499488549898
0.00499488104348
0.00499487433137
0.00499486822785
0.00499486372557
0.00499486024469
0.00499485720745
0.00499485511384
0.00499485414735
0.00499485340046
0.00499485217877
0.00499485067631
0.00499484906319
0.0049948473678
0.00499484561282
0.00499492900513
0.00499497390285
0.00499496849848
0.00499496753926
0.00499496822184
0.00499496711224
0.00499496206547
0.00499495497548
0.00499494881835
0.00499494451735
0.00499494142744
0.00499493885619
0.00499493723326
0.00499493691281
0.00499493689425
0.00499493635962
0.00499493550961
0.00499493452203
0.00499493343122
0.00499493225104
0.00499502165908
0.00499506317188
0.00499505246685
0.00499505093962
0.00499505121376
0.00499504954738
0.00499504398989
0.00499503660173
0.00499503041256
0.00499502631897
0.00499502361083
0.00499502146854
0.00499502030534
0.00499502050693
0.00499502104902
0.00499502109299
0.00499502080566
0.00499502035211
0.00499501977794
0.00499501909288
0.00499511384002
0.00499515353285
0.00499513921865
0.0049951368515
0.00499513656325
0.00499513436581
0.00499512835303
0.00499512064414
0.00499511431091
0.00499511030973
0.00499510783464
0.00499510593096
0.00499510501166
0.00499510552495
0.00499510645371
0.00499510690643
0.00499510702291
0.00499510696596
0.00499510677435
0.00499510646352
0.00499520283188
0.00499524244826
0.0049952279378
0.00499522487769
0.0049952240773
0.00499522152995
0.00499521524847
0.0049952073061
0.00499520086132
0.00499519691142
0.0049951945549
0.00499519272482
0.00499519185886
0.00499519245759
0.00499519352813
0.00499519414858
0.00499519445455
0.00499519460837
0.00499519464157
0.00499519456214
0.00499528727117
0.00499532945053
0.00499531767549
0.00499531439535
0.00499531327088
0.00499531055213
0.00499530416734
0.00499529610019
0.0049952896222
0.00499528569838
0.00499528338256
0.0049952815412
0.00499528063412
0.00499528117074
0.00499528218289
0.00499528277724
0.00499528309713
0.00499528330005
0.00499528341209
0.00499528343403
0.00499536880465
0.00499541520842
0.00499540914289
0.00499540642002
0.00499540508476
0.00499540215287
0.00499539554111
0.00499538716046
0.00499538039582
0.0049953762567
0.00499537380446
0.00499537183631
0.00499537079202
0.00499537115229
0.00499537198177
0.00499537244749
0.00499537268988
0.00499537285235
0.00499537295416
0.00499537299584
0.00499547125085
0.00499551340785
0.00499550190782
0.00499549830423
0.00499549647988
0.00499549320519
0.00499548645903
0.00499547797443
0.00499547107518
0.00499546693607
0.00499546451721
0.00499546255047
0.00499546145408
0.00499546168952
0.00499546237467
0.00499546273577
0.0049954629063
0.00499546301917
0.00499546309175
0.00499546312356
0.00499557104446
0.00499560999434
0.00499559466544
0.0049955899968
0.00499558759588
0.00499558386601
0.00499557689112
0.00499556830512
0.00499556143589
0.00499555745437
0.00499555520663
0.00499555335773
0.00499555230373
0.00499555250847
0.0049955531409
0.00499555346209
0.00499555359831
0.00499555367937
0.00499555372734
0.00499555373958
0.0049956625279
0.00499570126278
0.00499568614828
0.00499568112487
0.00499567842398
0.00499567440903
0.00499566732282
0.00499565875909
0.00499565209014
0.00499564835592
0.00499564636378
0.00499564468367
0.00499564369865
0.00499564388935
0.0049956444757
0.00499564474782
0.00499564483107
0.00499564485731
0.00499564485345
0.00499564482145
0.00499575188439