/*--------------------------------*- C++ -*----------------------------------*\
| =========                 |                                                 |
| \\      /  F ield         | OpenFOAM: The Open Source CFD Toolbox           |
|  \\    /   O peration     | Version:  2312                                  |
|   \\  /    A nd           | Website:  www.openfoam.com                      |
|    \\/     M anipulation  |                                                 |
\*---------------------------------------------------------------------------*/
FoamFile
{
    version     2.0;
    format      ascii;
    arch        "LSB;label=32;scalar=64";
    class       volScalarField;
    location    "0.22/water";
    object      T.gas;
}
// * * * * * * * * * * * * * * * * * * * * * * * * * * * * * * * * * * * * * //

dimensions      [0 0 0 1 0 0 0];

internalField   nonuniform List<scalar> 
750
(
745.729020216
716.593191323
687.664774983
658.762723942
630.135776552
602.089178045
574.909572732
548.818396492
523.978873156
500.503712304
478.474086639
457.965280841
439.049932494
421.754987374
406.011372216
391.689258812
378.724270378
367.225595842
357.400325581
349.372664427
712.09047506
679.201103199
649.519173962
620.553820359
593.303323875
567.410457136
542.932874156
520.050021182
498.935175701
479.460544269
461.114799856
443.31297484
426.307684928
410.585694238
396.410702732
384.34022587
373.903738524
364.406734051
355.179412891
347.009842513
706.782601992
672.992172858
642.6034785
612.792363566
584.857150427
558.386929913
533.330549965
509.695888886
487.69613324
467.464615375
448.923107131
431.753963209
415.52102063
400.25133113
386.489835448
374.448176168
363.732307112
353.973578215
345.343328434
338.469237719
706.558691973
673.387522677
643.45196442
613.921308635
586.205013058
559.948456796
535.117016127
511.657260119
489.62330031
468.889939778
448.780181323
428.56459515
410.178351943
394.861028637
380.961033731
368.794605151
357.919900979
348.62886609
340.687780203
334.392939207
701.372910805
675.009760404
650.110592596
625.337994838
601.728172619
579.047299652
557.412444912
536.801721441
517.168130417
498.369616413
480.344056787
463.158169145
446.809061014
431.475468823
416.912271688
403.120487817
390.354915987
378.969600873
368.696479742
359.459842983
700.778176951
673.067326566
647.822289954
622.900076524
599.143063501
576.347867503
554.627235159
533.953244065
514.317819087
495.725239897
478.205880866
461.623919148
445.761453834
430.820270839
416.792124493
403.77874694
391.712317899
380.690840238
370.650395473
361.719568999
735.103243092
700.862854638
668.327145746
636.821098875
606.520361727
577.49649593
549.913246039
523.906611169
499.597046064
477.064103815
456.318819617
437.280497652
419.757870348
403.453361382
388.325498288
374.77906854
362.949827717
352.937788141
344.64287348
337.938960826
760.064795027
725.250295239
690.15757281
655.037953023
620.17180641
585.903930165
552.626743411
520.720849787
490.531084701
462.381770408
436.556888841
413.228770831
392.34642294
373.887715789
357.945508695
344.744503303
334.414728593
326.742065262
321.168146502
317.140277737
782.768676397
741.306997447
700.434356856
660.619053772
622.171037655
585.304237476
550.189749132
516.968311389
485.798022211
457.197589425
431.667031892
409.300582112
389.665475339
371.551730305
353.887880286
337.791522881
325.545721304
317.148500499
311.50112836
307.717774338
785.993757221
745.521287565
705.594440244
666.643810849
629.006161125
592.928883588
558.596909331
526.179384305
495.865328638
467.939073295
442.901517141
420.867853562
401.856227215
384.763391529
367.088170766
347.622074653
330.227915853
318.024445433
310.572264832
306.401548314
786.460337517
747.270412612
708.628850222
670.886556689
634.299976079
599.118868573
565.57715036
533.810593153
503.811168319
475.900500803
450.823528633
429.03986575
410.298667331
393.933557434
379.125201995
365.481913124
352.806386108
339.656223268
324.745728038
314.265933534
785.632170216
747.926119409
710.731518362
674.133013541
638.47443186
604.134857454
571.418115393
540.436331086
511.145923622
483.565794226
458.034346238
435.145422127
415.264774515
398.219612307
383.547053637
370.79553175
359.707821522
350.32195122
342.535227394
335.4913092
774.596526303
741.136720626
707.777853807
674.783616491
642.340709676
610.694049561
580.092552371
550.585247125
522.021787146
494.406423527
468.023837719
443.593575314
422.078050956
404.262389789
389.740929724
377.264939858
366.256048384
356.636683009
348.413789896
341.511353584
744.445123762
709.845527646
676.869029834
645.937117278
617.033421787
589.965957814
564.287628442
538.887672202
511.964512683
482.260319461
453.223542748
426.728365298
404.294464812
390.634691304
381.091026378
371.915216968
363.128383797
354.974506206
347.574972469
341.204444156
705.554645929
675.681524068
646.470027122
618.557530802
591.457001066
565.934353379
541.111949511
517.304514281
493.278486363
469.165116795
442.52229394
415.672550576
396.421920322
382.500548785
369.855034271
358.936777075
349.816369597
342.293331193
336.199335555
330.931627895
706.583817486
673.639409389
642.271704985
611.344257691
581.347660141
550.553298496
520.107047233
486.807997243
457.960591191
438.450630898
420.892992293
402.296148889
383.912341426
367.581687594
353.801146431
342.234209353
332.68964902
324.589744804
317.546382894
311.502310938
756.610037649
719.38209321
681.349171062
642.455868623
603.151509499
564.295122123
526.953642224
491.966707809
459.572391064
430.237462121
405.622563679
385.960965141
369.769791791
356.179903537
344.623263574
334.717074367
326.435693864
319.685641652
314.364434103
310.333322614
782.801108967
739.954316402
697.62095633
656.045510435
615.534176847
576.525706133
539.537263965
505.017603482
473.250537281
444.530696311
419.080106352
397.274614023
379.230683339
364.925952265
353.810359603
345.487696255
338.7106348
332.803756906
327.5652571
322.984850158
780.549520191
740.575837121
700.996657758
662.179892362
624.4307126
588.082078893
553.49143133
520.984604922
490.838462636
463.268782023
438.477743442
416.623758927
397.861996133
382.229289449
369.557692243
359.338168154
351.007081486
344.008975829
338.020950066
332.982995533
775.446141484
738.852256798
702.368167641
666.444611783
631.412260889
597.557995514
565.168216943
534.516235319
505.820763172
479.254849894
454.978162345
433.149734877
413.907830163
397.304971756
383.230554367
371.43809515
361.571903482
353.254657232
346.176941825
340.167919198
779.067185868
741.319465488
703.792449349
666.949957006
631.225553886
597.003360338
564.596207511
534.243199685
506.086722689
480.196157963
456.598175356
435.3176426
416.404816714
399.867899725
385.630133608
373.545043545
363.394236659
354.885909922
347.701891303
341.584846698
783.142882147
743.455769905
704.133003761
665.66438348
628.551768239
593.234797234
560.050455466
529.23656063
500.891838807
475.008039534
451.555104315
430.516199523
411.862837078
395.547314326
381.487447865
369.548787719
359.522716026
351.13225825
344.081698127
338.111595895
784.247544871
744.031694677
704.293184383
665.531721589
628.186167963
592.639676508
559.193550781
528.045328916
499.280531344
472.908747031
448.940968074
427.377208088
408.278115907
391.555431889
377.102916921
364.75217891
354.256014008
345.334095463
337.741491092
331.214526362
784.68276651
744.281462578
704.399280126
665.613662067
628.382226104
593.038484446
559.788029155
528.743079513
499.95006734
473.421335152
449.229414976
427.433164929
408.015620619
390.981605338
376.291121929
363.843008135
353.478142851
344.992980287
338.122872144
332.558355498
784.807355887
743.867828458
703.42678115
664.11375723
626.432579797
590.734439041
557.21311533
525.941221506
496.918927389
470.294885811
446.016097449
424.096282679
404.586988
387.50449559
372.816506402
360.435635545
350.208979158
341.836665974
334.808198839
328.148267876
784.773502101
743.618978944
703.019607895
663.54844032
625.687587816
589.812802998
556.157899107
524.815352892
495.780937448
469.12651161
444.880922686
423.022522942
403.581906606
386.597138482
372.076263189
359.98938195
350.223866663
342.164291849
334.915732282
326.880048827
784.685119748
743.204563907
702.324249145
662.595492283
624.479118386
588.355414262
554.486508885
522.979138936
493.836151502
467.075822323
442.799033738
420.965407857
401.538681464
384.513175337
369.888837113
357.657571124
347.687469517
339.028984694
330.751860462
319.435584778
784.722166688
743.542825536
703.032697575
663.721766404
626.034871633
590.317889296
556.824108471
525.668313525
496.8652785
470.416399144
446.337870872
424.615534736
405.185287121
387.953658856
372.771779183
359.482074654
347.747902624
336.742475439
326.753004949
318.328411092
785.293095919
746.182032648
707.835217433
670.725474648
635.201258546
601.516630702
569.84070348
540.255682635
512.771782725
487.384574362
464.104827069
442.942545391
423.890171532
406.918752544
391.983960134
379.041020209
368.065102896
359.082434887
352.179426952
346.679859323
785.725382886
747.96561471
710.959254643
675.167870062
640.92986235
608.482786374
577.96155235
549.413143614
522.841804843
498.241442211
475.605125878
454.943338536
436.273202471
419.589615024
404.856019313
392.016232981
380.998717961
371.722556008
364.009723591
357.522655736
786.114373538
749.215532384
713.026855009
677.977086567
644.385900553
612.482332721
582.397347912
554.190381489
527.881678925
503.467015111
480.951228254
460.370680167
441.768638165
425.149026825
410.459097993
397.604775309
386.483626022
377.001040928
369.033172652
362.345450009
786.2826843
749.717261817
713.762693316
678.842826297
645.286196107
613.329711243
583.119630721
554.742204708
528.237595557
503.617724199
480.913363394
460.187173508
441.493443319
424.825521796
410.105093674
397.221075087
386.069212253
376.565459892
368.614917497
361.994184787
785.946638717
749.546596268
713.678320293
678.750587532
645.092800873
612.952470274
582.503897723
553.863264159
527.094552612
502.23529027
479.333740918
458.448195019
439.611528534
422.799119732
407.928148868
394.907344435
383.650778936
374.085899524
366.140281161
359.60981388
785.891268172
749.725310421
713.990694717
679.086825215
645.370097426
613.103490439
582.482783559
553.647107946
526.680499616
501.636114102
478.561798582
457.498848804
438.4595559
421.414595788
406.30316481
393.051600163
381.583352463
371.833759194
363.752034086
357.196855739
786.432904776
750.572385515
715.046952163
680.281608897
646.653063266
614.435566077
583.820937699
554.939464811
527.878238087
502.696287203
479.431642803
458.115749677
438.769908162
421.382067466
405.908385163
392.284181505
380.433214478
370.287619066
361.812080377
354.97583448
786.95028021
751.925211949
717.246418463
683.244997725
650.236479916
618.482473684
588.176441561
559.458858265
532.430427541
507.166536072
483.725990756
462.142759213
442.429473227
424.576354173
408.546474661
394.282419955
381.723243246
370.819647302
361.579792751
354.07361378
787.200840444
753.051734526
719.20162129
685.942388218
653.574531264
622.363297416
592.505780305
564.154589578
537.429056511
512.428525315
489.23540377
467.891448313
448.36569767
430.56152081
414.36740026
399.704931547
386.541381167
374.864679916
364.726769581
356.358440965
318.587013698
317.029459824
313.204261726
311.024627726
320.379511071
322.180704161
312.974167051
304.299024733
301.668435519
301.145809919
)
;

boundaryField
{
    emptyPatch
    {
        type            empty;
    }
    minY
    {
        type            fixedValue;
        value           uniform 300;
    }
    maxY
    {
        type            inletOutlet;
        inletValue      nonuniform List<scalar> 0();
        value           nonuniform List<scalar> 0();
    }
    maxX
    {
        type            fixedValue;
        value           nonuniform List<scalar> 0();
    }
    water_to_heater
    {
        type            copiedFixedValue;
        sourceFieldName T.liquid;
        value           nonuniform List<scalar> 
59
(
795.435460638
795.487162277
795.575377216
795.584792519
795.616754922
795.621245316
795.678428213
795.716467261
795.685054803
795.575692702
795.557227775
795.650731704
796.373020006
797.080207375
797.628213915
797.791146004
797.921683099
797.854749719
797.940817898
797.441011839
797.161578783
796.745785203
796.25591635
796.377066189
796.452531936
796.403338994
796.747294726
797.505489174
797.507045599
797.374453611
796.995645884
796.775443973
796.8534695
797.054124081
797.292408448
797.356855703
797.32040272
797.349815456
797.210819324
797.227658025
797.309467377
797.307243546
797.364596449
797.365472319
797.366236583
797.381588485
797.33551853
797.34695948
797.439164972
797.443594866
797.456243137
797.431435114
797.442088335
797.433777084
797.485718438
797.512635231
797.592678694
797.59932633
797.552926826
)
;
    }
    procBoundary0to1
    {
        type            processor;
        value           nonuniform List<scalar> 
38
(
301.373927387
302.563109284
312.038367916
319.206876148
305.471884081
302.169264053
303.063199979
306.788589996
312.138559179
314.661741126
313.677271026
310.918424106
308.867100676
308.620211449
306.803256282
303.633884007
302.684117695
304.600501255
319.452320516
328.085956054
331.864367849
331.830111893
330.213666709
328.402450127
326.274746594
323.801133036
322.450058604
306.707835748
305.790197964
304.117041916
303.351768588
307.007927099
307.008158008
303.970434975
301.346873503
300.540018496
300.358765517
301.373927387
)
;
    }
    procBoundary0to3
    {
        type            processor;
        value           nonuniform List<scalar> 
20
(
783.681569321
752.535098683
721.557406025
690.958269504
661.021978949
632.014238783
604.151535515
577.657265705
552.793732463
529.716412157
508.457102302
488.929482752
470.897261925
454.036099461
438.120290978
423.087455494
408.989739693
395.932567145
384.104316184
373.812643146
)
;
    }
}


// ************************************************************************* //
