/*--------------------------------*- C++ -*----------------------------------*\
| =========                 |                                                 |
| \\      /  F ield         | OpenFOAM: The Open Source CFD Toolbox           |
|  \\    /   O peration     | Version:  2312                                  |
|   \\  /    A nd           | Website:  www.openfoam.com                      |
|    \\/     M anipulation  |                                                 |
\*---------------------------------------------------------------------------*/
FoamFile
{
    version     2.0;
    format      ascii;
    arch        "LSB;label=32;scalar=64";
    class       volScalarField;
    location    "0.405/water";
    object      T.gas;
}
// * * * * * * * * * * * * * * * * * * * * * * * * * * * * * * * * * * * * * //

dimensions      [0 0 0 1 0 0 0];

internalField   nonuniform List<scalar> 
6000
(
355.855344159
324.318529965
310.581627793
304.395918098
301.878016574
300.392896836
300.016010966
300.000082716
300.000000051
300
300
300
300
300
300
300
300
300
300
300
399.729970198
335.964064906
312.476719217
304.467405548
301.625888236
300.597017703
300.190996726
300.020875769
300.000341342
300.000000351
300
300
300
300
300
300
300
300
300
300
403.246854279
336.101257203
311.714799369
303.807475306
301.245557866
300.414658153
300.138096617
300.034996981
300.002575659
300.0000218
300.000000006
300
300
300
300
300
300
300
300
300
402.057778803
337.657399419
312.624176094
304.041336296
301.264667828
300.393356809
300.12207245
300.036967354
300.006378717
300.000216531
300.000000828
300
300
300
300
300
300
300
300
300
398.529782023
337.777631067
313.371899053
304.428597441
301.40509778
300.436610296
300.13382905
300.040187147
300.011569632
300.001084401
300.00001326
300.000000003
300
300
300
300
300
300
300
300
393.693995799
336.600522559
313.453097606
304.616499646
301.501546092
300.475357694
300.148933289
300.045781542
300.013733515
300.002838868
300.000101855
300.000000726
300
300
300
300
300
300
300
300
391.63079523
335.692958878
313.237388405
304.632520034
301.532419632
300.49235207
300.157581802
300.049987518
300.015439296
300.004725697
300.000507331
300.00000618
300.000000001
300
300
300
300
300
300
300
390.899272621
334.965896643
312.891066074
304.532192735
301.517283073
300.493965494
300.161415516
300.052860235
300.016713062
300.005201409
300.001337541
300.000048058
300.00000004
300
300
300
300
300
300
300
390.694167518
334.838009153
312.881352403
304.547291345
301.535655831
300.505795247
300.168427775
300.056858048
300.018389004
300.005639331
300.001796987
300.000238786
300.000001491
300
300
300
300
300
300
300
390.680069224
334.937152344
312.981328449
304.625337414
301.583214797
300.531487383
300.181078242
300.063048142
300.020923674
300.006304565
300.00190851
300.000604306
300.000024465
300.000000022
300
300
300
300
300
300
390.839436973
334.867142163
312.963721519
304.659563583
301.624067324
300.560051178
300.196902503
300.07093984
300.024285578
300.007245967
300.002061349
300.000657383
300.000114131
300.00000094
300
300
300
300
300
300
390.944394366
334.432017596
312.683364819
304.568132745
301.61601157
300.573006385
300.209340111
300.078475065
300.027983146
300.008420459
300.0022657
300.000662002
300.000237841
300.00001179
300.000000011
300
300
300
300
300
391.087865489
333.496346002
312.048921843
304.299625065
301.535755668
300.559184068
300.211903934
300.082956767
300.031018932
300.009660131
300.002504487
300.000667573
300.000219968
300.000037714
300.00000023
300
300
300
300
300
391.029196776
332.903421494
311.591044658
304.054844613
301.437528954
300.529713329
300.206692869
300.084191591
300.033005597
300.010749772
300.002752
300.0006729
300.000198631
300.000063172
300.00000155
300
300
300
300
300
390.9237842
332.704114156
311.365155416
303.902057637
301.35901089
300.499362443
300.198423726
300.083571594
300.034224529
300.011677164
300.002997044
300.000678724
300.000177735
300.000063609
300.000004212
300.000000004
300
300
300
300
390.657884938
332.821750662
311.339244404
303.845962257
301.317705033
300.478755266
300.191438084
300.082904771
300.035385409
300.012661926
300.003293738
300.00069366
300.000158254
300.000048529
300.00000651
300.000000024
300
300
300
300
389.489790248
332.638011831
311.274315863
303.79854209
301.282004443
300.459918273
300.185544078
300.083038278
300.037113734
300.014017658
300.003744761
300.000737109
300.000142762
300.00003479
300.000007737
300.000000098
300
300
300
300
387.684723459
332.07364945
311.010903969
303.651715906
301.210733897
300.433364647
300.179985175
300.084674025
300.040016337
300.016083215
300.004503296
300.000853046
300.000141893
300.000027056
300.000006098
300.00000026
300
300
300
300
387.91471499
332.600557945
311.258361667
303.666312809
301.186448233
300.424236434
300.182352104
300.090175963
300.044873216
300.019107134
300.005660513
300.001093371
300.00017158
300.000028211
300.000005113
300.000000478
300
300
300
300
393.207332472
335.16327217
312.335989009
304.052809835
301.305743207
300.463797321
300.200688841
300.101331512
300.051975642
300.02305508
300.007202422
300.001459186
300.000240403
300.000038362
300.000006418
300.000000738
300
300
300
300
398.270569011
337.631937026
313.604010517
304.648221897
301.540932725
300.548032902
300.233417276
300.117110541
300.060708058
300.027629818
300.009016655
300.001926332
300.000327813
300.000053901
300.000008802
300.000001097
300
300
300
300
399.59735498
338.567192665
314.230011052
305.025483059
301.73103538
300.628354348
300.266952835
300.133333636
300.069830297
300.032386178
300.010859085
300.002441151
300.000431696
300.000072452
300.000011657
300.000001493
300
300
300
300
400.034602793
338.299584887
314.126389216
305.05001045
301.784271352
300.66637246
300.288719797
300.146378965
300.078187817
300.036874861
300.012648318
300.002927113
300.000541273
300.000092392
300.000014674
300.000001837
300
300
300
300
400.0520763
337.965594332
313.915276341
304.961064173
301.767200875
300.674103463
300.300066251
300.156077581
300.084960994
300.040788291
300.014231034
300.003383175
300.000636816
300.000110422
300.000017519
300.000002162
300
300
300
300
400.115050844
337.568410935
313.638334397
304.82432904
301.718174497
300.666015669
300.304977387
300.162865737
300.089455161
300.043649532
300.015611228
300.003759907
300.000717092
300.000124862
300.000020116
300.000002548
300
300
300
300
399.97082393
337.185134703
313.335339655
304.685610861
301.669414761
300.655994124
300.307429016
300.166691501
300.092130959
300.04552991
300.016740889
300.004122288
300.000779726
300.000135324
300.000022395
300.00000298
300
300
300
300
399.959123074
336.731088668
313.006309759
304.549811653
301.630048273
300.64999993
300.309481576
300.167679271
300.092973837
300.046321435
300.017556957
300.0044246
300.000832096
300.000146264
300.000024676
300.000003342
300
300
300
300
399.667749717
335.92187683
312.486436545
304.339421288
301.569573703
300.63828286
300.30794248
300.166371766
300.092014819
300.046085604
300.017806547
300.004647191
300.000852927
300.000155103
300.000025275
300.000003328
300.000000008
300
300
300
399.484304261
335.544441435
312.244513661
304.214695167
301.525188998
300.625866234
300.302336128
300.163005187
300.089720393
300.044913334
300.017753461
300.004707439
300.00094446
300.000162498
300.000023843
300.000002949
300
300
300
300
399.30992658
335.541659673
312.281414799
304.223604705
301.519932915
300.619384847
300.295509321
300.157902306
300.086352586
300.043506067
300.017531017
300.004958378
300.001017469
300.000163915
300.000020925
300.000001815
300
300
300
300
399.264975222
335.771721038
312.437939942
304.299446703
301.53930615
300.617221925
300.289024222
300.152258552
300.083226808
300.042398053
300.017940139
300.005535742
300.001101905
300.000163913
300.000018104
300.000000497
300
300
300
300
397.589105302
335.452387661
312.315333736
304.255561052
301.51064672
300.594185592
300.274433254
300.145338312
300.081066882
300.04303583
300.019320994
300.006178944
300.001207981
300.000161302
300.000015618
300
300
300
300
300
391.347753496
333.121646601
311.41439976
303.847280855
301.312807158
300.505682437
300.239601249
300.133838705
300.078947955
300.044211759
300.02093007
300.00694163
300.001307637
300.000152791
300.00001267
300
300
300
300
300
383.00522062
330.429997438
310.222552482
303.111080654
300.949728687
300.375519097
300.202598903
300.126498122
300.080111506
300.04732657
300.02352371
300.008003646
300.001402832
300.000135471
300.000009852
300
300
300
300
300
379.185482774
329.065087534
308.948938795
302.17824319
300.626163527
300.29929893
300.190959925
300.130498339
300.087265145
300.053970245
300.028074094
300.009987795
300.001691138
300.000130905
300.000009461
300
300
300
300
300
383.398580595
329.851448798
307.828090952
301.725414268
300.549012655
300.295881958
300.203605258
300.145566274
300.100864481
300.06469315
300.035311082
300.01360188
300.002543149
300.000190154
300.000014934
300.000001143
300
300
300
300
402.070692766
334.997517724
308.954825586
302.237256733
300.726960795
300.358013118
300.236756405
300.170177392
300.120149683
300.079203895
300.045218934
300.01885026
300.004039859
300.000375394
300.000035428
300.00000454
300
300
300
300
420.619530881
347.069116674
317.022352711
305.304006417
301.624324996
300.546795484
300.296482611
300.203083502
300.143615383
300.09646333
300.057179241
300.025622315
300.006455316
300.000849475
300.000099315
300.000013427
300.000000868
300
300
300
429.611599736
351.971293325
320.321425688
307.279769786
302.50958201
300.861512456
300.391018189
300.243059656
300.168382679
300.114252637
300.069953709
300.033685797
300.010117428
300.001766076
300.000250126
300.00003511
300.000003852
300
300
300
433.266996633
353.057448089
320.88901999
307.768754834
302.783424957
301.041948257
300.476323759
300.283373537
300.191792155
300.130397958
300.081594848
300.041458074
300.014174661
300.003031523
300.000503457
300.000075498
300.000009833
300
300
300
434.843209802
352.345279718
319.968087603
307.33435836
302.652267991
301.046666873
300.517256058
300.311470638
300.209530872
300.142540009
300.090108556
300.047194206
300.017615318
300.004354295
300.00082167
300.000131421
300.000018652
300.000000835
300
300
434.752848549
350.740257382
318.286623303
306.363165282
302.274776935
300.981083659
300.524836332
300.326403972
300.220936234
300.150525497
300.09523397
300.050532452
300.019831065
300.005417362
300.001120336
300.000189606
300.000028811
300.000002183
300
300
434.040262239
348.268567627
316.037934037
305.138088777
301.848499811
300.919210557
300.524523618
300.334508214
300.227845871
300.154997737
300.097142909
300.051661489
300.020862399
300.006050417
300.001349883
300.000237168
300.000038724
300.000003607
300
300
432.348566641
345.988432345
314.259205303
304.433090936
301.796882594
300.931747936
300.538402755
300.343550651
300.232992306
300.156453795
300.096575025
300.051022008
300.020878852
300.006335476
300.001475195
300.00027285
300.000047368
300.000004841
300
300
430.51749999
342.962901128
312.591992325
304.277101357
301.998732917
301.026475456
300.575828504
300.358382841
300.23783185
300.155387869
300.09424279
300.049259889
300.020374876
300.006345514
300.001535991
300.000298014
300.00005383
300.000005517
300
300
428.348523492
340.435404349
312.665240384
305.254381846
302.442227914
301.194610028
300.636281773
300.379450899
300.241202068
300.152937785
300.090756021
300.047046208
300.019593224
300.006291364
300.00153941
300.000313508
300.000057709
300.000005472
300
300
427.20608478
340.874114416
315.4176015
306.58497771
302.954405087
301.378707171
300.702494208
300.398779978
300.241596519
300.148432452
300.086473264
300.044555525
300.018883895
300.006215581
300.001553392
300.000324019
300.0000601
300.000005075
300
300
426.860304158
345.052889899
317.718119471
307.463655507
303.249202251
301.481935931
300.737540092
300.400690532
300.235874998
300.141555529
300.081418669
300.04226097
300.018284803
300.006235369
300.0015832
300.00033911
300.000062029
300.000004402
300
300
427.73252584
347.813981606
318.935087561
307.790033017
303.310790147
301.488469828
300.719984792
300.384240776
300.222671925
300.132141301
300.076322001
300.040273314
300.018077671
300.00636406
300.00167088
300.000362537
300.000063297
300.000003587
300
300
428.872308795
348.489547422
319.045775489
307.707436377
303.212193892
301.397483599
300.660827161
300.351796636
300.203543027
300.121874572
300.071651597
300.039190867
300.018310502
300.006740442
300.001838737
300.000392153
300.000061816
300.000002445
300
300
430.353932494
348.005742299
318.429798552
307.320201719
302.926056161
301.225327244
300.576651475
300.309303376
300.182817561
300.112368786
300.068781117
300.039239814
300.019313934
300.00739281
300.002083393
300.000417141
300.000055365
300.00000115
300
300
428.061976897
346.192977264
317.016574721
306.417218984
302.438340848
301.000120136
300.474500087
300.265395001
300.164331654
300.106553047
300.068328736
300.040989364
300.021050606
300.008359419
300.002346309
300.000429969
300.00004594
300.000000427
300
300
410.742614754
340.64299817
314.293114119
305.055121534
301.813932912
300.734745693
300.373770707
300.228582212
300.153395945
300.105280442
300.071021526
300.044324994
300.023680171
300.009649924
300.002656331
300.000442518
300.000038508
300.000001048
300
300
389.859850091
334.338098305
311.857421165
303.77849412
301.22423484
300.51807614
300.305313294
300.211497709
300.152510091
300.110296819
300.077215932
300.049925046
300.027609833
300.011651593
300.003236764
300.000527127
300.000044148
300.000002393
300.0000015
300
379.022621201
331.852078914
310.893502747
302.866084977
300.824323436
300.42728287
300.294993243
300.21988905
300.165656121
300.123397612
300.088595062
300.058961406
300.034005747
300.015221127
300.004548528
300.000804543
300.000078482
300.000004243
300.000004068
300.000001431
386.531415881
337.583583183
313.397581287
303.49473402
301.055324707
300.510835943
300.340295819
300.254272762
300.194203811
300.146240242
300.10651814
300.072644781
300.043603914
300.020671403
300.006645664
300.001279272
300.000142124
300.000006858
300.000004862
300.000003441
424.348777729
353.642272622
320.622601913
306.958155371
302.318479713
300.869408447
300.45846893
300.314934764
300.239670429
300.181274936
300.13259212
300.091791203
300.056857681
300.028317967
300.00971065
300.002014184
300.000247392
300.000013727
300.000004112
300.000003879
478.231484922
366.857683879
325.901950371
309.70654254
303.619096795
301.429062185
300.671618004
300.396004582
300.291119933
300.220881744
300.16318246
300.114452208
300.072686617
300.037809675
300.013733454
300.003054022
300.00041152
300.000028494
300.000003268
300.000002728
498.811778936
373.872827688
328.573404036
311.103610131
304.365918603
301.807431607
300.853785864
300.492531769
300.34745611
300.254925254
300.19024251
300.136041536
300.088636886
300.047930755
300.018381878
300.004408317
300.000661621
300.000059272
300.0000047
300.000001256
505.222070074
376.0780506
329.071594557
311.32850215
304.53051886
301.927518096
300.931703755
300.540585769
300.375833858
300.280805111
300.210896043
300.153209688
300.10239376
300.05721467
300.023262366
300.006163979
300.001076565
300.000128674
300.000012238
300.000000738
507.840884993
376.328175707
328.629527214
310.977382114
304.366400439
301.876727023
300.929458362
300.551527659
300.386750784
300.295478507
300.225041128
300.165765011
300.11277469
300.064709568
300.027911768
300.008214966
300.001651524
300.000239107
300.000027042
300.000001641
508.535264213
376.040094152
328.001168969
310.483932665
304.092883629
301.757014816
300.888237605
300.541939299
300.387762991
300.30214388
300.233070546
300.173567866
300.119164817
300.069305707
300.030978102
300.009795016
300.002185422
300.000359215
300.00004617
300.000003673
509.494050888
375.780270741
327.516916139
310.054468858
303.829099458
301.62886274
300.837427626
300.526610311
300.387547059
300.304339838
300.23704797
300.177777703
300.122085681
300.071183957
300.032329387
300.010663698
300.002547037
300.000457107
300.000064371
300.000006121
509.334760755
375.279680563
326.992276434
309.614628747
303.548652262
301.48479733
300.774324621
300.503984266
300.383366248
300.304281593
300.238709122
300.179434248
300.122203369
300.070884622
300.03231095
300.010885249
300.002712659
300.000516412
300.000077998
300.000008232
509.61806533
374.609114275
326.447199037
309.202391359
303.290378781
301.352999302
300.716972639
300.485030182
300.379158035
300.303467022
300.238961037
300.17890467
300.120160789
300.068865466
300.031229087
300.010638758
300.002712564
300.00053672
300.000085219
300.000009567
508.95623936
373.690740739
325.780553533
308.805693533
303.076302515
301.257201257
300.68264916
300.479450559
300.376726625
300.302352574
300.237983371
300.176051903
300.116464408
300.065677443
300.029543011
300.010080184
300.002608546
300.000526237
300.000086604
300.000010067
508.033292784
371.380361618
324.078309172
307.993161812
302.757584433
301.150360969
300.655467488
300.476333281
300.375310735
300.300763643
300.235420232
300.170983377
300.111250785
300.061687045
300.02745296
300.009392362
300.002435612
300.000497208
300.000083645
300.000009893
505.492176335
366.973622414
321.085311039
306.755642736
302.384029379
301.070415447
300.65461666
300.477625141
300.374471921
300.298256077
300.230431046
300.164166592
300.104743451
300.057080866
300.025268135
300.008635476
300.002253871
300.000457541
300.000078157
300.000009177
501.085709819
358.421925344
317.027922383
305.42655904
302.085931676
301.052576352
300.667321081
300.482107075
300.373513457
300.294193106
300.222537165
300.155697447
300.097368262
300.052405388
300.023134581
300.008007205
300.002087779
300.000424171
300.000072914
300.000008497
492.818522832
350.337781805
314.702845716
305.120965885
302.181985678
301.129048277
300.69342217
300.488115438
300.371446244
300.287361535
300.212349543
300.145594385
300.089520165
300.047811029
300.021435213
300.007559641
300.002013318
300.000409834
300.000073662
300.000008608
469.984969587
351.470963273
316.571554196
306.031451975
302.522903207
301.235818459
300.722020151
300.491696477
300.366495113
300.276233471
300.200318099
300.134781651
300.081773414
300.044044761
300.020307263
300.007533351
300.002073978
300.000456364
300.000082599
300.000009826
442.905101798
348.722356534
317.17299713
306.534000656
302.721200443
301.289783623
300.728347097
300.485316145
300.354247836
300.261408113
300.186541363
300.123685176
300.075086455
300.041337436
300.020225689
300.008034682
300.00250537
300.00059686
300.00010547
300.000013065
422.152902406
343.626301431
315.871209773
306.166811219
302.583053591
301.223539487
300.692453767
300.461119154
300.332543458
300.244134842
300.172578275
300.114091544
300.070130804
300.040566714
300.021384358
300.009719965
300.00344176
300.000897778
300.000171599
300.000023001
405.716817161
339.194123299
314.361608439
305.493048222
302.270302014
301.082832199
300.627388954
300.423545301
300.310042533
300.228669458
300.161980395
300.107812586
300.068628096
300.042216436
300.024816627
300.012809041
300.005138957
300.001536744
300.000355685
300.000063942
392.82977839
335.288425972
313.072493374
304.949961738
302.007354397
300.961802207
300.573474297
300.398760654
300.297590276
300.222009213
300.158714275
300.108338728
300.072353942
300.048580269
300.030868104
300.017513538
300.008007581
300.002864063
300.000826469
300.000197813
386.364042024
334.024672948
313.122177098
305.149381228
302.155064645
301.046258779
300.61821044
300.423690314
300.313406068
300.234400182
300.170850543
300.121077177
300.084609231
300.058660179
300.039573803
300.024401138
300.01267953
300.005355522
300.001876467
300.000554641
389.500946736
337.918453331
316.565283587
307.441900264
303.461534721
301.721352137
300.94589984
300.581403166
300.391878971
300.278571348
300.201059456
300.144595156
300.104083442
300.074534192
300.05228328
300.034131279
300.019482182
300.009368666
300.003760757
300.001267421
409.228534535
352.984748946
325.710813806
312.329622556
305.971764611
302.991391674
301.577068102
300.891153561
300.545297135
300.360243875
300.251148714
300.18019082
300.130530852
300.094654818
300.067305034
300.045357462
300.027590049
300.014429975
300.006297506
300.002295125
447.811502266
368.411974511
331.920630873
315.197297414
307.489007466
303.834288225
302.049335049
301.155000088
300.692466326
300.444174674
300.303292421
300.2157924
300.155411935
300.112179711
300.080161481
300.054998482
300.034730832
300.019146928
300.008807559
300.003366706
478.313948005
375.441203687
333.210889901
315.1338548
307.218336029
303.64899098
301.975369661
301.143564133
300.706974585
300.464543361
300.322956579
300.23256678
300.169393876
300.123209579
300.088717386
300.061520755
300.039524311
300.022354654
300.010574351
300.004165078
487.362172067
375.370638891
329.881797135
312.365940563
305.585018422
302.792154233
301.545014009
300.941139328
300.620540512
300.433341468
300.313725478
300.231994373
300.172226569
300.127455765
300.09286809
300.064833816
300.04185508
300.023796591
300.011343836
300.004550238
485.741111306
362.185609245
321.230850556
308.095994667
303.569185828
301.82758035
301.079395705
300.716706127
300.514547214
300.384155953
300.291532621
300.221918224
300.16846003
300.127173945
300.093561176
300.065500223
300.042141846
300.023753891
300.011269407
300.004601375
478.790475946
348.201737885
313.835342463
304.836408675
302.108510381
301.152589577
300.756064162
300.555348186
300.431873607
300.341311222
300.269088301
300.210649049
300.163316447
300.124722849
300.092306196
300.06455239
300.041095346
300.022719828
300.010710083
300.004517994
473.1259527
344.560724206
310.920804166
303.28800487
301.363610596
300.796173735
300.579923526
300.461529508
300.37836249
300.31033215
300.251439865
300.201144106
300.158261761
300.121888131
300.090547196
300.063011355
300.039392588
300.021281242
300.010109853
300.00452447
462.849411651
346.279793723
311.439110339
302.925838928
301.061545261
300.638410086
300.49593934
300.412416028
300.346928126
300.28985888
300.238856783
300.19417253
300.154847173
300.120045927
300.089315331
300.061588265
300.037635813
300.020123412
300.009886808
300.004798998
441.102862314
346.143695502
312.863225351
303.302711203
301.02994947
300.581290044
300.459316183
300.388306156
300.329756741
300.277733977
300.231242009
300.190255682
300.153604793
300.119888591
300.089124286
300.060745046
300.036626713
300.019887503
300.010354986
300.005453614
419.324807192
342.939617533
313.347009451
303.658808192
301.094707221
300.572023845
300.445633697
300.377815232
300.321701932
300.272018274
300.228117788
300.189410577
300.154433757
300.121498986
300.090266676
300.061265701
300.037291489
300.021059467
300.011700873
300.00656701
403.60715826
338.070042723
312.506647816
303.598643577
301.09664248
300.569299698
300.443292137
300.37616029
300.320481869
300.271812475
300.229230472
300.191775102
300.157626124
300.125021589
300.093495385
300.064247958
300.040287652
300.023908458
300.014015369
300.0082018
394.593902563
335.409729583
312.065482943
303.60981782
301.141387521
300.590398662
300.455285685
300.383625133
300.326536517
300.277248472
300.234909626
300.197989421
300.164078497
300.131523438
300.099807356
300.070225623
300.045733678
300.028366877
300.017255756
300.010364775
393.957677058
337.269330299
313.591636617
304.561083741
301.64576865
300.788901819
300.523797899
300.411648364
300.342616349
300.289976036
300.246340422
300.208586955
300.174333238
300.14157069
300.109501785
300.07916939
300.053409955
300.034266233
300.021352974
300.013031333
408.034584321
348.057220729
319.663165707
307.910974875
303.389534356
301.583806401
300.833382964
300.521616354
300.385941932
300.314264821
300.264822893
300.224626551
300.188978255
300.155263921
300.122276449
300.090649055
300.06296245
300.041424627
300.026237865
300.016185924
444.386978996
363.194502692
328.272432181
312.962862837
306.127131855
302.937929853
301.435817364
300.762687899
300.479779526
300.358061198
300.292579556
300.246277915
300.207484268
300.17182396
300.137262032
300.10384701
300.073851893
300.04957055
300.031792231
300.01979476
472.832230303
372.976342481
332.538680915
315.007420409
307.168922509
303.513061945
301.758700974
300.932916306
300.564682934
300.405143288
300.323272588
300.269402765
300.226649826
300.188730569
300.152581141
300.117270421
300.085032039
300.058100893
300.037694369
300.023738334
480.632296016
366.459992949
326.571449575
311.957706794
305.782445791
302.935490807
301.568971087
300.908217651
300.592203836
300.435550948
300.347947588
300.289207407
300.243240835
300.203308563
300.165847465
300.129012448
300.095017605
300.065960526
300.043299638
300.027713734
477.697761824
351.203604965
317.723880349
307.720478033
303.898315845
302.139067562
301.266462069
300.817724196
300.580702472
300.447120658
300.363430448
300.303711308
300.256038496
300.21463466
300.175989425
300.137946135
300.102769701
300.072197654
300.048015041
300.031413585
473.44703467
347.01816468
313.623974298
305.214599435
302.605124465
301.529306381
301.002109141
300.717119892
300.550797997
300.444597253
300.369893432
300.312334466
300.264572398
300.22240044
300.182590716
300.143682908
300.107780386
300.076142606
300.051659543
300.034642535
466.738819423
348.607543269
313.442517086
304.393220631
301.962732687
301.16815168
300.826070527
300.640371107
300.521914062
300.437045794
300.37100451
300.316495139
300.269357077
300.226457602
300.185210049
300.145933093
300.109371557
300.077992665
300.054402336
300.037340644
448.216231046
347.636994307
314.168124903
304.468660572
301.778082135
301.007323616
300.732796747
300.594506955
300.502137055
300.430156353
300.369864161
300.317392152
300.270129938
300.226035135
300.18428991
300.144269155
300.108215551
300.078880518
300.056221768
300.039119903
423.700937846
344.269586942
314.493116031
304.716274091
301.779131293
300.953819795
300.691278981
300.57088815
300.490190436
300.42423741
300.366427097
300.314371181
300.266642849
300.221753411
300.179332908
300.140182579
300.106694082
300.078972049
300.056930521
300.03964667
402.623197593
338.508685471
313.523015129
304.538267813
301.695434902
300.904075189
300.663809758
300.55531401
300.480302211
300.416999839
300.360205591
300.308118398
300.259857312
300.215130605
300.174373278
300.137235176
300.105177327
300.078413414
300.056220775
300.038459795
388.73421069
333.772486277
312.048680931
303.955707198
301.452415949
300.819573565
300.633668547
300.541232294
300.471161874
300.409359906
300.353094525
300.301678503
300.254511688
300.211671654
300.172286431
300.135804782
300.104335832
300.077060381
300.053837876
300.035366159
385.711532694
333.939752833
312.020045184
303.633632392
301.304479434
300.78266008
300.622850654
300.536098804
300.467719575
300.407189212
300.35228944
300.301897858
300.255449363
300.21255455
300.173316418
300.136225879
300.103672762
300.07450708
300.04951573
300.031782148
402.648063791
345.912877318
317.29922723
305.848791161
302.123793167
301.021102809
300.68611189
300.556058947
300.478869047
300.417340083
300.362329984
300.311547819
300.26394505
300.218051344
300.176482185
300.137626618
300.102384971
300.070349771
300.04509409
300.02936655
467.015928054
369.789930607
328.593121986
311.716827869
304.928244133
302.141006559
301.025165906
300.649250519
300.516265993
300.44179132
300.382234201
300.327323404
300.27587215
300.225960473
300.180848105
300.138925262
300.100221964
300.06665661
300.042366219
300.029001115
542.308302173
390.494702274
337.614536443
316.533449956
307.496764916
303.452508711
301.656963015
300.903400253
300.603616621
300.480730187
300.408033938
300.346205568
300.288353928
300.234424729
300.185408083
300.139908778
300.098848723
300.064959046
300.042159292
300.030834508
570.108299258
400.523771997
341.894188681
318.807562659
308.808043354
304.22866108
302.107020036
301.142826724
300.723108153
300.533197492
300.435039579
300.362871357
300.299635445
300.242187226
300.189313397
300.141250775
300.099235936
300.06581147
300.044606282
300.03471588
578.689819977
403.179961596
342.485178327
319.036284109
309.005790267
304.429144429
302.282932644
301.267889198
300.795468685
300.574000036
300.4565739
300.375470152
300.307831137
300.247557753
300.192439
300.143364628
300.101607563
300.06934396
300.049472866
300.040535936
581.935580434
401.92877961
340.81987165
318.02055979
308.530255059
304.260323225
302.25939083
301.292491838
300.822711511
300.593296949
300.467359972
300.381337495
300.311631335
300.25070053
300.195084806
300.146514302
300.106237554
300.075557342
300.057033436
300.047987017
582.917776552
397.773843164
336.972373251
315.792093483
307.479523312
303.811019988
302.089113362
301.239879685
300.812731191
300.595089143
300.469670612
300.382351189
300.312531841
300.25250317
300.197975036
300.151259395
300.113337858
300.084681764
300.067071832
300.057130429
582.158766473
390.983973502
331.018806296
312.479360662
305.937947884
303.14024414
301.806162442
301.127636361
300.7736537
300.584349854
300.46641141
300.380943306
300.312590673
300.254372339
300.201973141
300.158036916
300.123246934
300.096680066
300.079890366
300.068303223
578.196499149
380.241661746
324.416184473
309.13433928
304.361466893
302.421222026
301.484973187
300.993783701
300.725518227
300.567563609
300.460119251
300.378752591
300.313149941
300.257234937
300.207665078
300.167169973
300.135743821
300.111502056
300.095080565
300.081732155
565.619749675
367.411276209
318.326797477
306.389571885
303.096982865
301.844523757
301.214063291
300.880238247
300.681410254
300.549671348
300.4531395
300.377090603
300.314947954
300.261255308
300.215204336
300.178540004
300.150540354
300.128436524
300.11239353
300.097186437
544.532167089
354.870845808
313.802144949
304.570081279
302.251111378
301.427852633
301.021518167
300.794003708
300.643858033
300.534040959
300.447553341
300.377043506
300.318025628
300.266625195
300.224532909
300.191920878
300.167106789
300.147074167
300.130793882
300.113617525
527.890756941
350.432043041