/*--------------------------------*- C++ -*----------------------------------*\
| =========                 |                                                 |
| \\      /  F ield         | OpenFOAM: The Open Source CFD Toolbox           |
|  \\    /   O peration     | Version:  2312                                  |
|   \\  /    A nd           | Website:  www.openfoam.com                      |
|    \\/     M anipulation  |                                                 |
\*---------------------------------------------------------------------------*/
FoamFile
{
    version     2.0;
    format      ascii;
    arch        "LSB;label=32;scalar=64";
    class       volScalarField;
    location    "0.57/water";
    object      alphat.gas;
}
// * * * * * * * * * * * * * * * * * * * * * * * * * * * * * * * * * * * * * //

dimensions      [1 -1 -1 0 0 0 0];

internalField   nonuniform List<scalar> 
6000
(
1.98769022082e-07
8.28927244844e-08
3.50718740775e-08
2.41922598548e-08
9.89975546965e-08
7.38828806252e-07
3.05935466043e-06
6.79344645462e-06
1.01905522572e-05
1.2349657611e-05
1.34838280317e-05
1.40130259535e-05
1.42351617638e-05
1.43154952698e-05
1.43359170867e-05
1.4333967854e-05
1.43256220861e-05
1.43170410591e-05
1.43102108062e-05
1.43054998503e-05
9.12665858168e-07
6.52944488589e-07
3.35655877741e-07
1.76155989247e-07
7.22650549928e-08
5.52406290382e-08
1.25404870774e-07
7.37814417791e-07
3.13662332329e-06
7.07606336461e-06
1.04786230491e-05
1.25544391975e-05
1.36105493454e-05
1.4085824088e-05
1.42737774507e-05
1.43329100295e-05
1.43400870603e-05
1.43297821468e-05
1.43162618838e-05
1.430479756e-05
1.25287330746e-06
1.08732615446e-06
7.23152826131e-07
3.99182371424e-07
2.17374404005e-07
1.02016455863e-07
7.46306495517e-08
1.82498087523e-07
9.82649241653e-07
3.49906986505e-06
7.18727427377e-06
1.03843650432e-05
1.24425947618e-05
1.35553651709e-05
1.40839022529e-05
1.43026768919e-05
1.43745023972e-05
1.43842619925e-05
1.43723169595e-05
1.43562663521e-05
1.48341313724e-06
1.34532856278e-06
9.89369777441e-07
6.21062017803e-07
4.02874507393e-07
1.8953112997e-07
1.00634886667e-07
9.8278229893e-08
3.74510727644e-07
1.7386092088e-06
4.71279722933e-06
8.18894495045e-06
1.09597478074e-05
1.27251473462e-05
1.36936973137e-05
1.41616689704e-05
1.43565662537e-05
1.44186163682e-05
1.44238470009e-05
1.44096602709e-05
1.65080228539e-06
1.53294085377e-06
1.18003305152e-06
8.06047623558e-07
4.86447377928e-07
3.23874440041e-07
1.3975240004e-07
9.06925317178e-08
1.80129720161e-07
8.96682840196e-07
3.07210346477e-06
6.33019719792e-06
9.44306965237e-06
1.17254328405e-05
1.31381192411e-05
1.39054398639e-05
1.42724659576e-05
1.44209012241e-05
1.44631297683e-05
1.44607936135e-05
1.75517885398e-06
1.66869236793e-06
1.32731352961e-06
9.50493404106e-07
6.22557429782e-07
3.56533105096e-07
2.19076094956e-07
9.41478637457e-08
1.08451767424e-07
4.71180348395e-07
1.99317234591e-06
4.84803413067e-06
8.03645147874e-06
1.06685127243e-05
1.24701150098e-05
1.35459628823e-05
1.41153683357e-05
1.43788789839e-05
1.44781688184e-05
1.44993802978e-05
1.81795449834e-06
1.76675692844e-06
1.43980697356e-06
1.06074305678e-06
7.27492752292e-07
4.56474529702e-07
2.43107673734e-07
1.26550563739e-07
7.3236335363e-08
2.40506120004e-07
1.25894080285e-06
3.66981050269e-06
6.77899411566e-06
9.62339222127e-06
1.17409277448e-05
1.31079695811e-05
1.3891840391e-05
1.42906645339e-05
1.44645935402e-05
1.45210896746e-05
1.86042927925e-06
1.83003849423e-06
1.51047338856e-06
1.1328587962e-06
8.02473920797e-07
5.35573164557e-07
3.15438673644e-07
1.63486391941e-07
6.89905473661e-08
1.09323938245e-07
7.25064103506e-07
2.69754615704e-06
5.64971176062e-06
8.61641481218e-06
1.09862811893e-05
1.26168611276e-05
1.36144134339e-05
1.41603041427e-05
1.44224865523e-05
1.45244800311e-05
1.90941036086e-06
1.87847662982e-06
1.55069407638e-06
1.17478352401e-06
8.54103439129e-07
5.97433919094e-07
3.82539199794e-07
1.9888167496e-07
9.71871499139e-08
5.40627553864e-08
3.24043572297e-07
1.82354670353e-06
4.58392897738e-06
7.63509375279e-06
1.02217900241e-05
1.20926474834e-05
1.32971899366e-05
1.39949035515e-05
1.43542571547e-05
1.45100324531e-05
1.93909724106e-06
1.88115388385e-06
1.55144069265e-06
1.19286044606e-06
8.89821499165e-07
6.46175752323e-07
4.40327829629e-07
2.56604862907e-07
1.08465892439e-07
5.06157480168e-08
1.02031110998e-07
9.8968368852e-07
3.48500737794e-06
6.62767430222e-06
9.43823136638e-06
1.15432780573e-05
1.29500864203e-05
1.38014259475e-05
1.42636351677e-05
1.44788316531e-05
1.91142522258e-06
1.85338164574e-06
1.54636253034e-06
1.2072725123e-06
9.17833508451e-07
6.85243974411e-07
4.89954505287e-07
3.11753300334e-07
1.51819319111e-07
5.48618070651e-08
4.19798048987e-08
3.35167160772e-07
2.28628881987e-06
5.51789773523e-06
8.60281818713e-06
1.09640902964e-05
1.25777909147e-05
1.35848489654e-05
1.41532352445e-05
1.44314930406e-05
1.90718551346e-06
1.85259163335e-06
1.55291818958e-06
1.22204077599e-06
9.40458908533e-07
7.16525953442e-07
5.31834831708e-07
3.62297153173e-07
1.9793668215e-07
7.04992763945e-08
3.59514987011e-08
7.94065091455e-08
1.08198903183e-06
4.23151775439e-06
7.65783546113e-06
1.0330287578e-05
1.21730140271e-05
1.33439215415e-05
1.40228902563e-05
1.43675175092e-05
1.89012233793e-06
1.84982235394e-06
1.55667279919e-06
1.23161585648e-06
9.56878889599e-07
7.41290779401e-07
5.66717042406e-07
4.06279841232e-07
2.41143834103e-07
9.28334643952e-08
2.97927959115e-08
3.72587385683e-08
3.01450311599e-07
2.78631110132e-06
6.55230097893e-06
9.6034441037e-06
1.17151624136e-05
1.3069589042e-05
1.38691168658e-05
1.42852288854e-05
1.87816517197e-06
1.84431636999e-06
1.55405338516e-06
1.23364014151e-06
9.65768862944e-07
7.59359844505e-07
5.95066276763e-07
4.4292869358e-07
2.77658178994e-07
1.13092728429e-07
3.32469407742e-08
2.4795940231e-08
8.35545937124e-08
1.44249664656e-06
5.31328797259e-06
8.74604942865e-06
1.11716138934e-05
1.2745837247e-05
1.36855727351e-05
1.41820724234e-05
1.86668525773e-06
1.84002651576e-06
1.55058555502e-06
1.23144853028e-06
9.69856367813e-07
7.73121630585e-07
6.18619954523e-07
4.72843347919e-07
3.0610201737e-07
1.29096007885e-07
3.61920600068e-08
2.00660627747e-08
4.58601620808e-08
5.44181656627e-07
3.9826491334e-06
7.70874438923e-06
1.05002396639e-05
1.23515620697e-05
1.34634478119e-05
1.40547657997e-05
1.86629144208e-06
1.84213605326e-06
1.55054138699e-06
1.23054414511e-06
9.74355038314e-07
7.8665536766e-07
6.40193425254e-07
4.97724342203e-07
3.27396458065e-07
1.41498912107e-07
3.90770155071e-08
1.88709928419e-08
3.01271502281e-08
1.94369204665e-07
2.61739891889e-06
6.45285333264e-06
9.66022200502e-06
1.1862365562e-05
1.31914026091e-05
1.38991015254e-05
1.8721576853e-06
1.851574479e-06
1.5575764322e-06
1.23718585194e-06
9.85656003175e-07
8.04392532836e-07
6.62229801434e-07
5.19504455332e-07
3.44321832324e-07
1.53368080486e-07
4.3493112501e-08
1.875865398e-08
1.92103771706e-08
7.6156829718e-08
1.38828598108e-06
4.99988066151e-06
8.61964552309e-06
1.12515224136e-05
1.28554043347e-05
1.37095140258e-05
1.89226746893e-06
1.87210771938e-06
1.57672412424e-06
1.25789606204e-06
1.00895581489e-06
8.28689481768e-07
6.85552843332e-07
5.39354636799e-07
3.60057031543e-07
1.6847808507e-07
5.16377429949e-08
1.98977432721e-08
1.68493851079e-08
3.90733698698e-08
6.17746624745e-07
3.50312482122e-06
7.37417658825e-06
1.04941482818e-05
1.24394137344e-05
1.34787003622e-05
1.92052493185e-06
1.89604466056e-06
1.61110470713e-06
1.29921261661e-06
1.04701200462e-06
8.58998203261e-07
7.09036787297e-07
5.57115068602e-07
3.7740776842e-07
1.92006078917e-07
6.44946140999e-08
2.21772926761e-08
1.65657596357e-08
2.84952829126e-08
2.28113850419e-07
2.13093143828e-06
5.94364741204e-06
9.56861234423e-06
1.1926177114e-05
1.31974526124e-05
1.97733010734e-06
1.97140536418e-06
1.70190040269e-06
1.37853073287e-06
1.10034958256e-06
8.91162125085e-07
7.28449212551e-07
5.70925483685e-07
3.9992901958e-07
2.23778800236e-07
8.24971887715e-08
2.55942113344e-08
1.69928825965e-08
2.00750585712e-08
7.24397748142e-08
1.07757361056e-06
4.42147428915e-06
8.46552094362e-06
1.12986757514e-05
1.28549095858e-05
2.11476543328e-06
2.13767912137e-06
1.84905622588e-06
1.47569234291e-06
1.1524954593e-06
9.15993996369e-07
7.40038229501e-07
5.83773500166e-07
4.26481117619e-07
2.61016868536e-07
1.06124871489e-07
3.00738363599e-08
1.75458043534e-08
1.90273694737e-08
3.94325936785e-08
3.95265257591e-07
2.97351902958e-06
7.21010854992e-06
1.05480211131e-05
1.24411472726e-05
2.27992160774e-06
2.31062422661e-06
1.96899433046e-06
1.54095735278e-06
1.18635191052e-06
9.31955005662e-07
7.48215122593e-07
5.97562909236e-07
4.55684079576e-07
3.01634079222e-07
1.34565477489e-07
3.57797160257e-08
1.78875637125e-08
1.89144685658e-08
2.56681662247e-08
1.04733218341e-07
1.69089203919e-06
5.8654354656e-06
9.67711782992e-06
1.1949028643e-05
2.35472009481e-06
2.35010791979e-06
1.9838405532e-06
1.55747369653e-06
1.20421898918e-06
9.43641820282e-07
7.55377244967e-07
6.1128370555e-07
4.84375125071e-07
3.42360488574e-07
1.66191197809e-07
4.27472000514e-08
1.81099063355e-08
1.83554944336e-08
2.39578792749e-08
6.00168137303e-08
6.50708274897e-07
4.49630291344e-06
8.6978902582e-06
1.13737550313e-05
2.32237073445e-06
2.31442164755e-06
1.96799812906e-06
1.56117392018e-06
1.2152949453e-06
9.51557571144e-07
7.60699961932e-07
6.22379081785e-07
5.08824664652e-07
3.78976299191e-07
1.97868901688e-07
5.09074085209e-08
1.85043427757e-08
1.76238631863e-08
2.20332579021e-08
3.52468778905e-08
1.93716704608e-07
3.10230565826e-06
7.629993107e-06
1.07126145619e-05
2.32937459636e-06
2.31344191176e-06
1.96818561793e-06
1.5688960463e-06
1.22503428694e-06
9.58668758381e-07
7.65729913971e-07
6.3152466189e-07
5.29200915482e-07
4.09590334915e-07
2.25095935517e-07
5.98423816058e-08
1.92088397612e-08
1.71047943967e-08
2.02654061091e-08
2.87577478689e-08
9.80688945468e-08
1.76257879059e-06
6.48162971415e-06
9.96051109516e-06
2.33433337409e-06
2.317629542e-06
1.97464363622e-06
1.57747415136e-06
1.23275820129e-06
9.64384460937e-07
7.70784609249e-07
6.40811007235e-07
5.48055602813e-07
4.34830669804e-07
2.47403336818e-07
6.89479605365e-08
2.03613440394e-08
1.69513543724e-08
1.90822270017e-08
2.42621681064e-08
6.66635701448e-08
8.1715961055e-07
5.25048300615e-06
9.107938287e-06
2.32715952358e-06
2.32190862102e-06
1.9831247438e-06
1.58473666433e-06
1.23786703025e-06
9.68482607136e-07
7.76193988446e-07
6.51899118413e-07
5.66492870298e-07
4.55199095503e-07
2.65267227449e-07
7.80709907146e-08
2.19875411482e-08
1.71162370467e-08
1.85379728365e-08
2.16136299222e-08
4.06511732632e-08
3.53642369365e-07
3.9913806273e-06
8.15380357013e-06
2.32202114962e-06
2.3282897467e-06
1.99084283776e-06
1.58919728071e-06
1.24101679374e-06
9.72140392014e-07
7.83103556382e-07
6.6530175323e-07
5.83923182286e-07
4.70818844273e-07
2.78181006646e-07
8.60052891906e-08
2.37718149165e-08
1.7462487561e-08
1.85220363567e-08
2.04072494901e-08
2.7468394399e-08
1.61101497871e-07
2.78125969562e-06
7.10278545933e-06
2.31912407514e-06
2.33230344182e-06
1.99347283308e-06
1.58934365393e-06
1.24193323475e-06
9.75667420334e-07
7.91482971015e-07
6.79744573742e-07
5.9897111748e-07
4.81216472761e-07
2.84911655726e-07
9.11006229932e-08
2.51619205618e-08
1.78347845968e-08
1.87736530061e-08
2.00736484414e-08
2.36357935595e-08
8.3007547021e-08
1.68805474674e-06
5.96209500099e-06
2.32806276856e-06
2.33878850673e-06
1.99628686731e-06
1.5883358002e-06
1.2412351286e-06
9.78451374321e-07
8.00253723852e-07
6.93440976662e-07
6.10395825273e-07
4.8536288915e-07
2.84275545705e-07
9.22593164719e-08
2.570885672e-08
1.80767052093e-08
1.90087870376e-08
2.01372612583e-08
2.20714455519e-08
5.29472130601e-08
8.47279195528e-07
4.77885455664e-06
2.33183605312e-06
2.34414470208e-06
1.9989727225e-06
1.58617016774e-06
1.23850556729e-06
9.79682697266e-07
8.08341598317e-07
7.04958641793e-07
6.17361926259e-07
4.82375156198e-07
2.76400773701e-07
8.9865324432e-08
2.54291494738e-08
1.81056581018e-08
1.91321589202e-08
2.03068113257e-08
2.14268870984e-08
3.72853336608e-08
3.61144544875e-07
3.62910364883e-06
2.33785067425e-06
2.34791494756e-06
1.99777853178e-06
1.58028060109e-06
1.23307507481e-06
9.79463607817e-07
8.15314139351e-07
7.13749935648e-07
6.19467285696e-07
4.72187443712e-07
2.63328532068e-07
8.58264790455e-08
2.48622404547e-08
1.80623410962e-08
1.91986313197e-08
2.03526950683e-08
2.10416416009e-08
2.54388561696e-08
1.53123061421e-07
2.54986991672e-06
2.33345628626e-06
2.34507453072e-06
1.98808806996e-06
1.56876345104e-06
1.22580795972e-06
9.79497418461e-07
8.2191359674e-07
7.20052762861e-07
6.1607942033e-07
4.55539538379e-07
2.48000093201e-07
8.21122682997e-08
2.45670610531e-08
1.80862544126e-08
1.92247761644e-08
2.0302919524e-08
2.07205411689e-08
2.2839594792e-08
7.75908308685e-08
1.60228309753e-06
2.33129633051e-06
2.32655042333e-06
1.96282418071e-06
1.55041775674e-06
1.21886582374e-06
9.8251243948e-07
8.29725377025e-07
7.24274285656e-07
6.06648163437e-07
4.34715416005e-07
2.33785860447e-07
8.01939852873e-08
2.50517733157e-08
1.8261047148e-08
1.92452277528e-08
2.02399886238e-08
2.04757608925e-08
2.14924531181e-08
4.98920682829e-08
8.94895191358e-07
2.30642322929e-06
2.27679611288e-06
1.92364428359e-06
1.53525837893e-06
1.22210395177e-06
9.94149332549e-07
8.41339658927e-07
7.26261343676e-07
5.91751393292e-07
4.13984243354e-07
2.24090195693e-07
8.16779755565e-08
2.68976789623e-08
1.86040560427e-08
1.92956031802e-08
2.02375279702e-08
2.03618104866e-08
2.08290869866e-08
3.87083465994e-08
4.50533835623e-07
2.24583306e-06
2.21172061374e-06
1.90349977247e-06
1.55133304027e-06
1.2514164798e-06
1.02113951961e-06
8.57839360612e-07
7.24085087256e-07
5.7371474538e-07
3.99020490965e-07
2.23323755022e-07
8.89839884586e-08
3.02254660161e-08
1.91525917218e-08
1.94111948015e-08
2.03059105585e-08
2.02950906444e-08
2.05262272804e-08
2.70625725335e-08
2.06183904583e-07
2.22296001471e-06
2.21736248583e-06
1.95143806566e-06
1.6205632718e-06
1.31378933509e-06
1.06335529467e-06
8.73304334099e-07
7.15395907297e-07
5.60243584233e-07
3.98522376633e-07
2.36174444692e-07
1.02613244123e-07
3.51908670995e-08
1.99974850721e-08
1.96032539473e-08
2.03600888151e-08
2.0133568581e-08
2.0377199286e-08
2.33388077114e-08
9.31808151962e-08
2.27675181149e-06
2.3071217666e-06
2.06135637107e-06
1.72856089008e-06
1.39396640976e-06
1.10843184293e-06
8.85062757218e-07
7.10328846794e-07
5.61072786143e-07
4.15700740261e-07
2.63165464786e-07
1.23698583e-07
4.24181713657e-08
2.12416342893e-08
1.98362239932e-08
2.03098407671e-08
1.98482096956e-08
2.01620543515e-08
2.25729483216e-08
5.48620142221e-08
2.38593473022e-06
2.43878328976e-06
2.19295859643e-06
1.84389264121e-06
1.4822016258e-06
1.16310604572e-06
9.08603230028e-07
7.20723458662e-07
5.78381264458e-07
4.47984461765e-07
3.03197865202e-07
1.54113389033e-07
5.30453802558e-08
2.3029975996e-08
2.01022837656e-08
2.02008923353e-08
1.95509807501e-08
1.97635252762e-08
2.19228026451e-08
4.216482457e-08
2.50375867482e-06
2.56830919937e-06
2.30087413056e-06
1.94539292919e-06
1.58055973931e-06
1.23870256954e-06
9.54820917765e-07
7.48522124523e-07
6.06129631409e-07
4.87726918921e-07
3.52174218838e-07
1.94419897222e-07
6.84987807928e-08
2.56429492791e-08
2.04717108432e-08
2.01422635586e-08
1.93258306343e-08
1.92799835119e-08
2.11132312427e-08
2.91684967241e-08
2.56625384077e-06
2.62599787525e-06
2.34681952248e-06
2.00839020512e-06
1.67287661701e-06
1.32820138231e-06
1.01835050821e-06
7.86871416142e-07
6.35609769626e-07
5.25209214542e-07
4.01693681629e-07
2.40745803625e-07
8.90377595176e-08
2.93693151415e-08
2.10060324538e-08
2.0201850815e-08
1.92138546781e-08
1.88308847057e-08
2.02602195598e-08
2.64822831159e-08
2.54077595201e-06
2.60567444532e-06
2.34986930228e-06
2.04366416515e-06
1.73831428966e-06
1.40930924064e-06
1.08279960151e-06
8.24735141917e-07
6.6018914187e-07
5.53725358469e-07
4.42750187264e-07
2.85127458844e-07
1.12679674269e-07
3.42640556822e-08
2.16920623627e-08
2.03767747626e-08
1.92152054853e-08
1.85127527005e-08
1.94831959053e-08
2.42747354262e-08
2.53062923218e-06
2.61567778857e-06
2.36666246929e-06
2.07421903979e-06
1.78579557961e-06
1.46264624054e-06
1.12787664325e-06
8.52375092222e-07
6.77017609212e-07
5.71997639543e-07
4.70833082324e-07
3.19805678919e-07
1.35518230042e-07
4.00049632908e-08
2.25065173251e-08
2.05997559495e-08
1.92997620462e-08
1.83464379457e-08
1.88667469878e-08
2.24607467409e-08
2.53724137692e-06
2.63748650572e-06
2.38978505582e-06
2.10091889139e-06
1.81716148953e-06
1.49018486378e-06
1.14718528882e-06
8.65387863342e-07
6.87153507757e-07
5.83147367843e-07
4.86933382028e-07
3.40538724915e-07
1.52857499989e-07
4.58239041677e-08
2.33700058581e-08
2.07902054429e-08
1.94202666908e-08
1.82926067331e-08
1.84088186408e-08
2.09840907933e-08
2.5631088022e-06
2.67526300095e-06
2.42298998673e-06
2.12677725308e-06
1.83224992357e-06
1.49081107867e-06
1.14240863616e-06
8.65983613173e-07
6.93506896472e-07
5.91371934802e-07
4.95613599553e-07
3.49196667771e-07
1.60925983612e-07
4.95788295228e-08
2.40950267465e-08
2.08965652097e-08
1.95318452682e-08
1.82981551734e-08
1.80658316519e-08
1.97819868997e-08
2.62000885421e-06
2.74703496627e-06
2.48175211782e-06
2.16001357762e-06
1.8317053716e-06
1.46476959089e-06
1.1176446539e-06
8.58389123484e-07
6.98279694419e-07
5.98251084564e-07
4.9894391461e-07
3.48347517797e-07
1.60666376432e-07
5.04659078738e-08
2.43484636559e-08
2.09083574675e-08
1.96072024093e-08
1.83223666982e-08
1.7790867607e-08
1.88057050658e-08
2.73625085821e-06
2.87410227665e-06
2.57832732331e-06
2.20172018757e-06
1.81445816769e-06
1.42441939653e-06
1.08787682582e-06
8.5235321428e-07
7.04818554709e-07
6.03832353449e-07
4.96858541946e-07
3.39903652095e-07
1.54528731238e-07
4.92733609754e-08
2.42533514307e-08
2.085523566e-08
1.96473082348e-08
1.83427426026e-08
1.75476118657e-08
1.79805798917e-08
2.8988947013e-06
3.05139754116e-06
2.71513330027e-06
2.25056464028e-06
1.78869851616e-06
1.38835943185e-06
1.0755935694e-06
8.58659138101e-07
7.1500110653e-07
6.06712739727e-07
4.89294465502e-07
3.27108095096e-07
1.46243521779e-07
4.77019434079e-08
2.42613981999e-08
2.08170707441e-08
1.96764374063e-08
1.83433743873e-08
1.73326702591e-08
1.73060590619e-08
3.16857921096e-06
3.34914842406e-06
2.94692428444e-06
2.33973570269e-06
1.79191382859e-06
1.38185011125e-06
1.09023882571e-06
8.8149802242e-07
7.27936013052e-07
6.06263171782e-07
4.79491599927e-07
3.15378234589e-07
1.40465676778e-07
4.83097759276e-08
2.50043978335e-08
2.08838576646e-08
1.97209675361e-08
1.83400098418e-08
1.71643310969e-08
1.6780732739e-08
3.68594691844e-06
3.83895743826e-06
3.25135318829e-06
2.47336857801e-06
1.86752351106e-06
1.44199356852e-06
1.14019363004e-06
9.1371662377e-07
7.41197144827e-07
6.05914947254e-07
4.74411512089e-07
3.12042876194e-07
1.43848920353e-07
5.27501245439e-08
2.66299057161e-08
2.11406586929e-08
1.97739447277e-08
1.83466345407e-08
1.70503531011e-08
1.64086007629e-08
3.78121936521e-06
4.07894057628e-06
3.46867175172e-06
2.68344702926e-06
2.05743400909e-06
1.58989039769e-06
1.2356411354e-06
9.6300382882e-07
7.60956525463e-07
6.12709156811e-07
4.79980022684e-07
3.21547596646e-07
1.56194571331e-07
6.04154712014e-08
2.91727856451e-08
2.16104260663e-08
1.98267928786e-08
1.83705989438e-08
1.70039357591e-08
1.61777847323e-08
3.24599274826e-06
4.02524560993e-06
3.66474070389e-06
2.97795883002e-06
2.32295340976e-06
1.78688605431e-06
1.36062718451e-06
1.03120776323e-06
7.93618959838e-07
6.29335939201e-07
4.94051045629e-07
3.38762956571e-07
1.73193708795e-07
6.99578203124e-08
3.23426615562e-08
2.21708648175e-08
1.9833156812e-08
1.83838013672e-08
1.70020833134e-08
1.6031400842e-08
3.0982840842e-06
4.06259825027e-06
3.85242677568e-06
3.20903831029e-06
2.53983960676e-06
1.9583436945e-06
1.47893833818e-06
1.10372985819e-06
8.33961336517e-07
6.51605571329e-07
5.09954865464e-07
3.54843275783e-07
1.88230439159e-07
7.85140193322e-08
3.51526604489e-08
2.25836431068e-08
1.97098552771e-08
1.83238937492e-08
1.69850633709e-08
1.59237292336e-08
2.99799556907e-06
4.08142942383e-06
3.97472405069e-06
3.36748106996e-06
2.69310388793e-06
2.08098239185e-06
1.56588400612e-06
1.16059396641e-06
8.68736266414e-07
6.71433178787e-07
5.21464522132e-07
3.62956824184e-07
1.94963437057e-07
8.25681946936e-08
3.6414443254e-08
2.25852049335e-08
1.93916106024e-08
1.81464024944e-08
1.69405144867e-08
1.58575965631e-08
2.90870434852e-06
4.07099753082e-06
4.01411176281e-06
3.42330227004e-06
2.75204802818e-06
2.12880817971e-06
1.60000708058e-06
1.18520615063e-06
8.86655250016e-07
6.81829706156e-07
5.24178950817e-07
3.59898109366e-07
1.91217557761e-07
8.1034485261e-08
3.5770942427e-08
2.20843776178e-08
1.8896842523e-08
1.78475883526e-08
1.68835970754e-08
1.58474369242e-08
2.84659931489e-06
4.06712903738e-06
3.9771237131e-06
3.36412051099e-06
2.70611196131e-06
2.09575865547e-06
1.57913464955e-06
1.17644175592e-06
8.85800022652e-07
6.80664155344e-07
5.16803390592e-07
3.45364343651e-07
1.78390795214e-07
7.51108121836e-08
3.36827000028e-08
2.11775631757e-08
1.82533770093e-08
1.74753168557e-08
1.68327013947e-08
1.59212052196e-08
2.77290807407e-06
3.92433931943e-06
3.74497168491e-06
3.18501736276e-06
2.57318855934e-06
2.00259107103e-06
1.51951621935e-06
1.14399986534e-06
8.68979290908e-07
6.68786940002e-07
5.00970429949e-07
3.21532742042e-07
1.59861060738e-07
6.71840792219e-08
3.10203918042e-08
2.00775423041e-08
1.75260839244e-08
1.70810223304e-08
1.67939072563e-08
1.60955239147e-08
2.70280416386e-06
3.67840217314e-06
3.4825040004e-06
2.96481234068e-06
2.40577284726e-06
1.88389779084e-06
1.44214067433e-06
1.09673463774e-06
8.39704838841e-07
6.50048604438e-07
4.78115816217e-07
2.91730842886e-07
1.40023254213e-07
5.94274504241e-08
2.85089396819e-08
1.90178632648e-08
1.68122256866e-08
1.66917857885e-08
1.67625485638e-08
1.6355258219e-08
2.62593059113e-06
3.43557969365e-06
3.25858415704e-06
2.76043015246e-06
2.2383379376e-06
1.76117624124e-06
1.35812071115e-06
1.03986769529e-06
8.07106821457e-07
6.31072713737e-07
4.50485153784e-07
2.6099154455e-07
1.22874727644e-07
5.33496966677e-08
2.66083383175e-08
1.81828444272e-08
1.6197134734e-08
1.6313365832e-08
1.6724760003e-08
1.66984045302e-08
2.50431669069e-06
3.22088653987e-06
3.05938349266e-06
2.56909268424e-06
2.07795939381e-06
1.64099058662e-06
1.27128490605e-06
9.86690401082e-07
7.85854963876e-07
6.15886830253e-07
4.21967757325e-07
2.35396295736e-07
1.11049582554e-07
4.96568415982e-08
2.55403631508e-08
1.76903262541e-08
1.57446995757e-08
1.59507159017e-08
1.66658029792e-08
1.71334488859e-08
2.32736044235e-06
2.97204719676e-06
2.82758254933e-06
2.37116226385e-06
1.92563502141e-06
1.53018563659e-06
1.20224474697e-06
9.60198057057e-07
7.82986745411e-07
6.04607526744e-07
3.98716360908e-07
2.19582408628e-07
1.05605274029e-07
4.85601836904e-08
2.53899915802e-08
1.75985887016e-08
1.55050567426e-08
1.56180428816e-08
1.6579196267e-08
1.76488948974e-08
2.12908554685e-06
2.64387889603e-06
2.5491416263e-06
2.18655582958e-06
1.80903031259e-06
1.46820280839e-06
1.18203061715e-06
9.67426824195e-07
7.928870813e-07
5.98015243562e-07
3.87243997269e-07
2.15712005499e-07
1.0669643113e-07
5.01365183881e-08
2.62092678269e-08
1.79044381697e-08
1.55087598377e-08
1.53499892437e-08
1.64822508584e-08
1.82019607265e-08
1.99482503314e-06
2.359766278e-06
2.37131749683e-06
2.11368975608e-06
1.80421348067e-06
1.49007796117e-06
1.20910950922e-06
9.93471157632e-07
8.069782135e-07
6.01294470928e-07
3.9274615692e-07
2.25196459445e-07
1.1485940874e-07
5.45497729711e-08
2.79429504493e-08
1.85245311596e-08
1.57485651538e-08
1.52551664132e-08
1.64067209211e-08
1.87213355382e-08
2.16892670217e-06
2.40675870427e-06
2.47296581495e-06
2.26473253826e-06
1.93888696048e-06
1.57201906018e-06
1.25467679826e-06
1.02453969628e-06
8.29769017989e-07
6.23430986751e-07
4.18923652004e-07
2.49637685669e-07
1.31259292752e-07
6.24131303853e-08
3.07879545894e-08
1.94807197944e-08
1.6198480043e-08
1.54576381151e-08
1.63769651037e-08
1.91571368957e-08
2.61278716967e-06
2.91350594319e-06
2.92924693371e-06
2.61152671484e-06
2.14275295576e-06
1.67594590282e-06
1.31684297824e-06
1.0729348046e-06
8.73582427539e-07
6.71210618161e-07
4.70363371508e-07
2.94446965711e-07
1.60710421115e-07
7.63159944369e-08
3.56111238705e-08
2.09749171852e-08
1.68239746943e-08
1.59561838604e-08
1.64952088915e-08
1.94928718143e-08
3.3454415176e-06
3.67998513022e-06
3.53183038291e-06
3.02006496418e-06
2.39367640566e-06
1.83892388897e-06
1.4347308046e-06
1.16324196498e-06
9.51307596738e-07
7.50540731132e-07
5.52734428264e-07
3.68187798527e-07
2.12226816637e-07
1.01770394666e-07
4.43668627205e-08
2.35165495573e-08
1.76788409271e-08
1.65685322071e-08
1.69695835459e-08
1.96516521814e-08
4.00068031725e-06
4.27720651216e-06
4.01436354834e-06
3.4383268021e-06
2.73923808237e-06
2.11684479577e-06
1.64563974636e-06
1.31701007686e-06
1.07104466233e-06
8.58816406054e-07
6.60303429697e-07
4.70579010515e-07
2.9316821977e-07
1.46984839286e-07
6.07570074026e-08
2.81798556832e-08
1.90345023083e-08
1.71983197739e-08
1.75871759169e-08
1.96338839328e-08
3.89707196231e-06
4.29725892345e-06
4.21414998528e-06
3.78924963919e-06
3.14893945371e-06
2.48380317655e-06
1.93780566648e-06
1.52964997761e-06
1.22558603224e-06
9.82425714605e-07
7.72588235506e-07
5.8026208378e-07
3.92707473829e-07
2.14571856687e-07
8.93674723013e-08
3.67682302014e-08
2.14533174085e-08
1.79505562533e-08
1.80686196118e-08
1.98247944849e-08
3.51633802019e-06
4.21440746539e-06
4.28759353383e-06
3.98272666688e-06
3.45855785109e-06
2.84950078884e-06
2.26610692238e-06
1.77141170997e-06
1.39499318033e-06
1.1067365221e-06
8.75129941336e-07
6.76275986507e-07
4.86323153105e-07
2.91752025743e-07
1.30861550653e-07
5.12266843966e-08
2.57238916904e-08
1.91246166713e-08
1.83966406356e-08
1.99887467411e-08
3.15872108016e-06
3.94324439598e-06
4.15537944418e-06
3.99577895833e-06
3.60713494371e-06
3.08720517529e-06
2.52526600708e-06
1.99516404016e-06
1.55859862318e-06
1.2234221243e-06
9.65725260543e-07
7.56284747394e-07
5.6358361723e-07
3.63627473993e-07
1.80211383711e-07
7.25603597688e-08
3.27288066474e-08
2.11734256198e-08
1.88261526607e-08
1.99727691558e-08
2.83384062627e-06
3.59455106931e-06
3.88477261075e-06
3.85911505802e-06
3.61066384272e-06
3.19588387145e-06
2.68297868352e-06
2.15871484403e-06
1.69445071585e-06
1.32664978734e-06
1.04609701584e-06
8.24795853964e-07
6.27224192054e-07
4.24469940422e-07
2.28810142007e-07
9.79595784716e-08
4.21738957162e-08
2.42026409822e-08
1.95781910964e-08
1.99269049978e-08
2.48438465811e-06
3.24049818361e-06
3.57055969472e-06
3.64106874466e-06
3.50875645999e-06
3.19131260319e-06
2.73913280666e-06
2.24287082949e-06
1.7810425212e-06
1.40279629441e-06
1.1106298847e-06
8.8131259779e-07
6.79456331293e-07
4.74308443144e-07
2.7140025589e-07
1.23470770876e-07
5.29238477418e-08
2.80143563277e-08
2.07218912754e-08
2.00267173193e-08
2.206893009e-06
2.95965973779e-06
3.2959018237e-06
3.41048981876e-06
3.34798092871e-06
3.10017044553e-06
2.70354633863e-06
2.24611321603e-06
1.80828530024e-06
1.44010982052e-06
1.15055605764e-06
9.21237163927e-07
7.1901585061e-07
5.13152537278e-07
3.05999670261e-07
1.46348681259e-07
6.37178655838e-08
3.22294469346e-08
2.21743977745e-08
2.03296545425e-08
2.05754389283e-06
2.77939995151e-06
3.09667399539e-06
3.20489146803e-06
3.15866762177e-06
2.94438881174e-06
2.59065535789e-06
2.17664640928e-06
1.77654089861e-06
1.43451122117e-06
1.16108790177e-06
9.41144784378e-07
7.43949046843e-07
5.39763875029e-07
3.30749828419e-07
1.64135794133e-07
7.30760795062e-08
3.62624442653e-08
2.37234408885e-08
2.07822114312e-08
1.95504384662e-06
2.68048315869e-06
2.97949778935e-06
3.03401528925e-06
2.95154536405e-06
2.73700327425e-06
2.41455107707e-06
2.04720627824e-06
1.69368445976e-06
1.38978130732e-06
1.14380977882e-06
9.41687934575e-07
7.54025974348e-07
5.52996026588e-07
3.43889421332e-07
1.74770563067e-07
7.95761624674e-08
3.94474378081e-08
2.50911084096e-08
2.12685075593e-08
1.9091654585e-06
2.71302797487e-06
2.95318611399e-06
2.88580226644e-06
2.72150707049e-06
2.48700187163e-06
2.19200621219e-06
1.87497028105e-06
1.5753900997e-06
1.31854385318e-06
1.10816285327e-06
9.29034281481e-07
7.51801898422e-07
5.52881863659e-07
3.44779284972e-07
1.77463758262e-07
8.24894973082e-08
4.13479603798e-08
2.6068912752e-08
2.16932918183e-08
1.94660764801e-06
2.87089976292e-06
2.93954665443e-06
2.70363843123e-06
2.45319892658e-06
2.20643089126e-06
1.94768455861e-06
1.68744737706e-06
1.44756794828e-06
1.2425540174e-06
1.07042833601e-06
9.12900110907e-07
7.40988749183e-07
5.40926661641e-07
3.35052273401e-07
1.73555820534e-07
8.22830206517e-08
4.20185771575e-08
2.66303774089e-08
2.20306291574e-08
2.05478443517e-06
3.01632828517e-06
2.89644034945e-06
2.50180932627e-06
2.17887456372e-06
1.93333379986e-06
1.72051475508e-06
1.52218209512e-06
1.34330404426e-06
1.18798252351e-06
1.04794364659e-06
9.00745962489e-07
7.24585726708e-07
5.20861553588e-07
3.19313247842e-07
1.66502068557e-07
8.04818411337e-08
4.19448783388e-08
2.68994560232e-08
2.23349921632e-08
2.15625619204e-06
3.02460532266e-06
2.82344435917e-06
2.32523087412e-06
1.95269369978e-06
1.71545472103e-06
1.5521867487e-06
1.41596647164e-06
1.29233587743e-06
1.17469172249e-06
1.04801668598e-06
8.93516626691e-07
7.06257710074e-07
4.9908276583e-07
3.04295333563e-07
1.60582040534e-07
7.88678467635e-08
4.16986296588e-08
2.70744309516e-08
2.27057097395e-08
2.2718506578e-06
2.87452229689e-06
2.70389028456e-06
2.2157199654e-06
1.82721477018e-06
1.59634978524e-06
1.47533145432e-06
1.3922207473e-06
1.30693253403e-06
1.20131641148e-06
1.06347937584e-06
8.91231700291e-07
6.92267949196e-07
4.83668896607e-07
2.96532749102e-07
1.59263447656e-07
7.89147331024e-08
4.18128917477e-08
2.73044949365e-08
2.31544965156e-08
2.49348142817e-06
2.8100820953e-06
2.62854928434e-06
2.19455033627e-06
1.81947975982e-06
1.59702774838e-06
1.50226373093e-06
1.44668891903e-06
1.36816284258e-06
1.24764437064e-06
1.08754638181e-06
8.97369797458e-07
6.8873388808e-07
4.8097516877e-07
3.0050638192e-07
1.65458064624e-07
8.21127525635e-08
4.26666264957e-08
2.75270290337e-08
2.36106693927e-08
2.70932272564e-06
2.91316919388e-06
2.70169371397e-06
2.29406342159e-06
1.92787825079e-06