/*--------------------------------*- C++ -*----------------------------------*\
| =========                 |                                                 |
| \\      /  F ield         | OpenFOAM: The Open Source CFD Toolbox           |
|  \\    /   O peration     | Version:  2312                                  |
|   \\  /    A nd           | Website:  www.openfoam.com                      |
|    \\/     M anipulation  |                                                 |
\*---------------------------------------------------------------------------*/
FoamFile
{
    version     2.0;
    format      ascii;
    arch        "LSB;label=32;scalar=64";
    class       volScalarField;
    location    "0.8/water";
    object      nut.gas;
}
// * * * * * * * * * * * * * * * * * * * * * * * * * * * * * * * * * * * * * //

dimensions      [0 2 -1 0 0 0 0];

internalField   nonuniform List<scalar> 
6000
(
3.14685929312e-07
1.1928105887e-07
4.84760566603e-08
3.29933106281e-08
1.36301033756e-07
1.02023954398e-06
4.19927799231e-06
9.27171973793e-06
1.38538947279e-05
1.67539353255e-05
1.82738951812e-05
1.89818051911e-05
1.92781784493e-05
1.93847524923e-05
1.94112355215e-05
1.94078392218e-05
1.93959004371e-05
1.93836579873e-05
1.93737976755e-05
1.93668550137e-05
1.63892132815e-06
9.86709664918e-07
4.72433243686e-07
2.41435393304e-07
9.73340851561e-08
7.38622384065e-08
1.71555487825e-07
1.01769573598e-06
4.30272335267e-06
9.64856142301e-06
1.4236466941e-05
1.70250322999e-05
1.84404879658e-05
1.90764095903e-05
1.93275088274e-05
1.94063215333e-05
1.94157286944e-05
1.94018169217e-05
1.93836442964e-05
1.93682503968e-05
2.27328928599e-06
1.64386731207e-06
1.01461757133e-06
5.48702508899e-07
2.940127099e-07
1.3678990472e-07
1.00455905498e-07
2.49693219429e-07
1.3464263276e-06
4.7782879903e-06
9.78296659564e-06
1.41017880508e-05
1.68726897864e-05
1.83671564473e-05
1.90758493357e-05
1.93688920724e-05
1.94650204057e-05
1.94780350512e-05
1.94619947841e-05
1.944047137e-05
2.68539005458e-06
2.04388717309e-06
1.39201703346e-06
8.50302595847e-07
5.48417699856e-07
2.55455897866e-07
1.35660514063e-07
1.33252585735e-07
5.10001079353e-07
2.36768162866e-06
6.41447945861e-06
1.11294133416e-05
1.48737518201e-05
1.72521695824e-05
1.85542205305e-05
1.91824413848e-05
1.94438588539e-05
1.95270644799e-05
1.9534115558e-05
1.95151721131e-05
2.96637458718e-06
2.33091929023e-06
1.66385816936e-06
1.10455526841e-06
6.59604048684e-07
4.37556286727e-07
1.88725392809e-07
1.22914765876e-07
2.4399599044e-07
1.21518522189e-06
4.17535444046e-06
8.60603017094e-06
1.28244567727e-05
1.59068263628e-05
1.78097070663e-05
1.88413532628e-05
1.9334141391e-05
1.95332318781e-05
1.9589835143e-05
1.95867496379e-05
3.1090532413e-06
2.5229848626e-06
1.86953480566e-06
1.30321647247e-06
8.45032266078e-07
4.81175760291e-07
2.94907323005e-07
1.27401233156e-07
1.46743682899e-07
6.36788324173e-07
2.70703796108e-06
6.59630810907e-06
1.09245811411e-05
1.44842542892e-05
1.69137694262e-05
1.83614539871e-05
1.9126346232e-05
1.94797986925e-05
1.96127926665e-05
1.96411788416e-05
3.16365096932e-06
2.64290571997e-06
2.02125200418e-06
1.45658241974e-06
9.90017174407e-07
6.16696404391e-07
3.27400070157e-07
1.70026043357e-07
9.91545615829e-08
3.26536711108e-07
1.71566663673e-06
5.00655374741e-06
9.2305060968e-06
1.30787311713e-05
1.59352373343e-05
1.77753274528e-05
1.88285760561e-05
1.93636481323e-05
1.95967123324e-05
1.96723906187e-05
3.20305774168e-06
2.72220711021e-06
2.12183798087e-06
1.56133196943e-06
1.09482951387e-06
7.23651919048e-07
4.23336946602e-07
2.21117496665e-07
9.27942831171e-08
1.50505854644e-07
1.00021143951e-06
3.70226762165e-06
7.71300179876e-06
1.17247184785e-05
1.49211078343e-05
1.71161952284e-05
1.84569782366e-05
1.91897442604e-05
1.95414965726e-05
1.96785293518e-05
3.28261045094e-06
2.80316350349e-06
2.19253523436e-06
1.62749051341e-06
1.16720087506e-06
8.06941273095e-07
5.12816720043e-07
2.6523483073e-07
1.29922482051e-07
7.46144745e-08
4.59762501968e-07
2.53180489913e-06
6.28025019352e-06
1.04019990071e-05
1.38903984547e-05
1.64099454215e-05
1.80301623345e-05
1.8967923997e-05
1.94508468081e-05
1.96605019395e-05
3.40156166871e-06
2.87680468976e-06
2.22635525754e-06
1.65852475316e-06
1.2152321137e-06
8.7227099438e-07
5.90056987062e-07
3.4203766072e-07
1.43874602526e-07
6.7895107763e-08
1.48719808328e-07
1.4019746394e-06
4.79015087272e-06
9.03208487047e-06
1.28260814551e-05
1.56659948577e-05
1.75616277729e-05
1.87077945307e-05
1.93301583766e-05
1.96203564146e-05
3.41371882687e-06
2.83571049154e-06
2.20477895855e-06
1.66933825246e-06
1.2504582637e-06
9.24877451779e-07
6.56997397806e-07
4.16189898912e-07
2.01896254603e-07
7.55139187532e-08
5.8941377758e-08
4.91484818771e-07
3.14839908069e-06
7.50326912918e-06
1.16798376151e-05
1.48771031733e-05
1.70579379008e-05
1.84169493667e-05
1.91837016543e-05
1.95594628721e-05
3.4126949359e-06
2.82970190234e-06
2.20757535392e-06
1.6854481749e-06
1.28015516421e-06
9.67633389111e-07
7.14059198523e-07
4.84980417608e-07
2.65119114273e-07
9.52282867488e-08
4.99055592031e-08
1.14817295823e-07
1.50163813208e-06
5.7168455312e-06
1.03727439184e-05
1.40114305771e-05
1.65111221991e-05
1.809501582e-05
1.90119326885e-05
1.94773600863e-05
3.39329556776e-06
2.82379253667e-06
2.21017848132e-06
1.69769955767e-06
1.30313973312e-06
1.00208273775e-06
7.61800671589e-07
5.45361881959e-07
3.25462315653e-07
1.27311112556e-07
4.13262311278e-08
5.09875377347e-08
4.1358102166e-07
3.70391023757e-06
8.83370390259e-06
1.30193178845e-05
1.5896693656e-05
1.77311614504e-05
1.88103268122e-05
1.9371532538e-05
3.37723783222e-06
2.81345979364e-06
2.20520632404e-06
1.70050305872e-06
1.31606026072e-06
1.02733734793e-06
8.00633961299e-07
5.96052171618e-07
3.77394074791e-07
1.57188599041e-07
4.67885460199e-08
3.47470798159e-08
1.08891678373e-07
1.84266068316e-06
7.09906124613e-06
1.18576726824e-05
1.51772900987e-05
1.73050584498e-05
1.85700799308e-05
1.92380289343e-05
3.35755615311e-06
2.804275584e-06
2.19864322585e-06
1.69700893525e-06
1.32138712832e-06
1.0455266816e-06
8.3226267077e-07
6.37617884858e-07
4.1864377803e-07
1.81021786969e-07
5.12343419412e-08
2.81209060027e-08
6.09688711791e-08
6.45082635027e-07
5.25347758607e-06
1.04931276549e-05
1.43004929096e-05
1.67882977236e-05
1.82790253247e-05
1.90720048943e-05
3.35350000271e-06
2.80208735791e-06
2.19525566674e-06
1.69322395184e-06
1.32480559051e-06
1.06142154422e-06
8.60318955377e-07
6.72264825247e-07
4.4979567738e-07
1.98622350001e-07
5.48720718022e-08
2.6444139503e-08
4.0345446696e-08
2.28285103148e-07
3.48815837103e-06
8.88702771281e-06
1.32093942853e-05
1.61482296787e-05
1.79220785383e-05
1.88676660116e-05
3.35591393272e-06
2.80843701665e-06
2.19890888844e-06
1.69656434483e-06
1.33446307325e-06
1.08126022121e-06
8.88652973871e-07
7.02579198649e-07
4.73680787866e-07
2.13461240669e-07
5.95192072023e-08
2.57837145166e-08
2.6869009148e-08
1.03549286416e-07
1.8806803836e-06
6.98439352061e-06
1.18488942555e-05
1.53474328796e-05
1.74802782015e-05
1.86175522167e-05
3.38264792946e-06
2.8288249994e-06
2.21559176064e-06
1.7149965756e-06
1.35786546723e-06
1.10961943615e-06
9.19135375201e-07
7.30109250625e-07
4.94195060054e-07
2.30362264952e-07
6.77046278995e-08
2.67568002891e-08
2.3568762334e-08
5.53966233491e-08
8.34854008043e-07
4.96614768897e-06
1.01994854338e-05
1.43470932668e-05
1.69305437998e-05
1.83117115274e-05
3.42648145485e-06
2.8598291908e-06
2.2478530015e-06
1.75389386557e-06
1.3986951947e-06
1.14695163995e-06
9.51299102831e-07
7.5549295123e-07
5.15221824076e-07
2.54716220151e-07
8.24564065154e-08
2.93392157141e-08
2.27032227319e-08
3.97371581235e-08
3.20205114255e-07
3.06953479157e-06
8.27122983108e-06
1.31085876383e-05
1.62463188251e-05
1.79372309446e-05
3.47227419607e-06
2.92196747438e-06
2.33145592671e-06
1.83771960338e-06
1.46381692786e-06
1.19155554434e-06
9.81614428464e-07
7.76134890125e-07
5.38976769116e-07
2.91439094624e-07
1.03912029866e-07
3.34564106822e-08
2.30264614969e-08
2.86913643476e-08
1.0832908376e-07
1.58681061354e-06
6.18647895523e-06
1.16150444759e-05
1.54026924756e-05
1.74792013278e-05
3.59747903959e-06
3.10138298499e-06
2.51171669198e-06
1.97093527356e-06
1.54243126959e-06
1.23353998343e-06
1.0023299879e-06
7.90906649423e-07
5.69021180859e-07
3.36750287889e-07
1.32706288725e-07
3.90183339381e-08
2.37306324893e-08
2.55489847662e-08
5.38822214462e-08
6.3325076143e-07
4.188362655e-06
9.90043165002e-06
1.43873360865e-05
1.69243060378e-05
3.85139895015e-06
3.36848991228e-06
2.71888513305e-06
2.09332771234e-06
1.6043945466e-06
1.26132364399e-06
1.01429886401e-06
8.06183910173e-07
6.04075328445e-07
3.87964993336e-07
1.68402660488e-07
4.61862482306e-08
2.42764146317e-08
2.55620297345e-08
3.4828929267e-08
1.69027320689e-07
2.44721986728e-06
8.04902203408e-06
1.32034430797e-05
1.62628271304e-05
4.14979742426e-06
3.58254235892e-06
2.82522452585e-06
2.14584249446e-06
1.6382844414e-06
1.28065498054e-06
1.02452212436e-06
8.23708936225e-07
6.42186599154e-07
4.42611780826e-07
2.09861382445e-07
5.51936274891e-08
2.45815383209e-08
2.50353717553e-08
3.24812289685e-08
8.24914539803e-08
1.03035571321e-06
6.18238965284e-06
1.18729342828e-05
1.54895681615e-05
4.2537250987e-06
3.58950179812e-06
2.81672318732e-06
2.15203613819e-06
1.653927056e-06
1.29393084928e-06
1.03394027875e-06
8.40659159379e-07
6.78073783256e-07
4.95616034282e-07
2.54332319145e-07
6.62020228595e-08
2.50764235309e-08
2.41094817899e-08
3.03837840302e-08
4.88852869897e-08
2.96209827505e-07
4.3109007701e-06
1.04235323485e-05
1.46015615547e-05
4.30224861002e-06
3.60946376237e-06
2.82385500256e-06
2.16289912407e-06
1.66651101025e-06
1.30357842844e-06
1.04112664432e-06
8.54189630811e-07
7.07989417175e-07
5.41742929211e-07
2.96636189617e-07
7.91747565484e-08
2.59826762271e-08
2.33554430896e-08
2.81320144838e-08
4.04070298981e-08
1.3680658901e-07
2.46140592806e-06
8.8712380571e-06
1.35937644541e-05
4.33743232776e-06
3.63259139825e-06
2.84135154331e-06
2.17841567507e-06
1.6788487571e-06
1.31252523853e-06
1.04857173954e-06
8.66576916225e-07
7.33944385828e-07
5.79911894953e-07
3.32015817441e-07
9.32310669656e-08
2.76073649604e-08
2.30794684506e-08
2.64378516041e-08
3.42185926113e-08
9.36412976816e-08
1.10143141515e-06
7.20569951675e-06
1.2453945739e-05
4.33502750699e-06
3.64362010045e-06
2.85630910617e-06
2.19139080264e-06
1.68844576067e-06
1.31993914538e-06
1.05623743171e-06
8.80063166012e-07
7.58543040494e-07
6.10899869365e-07
3.60650040841e-07
1.07416288738e-07
3.00096410863e-08
2.32787815332e-08
2.5555725502e-08
3.02311928772e-08
5.51646951048e-08
4.57848269178e-07
5.48077753095e-06
1.11773357614e-05
4.32861949836e-06
3.64584306734e-06
2.86378117674e-06
2.19754113768e-06
1.69375787186e-06
1.32560366187e-06
1.06478846949e-06
8.96185599357e-07
7.82314675804e-07
6.35271616886e-07
3.82155993416e-07
1.20156220523e-07
3.27967632443e-08
2.37887755292e-08
2.54121821983e-08
2.81963545966e-08
3.85690116991e-08
2.11296369439e-07
3.8147107217e-06
9.768297775e-06
4.31967699361e-06
3.64688947711e-06
2.86433826714e-06
2.19584993136e-06
1.69394812691e-06
1.32951306416e-06
1.07463771376e-06
9.1444573804e-07
8.03935402417e-07
6.5270376098e-07
3.95165693509e-07
1.29078552397e-07
3.51742706676e-08
2.44057033774e-08
2.57187551659e-08
2.74761991491e-08
3.27163566647e-08
1.13874236803e-07
2.31333299048e-06
8.2311990803e-06
4.33509665314e-06
3.65401052044e-06
2.86573466838e-06
2.19212690074e-06
1.69119157111e-06
1.33185518358e-06
1.08495798868e-06
9.32743731831e-07
8.21506577785e-07
6.62049011546e-07
3.97877429092e-07
1.32256663719e-07
3.64005598048e-08
2.48995168769e-08
2.6084062627e-08
2.74185173e-08
3.01412256617e-08
7.38069117356e-08
1.15830903899e-06
6.6192202604e-06
4.33862389158e-06
3.66098389052e-06
2.86880090162e-06
2.18817241109e-06
1.68606271094e-06
1.33196384545e-06
1.09445993382e-06
9.48936905386e-07
8.33486790027e-07
6.61932635531e-07
3.89679667506e-07
1.29551398092e-07
3.62641827738e-08
2.50685719454e-08
2.63077288184e-08
2.76502698447e-08
2.91021470611e-08
5.11237097479e-08
4.92019415637e-07
5.03718309248e-06
4.35043987328e-06
3.66562664291e-06
2.86838128733e-06
2.18106056381e-06
1.67771967942e-06
1.32958387173e-06
1.10249121407e-06
9.61666433315e-07
8.39012767117e-07
6.51737875565e-07
3.7251238718e-07
1.23247055507e-07
3.53871650678e-08
2.50412386937e-08
2.6439199218e-08
2.77875531105e-08
2.85963584189e-08
3.48328444901e-08
2.09649210218e-07
3.54524563909e-06
4.34315559852e-06
3.65774305573e-06
2.85569428693e-06
2.16649013707e-06
1.66637409007e-06
1.32652494409e-06
1.10980991796e-06
9.7100524683e-07
8.37593577616e-07
6.31700907826e-07
3.50052034683e-07
1.16380006295e-07
3.46009749309e-08
2.50172902508e-08
2.64998744995e-08
2.77918789566e-08
2.8245945041e-08
3.12123833653e-08
1.07027376295e-07
2.23023767052e-06
4.34445292008e-06
3.63514240778e-06
2.82478335763e-06
2.14226196685e-06
1.65387368291e-06
1.3265381155e-06
1.11866748485e-06
9.77947067478e-07
8.28541753492e-07
6.04047925148e-07
3.27238153483e-07
1.11550206035e-07
3.4633651532e-08
2.51565768055e-08
2.65175876389e-08
2.7740525361e-08
2.80037608468e-08
2.93774662518e-08
6.85048396561e-08
1.24661798103e-06
4.31211136539e-06
3.57564242892e-06
2.77366040964e-06
2.11692117718e-06
1.6511904257e-06
1.33754314508e-06
1.13343320466e-06
9.83655835399e-07
8.11944303929e-07
5.73980470508e-07
3.09524109155e-07
1.10866309801e-07
3.62770151883e-08
2.55539267022e-08
2.65370156486e-08
2.77353349616e-08
2.79242849847e-08
2.85201253078e-08
5.29466177362e-08
6.26795822631e-07
4.19072022927e-06
3.46311210341e-06
2.72563385259e-06
2.12155947332e-06
1.68004852028e-06
1.37041415746e-06
1.15805393271e-06
9.86881333362e-07
7.90176714117e-07
5.49219620712e-07
3.01984476311e-07
1.17205445429e-07
4.02773205725e-08
2.62370026283e-08
2.6605910787e-08
2.78139483932e-08
2.7918555244e-08
2.82161259515e-08
3.80093220698e-08
2.83517470325e-07
4.06395621413e-06
3.40861858412e-06
2.75307652401e-06
2.19385215844e-06
1.75642704196e-06
1.43002070859e-06
1.18911951597e-06
9.83293859535e-07
7.70173512234e-07
5.40381421105e-07
3.12269730779e-07
1.33046889362e-07
4.67772337617e-08
2.73432021251e-08
2.67693109058e-08
2.7895763861e-08
2.78050885286e-08
2.81628970405e-08
3.20210155642e-08
1.26222872686e-07
4.05567014124e-06
3.48274476184e-06
2.87711180357e-06
2.33073392361e-06
1.86902256092e-06
1.50312564598e-06
1.21597996116e-06
9.78532714349e-07
7.65050903193e-07
5.55834217088e-07
3.44039167285e-07
1.6028447951e-07
5.67544381651e-08
2.91035143616e-08
2.70414112485e-08
2.7879165437e-08
2.75083840214e-08
2.80406607559e-08
3.12985854201e-08
7.41507748972e-08
4.19393193736e-06
3.66740040171e-06
3.0653004182e-06
2.49585519971e-06
1.99546605013e-06
1.5852767333e-06
1.2513748608e-06
9.89113691032e-07
7.82828408058e-07
5.96416269827e-07
3.97893380324e-07
2.0206468325e-07
7.20467708334e-08
3.18466732458e-08
2.74356695491e-08
2.77661410651e-08
2.71555922073e-08
2.76003360257e-08
3.06882641015e-08
5.75764612972e-08
4.42452912467e-06
3.90340974821e-06
3.24969893301e-06
2.64653981978e-06
2.13235861834e-06
1.69063233334e-06
1.31485608091e-06
1.02596196269e-06
8.20089574658e-07
6.52452017537e-07
4.681932362e-07
2.5996150796e-07
9.50805058098e-08
3.60555657266e-08
2.80344872767e-08
2.76954518264e-08
2.68623374935e-08
2.69322508681e-08
2.97573384756e-08
4.09070491523e-08
4.67574166231e-06
4.08276781407e-06
3.34489480096e-06
2.73362062969e-06
2.25392027392e-06
1.81177434056e-06
1.4055903618e-06
1.08384707804e-06
8.64721148272e-07
7.08481054769e-07
5.42171824198e-07
3.29266648353e-07
1.27043610651e-07
4.23480758633e-08
2.89547868756e-08
2.7805988082e-08
2.67083683142e-08
2.62806832473e-08
2.8589436519e-08
3.76963642126e-08
4.72473862203e-06
4.07672225536e-06
3.3445913757e-06
2.76661564038e-06
2.33101917978e-06
1.91940381557e-06
1.5022347471e-06
1.14669960082e-06
9.05512418622e-07
7.52709531568e-07
6.05284742381e-07
3.9817034934e-07
1.65450961671e-07
5.10550230811e-08
3.02805895202e-08
2.81318943216e-08
2.67222905258e-08
2.58022202659e-08
2.74121570263e-08
3.47726085381e-08
4.74635238131e-06
4.09795779247e-06
3.3594783614e-06
2.79054021856e-06
2.38205674724e-06
1.99082085758e-06
1.57445898109e-06
1.1984774921e-06
9.36721198027e-07
7.8212127766e-07
6.49784174105e-07
4.54416761589e-07
2.04434881419e-07
6.19362653472e-08
3.20844490264e-08
2.85815879812e-08
2.68769543111e-08
2.55387098258e-08
2.64215899194e-08
3.21521972348e-08
4.75236854016e-06
4.11506176217e-06
3.37414587027e-06
2.80764813926e-06
2.41507459002e-06
2.03429399479e-06
1.61637991694e-06
1.23067206387e-06
9.58236575597e-07
8.00913936295e-07
6.7697039454e-07
4.91749093379e-07
2.3730125119e-07
7.42306063113e-08
3.43984716273e-08
2.90547229762e-08
2.71251301857e-08
2.54549484348e-08
2.56641256575e-08
2.98951605833e-08
4.76269946967e-06
4.13003104202e-06
3.3866143041e-06
2.81878341312e-06
2.43347523686e-06
2.05599509665e-06
1.63616458369e-06
1.24854110341e-06
9.74459649392e-07
8.16052864163e-07
6.94738972732e-07
5.13543130702e-07
2.58760123231e-07
8.48398490074e-08
3.69465000407e-08
2.95146225566e-08
2.74047268149e-08
2.54751303013e-08
2.51000175603e-08
2.80364529611e-08
4.76284903803e-06
4.14528116412e-06
3.4004387765e-06
2.82791466436e-06
2.44209133913e-06
2.06150334238e-06
1.63984870425e-06
1.25687994391e-06
9.88317769587e-07
8.30899283281e-07
7.08102097613e-07
5.25185715633e-07
2.70325830031e-07
9.20886427165e-08
3.90247725272e-08
2.98866597696e-08
2.76554604532e-08
2.55366758472e-08
2.46694694612e-08
2.64842738238e-08
4.77748329095e-06
4.1675919437e-06
3.41837062111e-06
2.83965234382e-06
2.44583631816e-06
2.05639730804e-06
1.63438720491e-06
1.26209681686e-06
1.00338056101e-06
8.47106332655e-07
7.18802028049e-07
5.29657383731e-07
2.74639051034e-07
9.62599979813e-08
4.04992157859e-08
3.0138583737e-08
2.78321408537e-08
2.55978710282e-08
2.4316563566e-08
2.51857901624e-08
4.78761087946e-06
4.18977035162e-06
3.43618097469e-06
2.8533673614e-06
2.44677114921e-06
2.04579988816e-06
1.62705812912e-06
1.26948170064e-06
1.021332355e-06
8.64242171385e-07
7.26679766758e-07
5.28820468782e-07
2.7425084598e-07
9.82854637175e-08
4.1491268941e-08
3.02955854278e-08
2.79346747251e-08
2.56389652156e-08
2.40296571044e-08
2.41386154416e-08
4.83281879712e-06
4.22389124965e-06
3.45664113897e-06
2.86589871218e-06
2.44393248658e-06
2.03263256482e-06
1.62139804078e-06
1.2801214555e-06
1.04120513291e-06
8.80653339226e-07
7.31292308588e-07
5.24277243268e-07
2.71226575559e-07
9.90843338964e-08
4.22084693938e-08
3.04016117327e-08
2.79726447725e-08
2.56803240557e-08
2.38182801354e-08
2.33309043155e-08
4.89842770223e-06
4.27650404574e-06
3.49086998182e-06
2.88408731714e-06
2.44108913044e-06
2.01912761156e-06
1.61757488712e-06
1.29246812729e-06
1.06103075402e-06
8.94742353011e-07
7.32410214664e-07
5.17081476906e-07
2.66667328465e-07
9.91707434432e-08
4.28167421054e-08
3.04998806449e-08
2.79786918694e-08
2.57356671601e-08
2.36601055202e-08
2.27399564491e-08
4.97968451749e-06
4.35181892142e-06
3.55445593576e-06
2.92349686824e-06
2.44789559862e-06
2.01002624671e-06
1.61647118697e-06
1.30547826121e-06
1.0791211729e-06
9.05121771653e-07
7.29633154628e-07
5.07526645604e-07
2.60514706714e-07
9.86725856896e-08
4.34565018682e-08
3.06381441507e-08
2.79480603449e-08
2.57702951044e-08
2.35371057397e-08
2.23464909451e-08
5.11955260477e-06
4.51629244118e-06
3.6978386957e-06
3.00918246638e-06
2.47385099855e-06
2.00993238786e-06
1.62024971298e-06
1.31910916519e-06
1.09399753228e-06
9.10351433208e-07
7.22595673743e-07
4.95123152896e-07
2.52035127007e-07
9.79000541533e-08
4.42571242053e-08
3.08018544426e-08
2.78299159413e-08
2.57477394476e-08
2.34480554149e-08
2.20736122977e-08
5.43903302743e-06
4.8522847228e-06
3.95499113433e-06
3.13833386725e-06
2.51109717126e-06
2.0187514924e-06
1.63142383538e-06
1.33379514248e-06
1.10435513637e-06
9.09747093384e-07
7.1179793362e-07
4.79002113652e-07
2.42034002144e-07
9.74646412696e-08
4.50995122467e-08
3.08348105779e-08
2.75760401022e-08
2.56334502051e-08
2.33401718755e-08
2.18521827422e-08
6.03408895198e-06
5.43571837487e-06
4.34097904645e-06
3.27974100445e-06
2.5350822408e-06
2.035825067e-06
1.65336818978e-06
1.35026957324e-06
1.11047560707e-06
9.05570589308e-07
6.99337300173e-07
4.61878193743e-07
2.33832771478e-07
9.75172438249e-08
4.56765040413e-08
3.06002194577e-08
2.71566285163e-08
2.5411338432e-08
2.3211640933e-08
2.16768899258e-08
7.05380202528e-06
6.24705614603e-06
4.74935436421e-06
3.41363416745e-06
2.57613324499e-06
2.0712000555e-06
1.68575378548e-06
1.3668937604e-06
1.11461466236e-06
9.02556781542e-07
6.90029781514e-07
4.49557918124e-07
2.2874797854e-07
9.75425954212e-08
4.56927092149e-08
3.0064665687e-08
2.65641192135e-08
2.50806127195e-08
2.30663582323e-08
2.15389752711e-08
7.76919176104e-06
6.82389362715e-06
5.09150040111e-06
3.61680628696e-06
2.69379656897e-06
2.13591239504e-06
1.71803198346e-06
1.38122220115e-06
1.11992159308e-06
9.04415702751e-07
6.8731844466e-07
4.42839922496e-07
2.24859709875e-07
9.65946972349e-08
4.49182829152e-08
2.9248614389e-08
2.5814650245e-08
2.46401004582e-08
2.29148892323e-08
2.14712927236e-08
7.95640879509e-06
7.1908021498e-06
5.54172392229e-06
3.95525088474e-06
2.86532147464e-06
2.19485925008e-06
1.73637905848e-06
1.38984577603e-06
1.12503674358e-06
9.08424619589e-07
6.87003857815e-07
4.36310598396e-07
2.188606653e-07
9.34969272706e-08
4.32610646126e-08
2.82054417459e-08
2.49336112323e-08
2.40930328414e-08
2.27769789932e-08
2.15201816511e-08
8.1314839327e-06
7.62536743258e-06
5.94302600918e-06
4.23863787023e-06
2.99998548363e-06
2.22649221266e-06
1.73533963274e-06
1.38763098189e-06
1.12430572312e-06
9.0789641968e-07
6.81595055907e-07
4.23881857349e-07
2.07937813844e-07
8.78060566899e-08
4.0893044001e-08
2.7026946955e-08
2.39724347541e-08
2.34659166095e-08
2.26626531567e-08
2.17085750443e-08
8.26105647185e-06
7.93253173917e-06
6.17450798699e-06
4.41578084465e-06
3.07734049505e-06
2.22608396462e-06
1.71330544158e-06
1.37175860321e-06
1.11466959017e-06
9.00485410056e-07
6.68102564181e-07
4.03783597051e-07
1.92459772372e-07
8.05372699648e-08
3.82760389641e-08
2.5858401128e-08
2.30233729482e-08
2.27996465915e-08
2.25575310707e-08
2.20329053644e-08
8.37249570739e-06
7.92949202693e-06
6.20871846805e-06
4.46256529845e-06
3.09178201995e-06
2.20060663026e-06
1.67642323201e-06
1.34282767094e-06
1.09898004228e-06
8.9135089587e-07
6.49018404458e-07
3.78461676132e-07
1.75661968252e-07
7.34760995929e-08
3.5946833351e-08
2.48706994358e-08
2.21924807593e-08
2.21366042289e-08
2.2434265176e-08
2.24680593586e-08
8.3522351889e-06
7.68575217065e-06
6.07486079017e-06
4.40166866878e-06
3.05394721704e-06
2.15627510667e-06
1.62826513642e-06
1.30853782265e-06
1.0872600811e-06
8.85267596129e-07
6.279301319e-07
3.52923464445e-07
1.60913871286e-07
6.79976238448e-08
3.42773411129e-08
2.41800158355e-08
2.15574131056e-08
2.15203721181e-08
2.22722853853e-08
2.3008459003e-08
7.94779159814e-06
7.22326376658e-06
5.78513921549e-06
4.22751531277e-06
2.94715297023e-06
2.07918354952e-06
1.57477562514e-06
1.28779906975e-06
1.09057578515e-06
8.84383601178e-07
6.07647889759e-07
3.31802099926e-07
1.50461788203e-07
6.46316692077e-08
3.33639204922e-08
2.38187293685e-08
2.11618349184e-08
2.0981106101e-08
2.20661033857e-08
2.3633170989e-08
7.31124869075e-06
6.65216203784e-06
5.3485797289e-06
3.91719773996e-06
2.75212251315e-06
1.97541167091e-06
1.54463990211e-06
1.29998136118e-06
1.11308493529e-06
8.8855070844e-07
5.9225023527e-07
3.18735774969e-07
1.45380025234e-07
6.34860872393e-08
3.31915901447e-08
2.37708960802e-08
2.10104492048e-08
2.05654230021e-08
2.18357229037e-08
2.42874995733e-08
6.4846836333e-06
5.88632717481e-06
4.71445094489e-06
3.47905191235e-06
2.51566681364e-06
1.9114678231e-06
1.57394559331e-06
1.35055599916e-06
1.15078816527e-06
8.97443258562e-07
5.8643451776e-07
3.16362763409e-07
1.46453419184e-07
6.47393339562e-08
3.3814630028e-08
2.40219111203e-08
2.10902170205e-08
2.03580927066e-08
2.1632109927e-08
2.48936048768e-08
5.55964271554e-06
4.91942688358e-06
3.97805492583e-06
3.06973079556e-06
2.39197879442e-06
1.96586315063e-06
1.67339787059e-06
1.43087168354e-06
1.19643679745e-06
9.1293987729e-07
5.95171356684e-07
3.27270270509e-07
1.54951613482e-07
6.90357882389e-08
3.55016122959e-08
2.46298362317e-08
2.13805402464e-08
2.04352092537e-08
2.15018533611e-08
2.53685673002e-08
4.68593169535e-06
4.09528935949e-06
3.5223510948e-06
2.95239898991e-06
2.50674812929e-06
2.15087104675e-06
1.82478934811e-06
1.52577194061e-06
1.24519897478e-06
9.40660400639e-07
6.24672384716e-07
3.56210941801e-07
1.74233951124e-07
7.8027228247e-08
3.8737301144e-08
2.57036365587e-08
2.18619425675e-08
2.08031424218e-08
2.14939223861e-08
2.56443816315e-08
4.35818913394e-06
3.92241126364e-06
3.61093387492e-06
3.23105066061e-06
2.83381270491e-06
2.41447077916e-06
1.99547393509e-06
1.62503424794e-06
1.3041880219e-06
9.93083509187e-07
6.84206205677e-07
4.10645058569e-07
2.09757564265e-07
9.44157445694e-08
4.45491835214e-08
2.75780051728e-08
2.25736659143e-08
2.134941514e-08
2.17723562018e-08
2.5655276851e-08
4.6640231164e-06
4.45673992976e-06
4.18194851859e-06
3.75200490559e-06
3.24172167634e-06
2.70523987652e-06
2.19568989087e-06
1.75937206006e-06
1.40006775004e-06
1.08320684904e-06
7.81367465785e-07
5.00693165192e-07
2.72217288191e-07
1.24808422592e-07
5.547728949e-08
3.10444734834e-08
2.37143715341e-08
2.19813991467e-08
2.23190394081e-08
2.54270731591e-08
5.47541862736e-06
5.28901414233e-06
4.86439101485e-06
4.30102217514e-06
3.70129026488e-06
3.08928434164e-06
2.50077797696e-06
1.98681979447e-06
1.56925601932e-06
1.22740701797e-06
9.2373425724e-07
6.36830170571e-07
3.77671177405e-07
1.82465086435e-07
7.72933102735e-08
3.79037184666e-08
2.58418727746e-08
2.2798294617e-08
2.29312885166e-08
2.5455921683e-08
6.30560824424e-06
5.88811787834e-06
5.28818705121e-06
4.72244632892e-06
4.17093892901e-06
3.56673125973e-06
2.92749480228e-06
2.33490427791e-06
1.83616592355e-06
1.43477614969e-06
1.10473835273e-06
8.09972811102e-07
5.30241620268e-07
2.83400055884e-07
1.20920545495e-07
5.20035776104e-08
3.01774516887e-08
2.42082055263e-08
2.35948940283e-08
2.57904362564e-08
6.387643228e-06
5.84488052929e-06
5.26071397822e-06
4.82289705876e-06
4.43522565211e-06
3.9590289758e-06
3.35369489409e-06
2.72312391849e-06
2.15203032638e-06
1.67758949221e-06
1.29816986957e-06
9.85506729205e-07
6.98887997644e-07
4.20995305586e-07
1.96107832406e-07
7.9430796528e-08
3.88269079065e-08
2.69695883639e-08
2.45736146577e-08
2.62705177005e-08
5.95312056492e-06
5.67867764223e-06
5.18181819118e-06
4.812798561e-06
4.51559911435e-06
4.14304573129e-06
3.62908457121e-06
3.02926322705e-06
2.42443355021e-06
1.89485662441e-06
1.4676744751e-06
1.13183142048e-06
8.43090502914e-07
5.58301838056e-07
2.93542863061e-07
1.23944459718e-07
5.42445270128e-08
3.20215220295e-08
2.62441811955e-08
2.68631717787e-08
5.38470392375e-06
5.39349553216e-06
5.01205323971e-06
4.7052795904e-06
4.47663204464e-06
4.18062038861e-06
3.7360937364e-06
3.17699916305e-06
2.58304591594e-06
2.03607792943e-06
1.58561618111e-06
1.23588209584e-06
9.48362503415e-07
6.68465785325e-07
3.87840084228e-07
1.77364173458e-07
7.52139431234e-08
3.91389201973e-08
2.85926192641e-08
2.75684381926e-08
5.1225312323e-06
5.20751655141e-06
4.83193645937e-06
4.53517619744e-06
4.34929398517e-06
4.10753045534e-06
3.71416978499e-06
3.19471538914e-06
2.62768092569e-06
2.09205350054e-06
1.64396159671e-06
1.29603533989e-06
1.01520308969e-06
7.43186842354e-07
4.58433342357e-07
2.23717596848e-07
9.59765429681e-08
4.67357055547e-08
3.12296142713e-08
2.83827250604e-08
4.92853057464e-06
5.05153361241e-06
4.66629424202e-06
4.34718062069e-06
4.17069237142e-06
3.95439139357e-06
3.59162448356e-06
3.10611050512e-06
2.57461690997e-06
2.07010700238e-06
1.64633485164e-06
1.31673924e-06
1.04956684804e-06
7.8589421739e-07
5.00742220812e-07
2.54138300926e-07
1.11275999418e-07
5.29109051955e-08
3.35566736663e-08
2.91749274187e-08
4.77007606256e-06
4.94011321059e-06
4.54795610247e-06
4.17840701324e-06
3.97168715426e-06
3.74859177496e-06
3.39643391834e-06
2.93969015688e-06
2.44913612229e-06
1.98940504924e-06
1.60658836122e-06
1.30848222307e-06
1.05992408298e-06
8.02498478582e-07
5.1671746569e-07
2.66512534979e-07
1.18638478448e-07
5.64528362342e-08
3.51107776966e-08
2.97867167223e-08
4.63900976522e-06
4.89603844851e-06
4.52198277795e-06
4.05720408177e-06
3.76938111168e-06
3.51005023924e-06
3.15718180516e-06
2.72799627305e-06
2.28222745167e-06
1.87671300907e-06
1.54574194952e-06
1.28614083854e-06
1.05529000669e-06
7.98288788432e-07
5.10374862449e-07
2.63037472359e-07
1.18557161336e-07
5.73302821037e-08
3.58225451248e-08
3.01725336967e-08
4.6293373091e-06
5.01377532144e-06
4.61921720992e-06
3.98046089715e-06
3.56002989425e-06
3.24667061202e-06
2.89431703885e-06
2.49816157446e-06
2.10545829223e-06
1.76197461658e-06
1.4874219275e-06
1.26399545e-06
1.04123835254e-06
7.77123783603e-07
4.87388730633e-07
2.48930692842e-07
1.13725919098e-07
5.65097502312e-08
3.59966174294e-08
3.04171538643e-08
4.80968101818e-06
5.33541853093e-06
4.74601108643e-06
3.88654880572e-06
3.32221567653e-06
2.96107021848e-06
2.62454783951e-06
2.27632525498e-06
1.94822009453e-06
1.67186286332e-06
1.44979257617e-06
1.24790628293e-06
1.01903991371e-06
7.43910981373e-07
4.55657873181e-07
2.31169763643e-07
1.07768970371e-07
5.53813524744e-08
3.61126516427e-08
3.06772499878e-08
5.02921244964e-06
5.46078572155e-06
4.7113478481e-06
3.72339206607e-06
3.05982569028e-06
2.67313147619e-06
2.37328976265e-06
2.09140034772e-06
1.83787494208e-06
1.62571056804e-06
1.43762642205e-06
1.23530385696e-06
9.91256936458e-07
7.06297751913e-07
4.24836916004e-07
2.16794128449e-07
1.04040169198e-07
5.52322869048e-08
3.66301469331e-08
3.11125746705e-08
5.14655720016e-06
5.43461842156e-06
4.60849468809e-06
3.54916807783e-06
2.81858362836e-06
2.42394711431e-06
2.17793462747e-06
1.9750812935e-06
1.7947194912e-06
1.62544503203e-06
1.44272149794e-06
1.22514126363e-06
9.64502144782e-07
6.74337767396e-07
4.04679442776e-07
2.11577427089e-07
1.051539293e-07
5.71025716822e-08
3.79545262571e-08
3.18910716809e-08
5.16324803793e-06
5.31051135784e-06
4.45125069032e-06
3.37837704187e-06
2.64011280411e-06
2.26467026648e-06
2.08055412558e-06