/*--------------------------------*- C++ -*----------------------------------*\
| =========                 |                                                 |
| \\      /  F ield         | OpenFOAM: The Open Source CFD Toolbox           |
|  \\    /   O peration     | Version:  2312                                  |
|   \\  /    A nd           | Website:  www.openfoam.com                      |
|    \\/     M anipulation  |                                                 |
\*---------------------------------------------------------------------------*/
FoamFile
{
    version     2.0;
    format      ascii;
    arch        "LSB;label=32;scalar=64";
    class       volVectorField;
    location    "0.69/water";
    object      U.gas;
}
// * * * * * * * * * * * * * * * * * * * * * * * * * * * * * * * * * * * * * //

dimensions      [0 1 -1 0 0 0 0];

internalField   nonuniform List<vector> 
1504
(
(0.037401256826 1.53657355392 0)
(0.0818884878573 1.27891976778 0)
(0.0876820913994 1.1633098065 0)
(0.0903779045529 1.09352222638 0)
(0.100466268892 1.04319828974 0)
(0.112254381483 0.999614966756 0)
(0.121587819055 0.963886862662 0)
(0.127680586937 0.932199051182 0)
(0.131283623823 0.900994485913 0)
(0.132171849192 0.868058157457 0)
(0.130612642765 0.832727477579 0)
(0.12672015185 0.797128809023 0)
(0.117594786869 0.766817567045 0)
(0.104816885694 0.746182032364 0)
(0.0951996418692 0.724618867954 0)
(0.0883269732101 0.701304824469 0)
(0.0792466620513 0.664593904303 0)
(0.0675789697003 0.603460585433 0)
(0.055876296317 0.547243537192 0)
(0.0435522601875 0.516611681294 0)
(0.0403620915955 1.55320900401 0)
(0.0910874242576 1.29172730634 0)
(0.0980444762439 1.17906341305 0)
(0.0966268006774 1.11258314075 0)
(0.103009463852 1.06645869827 0)
(0.111436754698 1.02618096409 0)
(0.118118606908 0.992693441552 0)
(0.122292091664 0.960739288792 0)
(0.123551552375 0.927208651641 0)
(0.121339122989 0.889812770251 0)
(0.116689894429 0.849602037457 0)
(0.110030783812 0.810968132413 0)
(0.100418336086 0.778595239996 0)
(0.0912711894423 0.754298724208 0)
(0.0863386731326 0.732782217654 0)
(0.081963729363 0.714834165388 0)
(0.0740723467368 0.684417519985 0)
(0.0623669909536 0.628497868704 0)
(0.0496766495222 0.558678434539 0)
(0.0366466175132 0.52129008572 0)
(0.044022006805 1.56005779917 0)
(0.099955533422 1.31512219369 0)
(0.106176707515 1.21423557287 0)
(0.100139617349 1.15604259276 0)
(0.102190725828 1.11286587625 0)
(0.106836271481 1.0708264807 0)
(0.110257040623 1.03368525373 0)
(0.110890808242 0.99729235618 0)
(0.107220144951 0.957223914369 0)
(0.0998532999612 0.911078409704 0)
(0.0921214447802 0.863742394767 0)
(0.0852001824234 0.822187743166 0)
(0.07863331534 0.786921358343 0)
(0.0743090743879 0.757958441813 0)
(0.0724662148139 0.735711821112 0)
(0.0696290862852 0.723351111116 0)
(0.0635998012069 0.697912561898 0)
(0.0544030437635 0.648643573631 0)
(0.0434489921814 0.570688049949 0)
(0.0302941371719 0.525009799501 0)
(0.0472701148084 1.57112084106 0)
(0.104573328621 1.35151837845 0)
(0.107624986346 1.26908340192 0)
(0.0974763985188 1.22616057302 0)
(0.0934566897925 1.18495572468 0)
(0.0921830398422 1.13421217427 0)
(0.0898658081226 1.08565385718 0)
(0.0834530622967 1.0381059168 0)
(0.0734233530435 0.985409737491 0)
(0.0643432797731 0.926370553557 0)
(0.0592170561162 0.871621377129 0)
(0.0565938704041 0.828778957813 0)
(0.0549310879553 0.79094670252 0)
(0.0540574423649 0.757368879004 0)
(0.053709974235 0.732507199884 0)
(0.0531779754646 0.724141418493 0)
(0.0508446294814 0.70393597438 0)
(0.0459728627044 0.660233623894 0)
(0.0377336334971 0.58347944052 0)
(0.0247716288832 0.526998265253 0)
(0.0498180330914 1.57694494452 0)
(0.104174201109 1.38886550466 0)
(0.100417197632 1.32889895591 0)
(0.08473394514 1.30913592336 0)
(0.0715778318852 1.27147269907 0)
(0.0610155287392 1.2075735329 0)
(0.0506401884441 1.14072185036 0)
(0.039529051288 1.07435446736 0)
(0.0307150597811 1.0034883077 0)
(0.0268059710259 0.930146782766 0)
(0.0268807089966 0.869149299884 0)
(0.0288335921489 0.82679934803 0)
(0.0310670244434 0.787623243492 0)
(0.0326427564638 0.750888717275 0)
(0.0344099287685 0.722760738161 0)
(0.0375216534857 0.714764807704 0)
(0.0398554273177 0.700815495285 0)
(0.0388416701206 0.662405669078 0)
(0.0329799243501 0.593553510586 0)
(0.0213478972253 0.526583559063 0)
(0.0543499661278 1.55654761272 0)
(0.106654024382 1.40785950071 0)
(0.0935227488731 1.37262252844 0)
(0.072194204231 1.38120773598 0)
(0.0523599232646 1.3531166081 0)
(0.0340686825893 1.2798879994 0)
(0.0183417038229 1.19279800695 0)
(0.00731263929931 1.10191489007 0)
(0.00221228583181 1.00954187918 0)
(0.00174057825477 0.922178349074 0)
(0.00414561934997 0.855222003809 0)
(0.00847522579562 0.814093091715 0)
(0.0132597601156 0.77560834589 0)
(0.0172583511071 0.738431054565 0)
(0.021396180578 0.708574323868 0)
(0.0274037420368 0.697055456172 0)
(0.0333383609469 0.688740136266 0)
(0.0353344387704 0.657079962464 0)
(0.0313205676105 0.59897124535 0)
(0.0212826309544 0.525290478038 0)
(0.0526515365685 1.51773044644 0)
(0.0997045930907 1.40356932089 0)
(0.0856615288217 1.39264610978 0)
(0.0697072965678 1.42871977957 0)
(0.0535841692196 1.41849397136 0)
(0.0352425235336 1.3473009196 0)
(0.017785090723 1.24351614906 0)
(0.00592680711101 1.12644977148 0)
(0.000272861359252 1.01163260805 0)
(-0.00123732343416 0.910520133566 0)
(0.000190062744482 0.836591230744 0)
(0.00428769500728 0.795479421182 0)
(0.00977427138067 0.759136860125 0)
(0.0148692262054 0.723529701116 0)
(0.0197740326356 0.693721176865 0)
(0.0261790954791 0.677106197634 0)
(0.033329865161 0.670867795589 0)
(0.0368803069199 0.647411975606 0)
(0.0338524876754 0.600755498055 0)
(0.0248191146385 0.526307502167 0)
(0.0498155434467 1.48157065133 0)
(0.0962090583804 1.3885435141 0)
(0.0880588132896 1.39764335276 0)
(0.0794937781963 1.45519161776 0)
(0.0701611092252 1.46749311087 0)
(0.0563387610275 1.41132085209 0)
(0.0400858140093 1.29821584748 0)
(0.0271039091944 1.15696699175 0)
(0.0193860005024 1.02023897866 0)
(0.0157186471371 0.905504610814 0)
(0.0151661730376 0.823646556063 0)
(0.0175630184899 0.779910285266 0)
(0.0217499436039 0.745184594812 0)
(0.0257793265032 0.711407724942 0)
(0.0293867829266 0.682114912883 0)
(0.0339517500823 0.661149317709 0)
(0.0398412636536 0.652226998301 0)
(0.0431340452478 0.636311509378 0)
(0.0401140837224 0.601002804682 0)
(0.0310765244313 0.531480741164 0)
(0.0499220102264 1.45150315751 0)
(0.0982858126114 1.37282268382 0)
(0.0933915695202 1.39740923799 0)
(0.0877732686098 1.4703032466 0)
(0.0822653111798 1.50268946163 0)
(0.0731605726639 1.46891138124 0)
(0.0608025563382 1.35503313517 0)
(0.0498869896444 1.1939457128 0)
(0.0429983793245 1.03774643447 0)
(0.0395313979582 0.910733069083 0)
(0.0386830145532 0.821468009856 0)
(0.0400358261791 0.773380242475 0)
(0.0424247601163 0.738634713278 0)
(0.0443945740736 0.705844995326 0)
(0.0457711782204 0.676620656024 0)
(0.0476277579647 0.652503122237 0)
(0.0508040896824 0.637955944275 0)
(0.052495424363 0.626537462211 0)
(0.0487608092523 0.602050072376 0)
(0.0389327845366 0.54037817402 0)
(0.0471261127215 1.43087976126 0)
(0.0927246367431 1.35975872449 0)
(0.0886489164238 1.39347699653 0)
(0.0848971268554 1.47715471148 0)
(0.0821985640163 1.52403105727 0)
(0.0772643997545 1.51207550157 0)
(0.0700989776361 1.40274004724 0)
(0.0641716795042 1.22813831959 0)
(0.0610283311559 1.05784429831 0)
(0.0600452870342 0.922010335139 0)
(0.0606807216884 0.827601420366 0)
(0.0623085514666 0.775811735609 0)
(0.0637883713387 0.740065745319 0)
(0.0641240493759 0.707486721506 0)
(0.0633317235834 0.677895227166 0)
(0.0626718959661 0.651411481858 0)
(0.0633197305557 0.631019075883 0)
(0.0634319963469 0.620238521321 0)
(0.0584874188077 0.605270566057 0)
(0.0470078929447 0.551999883397 0)
(0.0464630421914 1.41804504433 0)
(0.091606742091 1.34988801076 0)
(0.087068754472 1.38747151269 0)
(0.082649977112 1.47846932025 0)
(0.0804981309967 1.53482593457 0)
(0.0775017623371 1.53946166995 0)
(0.0741083960858 1.43350239485 0)
(0.0728085136747 1.25076545585 0)
(0.073531056555 1.07302771557 0)
(0.075363007405 0.933205318136 0)
(0.0781156275679 0.837196201358 0)
(0.080886331187 0.783937803107 0)
(0.082218992327 0.747322074361 0)
(0.081494077199 0.714802707122 0)
(0.0788973284817 0.68476840508 0)
(0.0762696592628 0.656422134779 0)
(0.0754929633616 0.631588032087 0)
(0.074556319134 0.618346529484 0)
(0.0676830585784 0.610988155612 0)
(0.0543077636346 0.565772136992 0)
(0.0455072213333 1.40933039965 0)
(0.0894586553703 1.34382769341 0)
(0.0844543307822 1.38197662805 0)
(0.0798425118541 1.4783826348 0)
(0.0777329067497 1.54119356331 0)
(0.0756979007159 1.55502742253 0)
(0.0752874323415 1.44652311954 0)
(0.0779521281159 1.25901792244 0)
(0.0822141248633 1.08007600297 0)
(0.0870904948149 0.941295647611 0)
(0.0923336001976 0.847653433745 0)
(0.0963210176771 0.795255213314 0)
(0.0975133837702 0.758371432183 0)
(0.0957687120307 0.726117814823 0)
(0.0913919814164 0.695642272381 0)
(0.0873538636554 0.665875140233 0)
(0.0863493946155 0.638287477858 0)
(0.0847941236332 0.621269321473 0)
(0.0759765526162 0.619677657428 0)
(0.0613861287037 0.581519637762 0)
(0.044328387896 1.40841383332 0)
(0.086686200918 1.34527054012 0)
(0.0812814774719 1.37878873141 0)
(0.0766856984888 1.4789058688 0)
(0.0740436360128 1.54787158095 0)
(0.0722916542714 1.56120773646 0)
(0.0748342952488 1.44273940197 0)
(0.0816153451157 1.25415939298 0)
(0.0895670965789 1.07977498782 0)
(0.0975659176686 0.946515008013 0)
(0.104849557304 0.858690182279 0)
(0.109286602749 0.808558956739 0)
(0.109934752311 0.772076716527 0)
(0.106811875849 0.740356143737 0)
(0.100535528968 0.709272652178 0)
(0.0957205985538 0.678422279296 0)
(0.0954559176102 0.649413429159 0)
(0.0939317951543 0.629059358371 0)
(0.0837574686047 0.631552546201 0)
(0.0682387506942 0.598604261014 0)
(0.0425226188192 1.41850967856 0)
(0.0824068011605 1.35807766941 0)
(0.0763502588023 1.38239166204 0)
(0.0717400159369 1.4827971016 0)
(0.0686384630488 1.55782553685 0)
(0.0682872134736 1.55715593005 0)
(0.0751408005026 1.42416343406 0)
(0.0861966169568 1.23954369737 0)
(0.0972433878107 1.07441665018 0)
(0.107437139063 0.950007423613 0)
(0.115666446379 0.870420646283 0)
(0.119731415386 0.823197330368 0)
(0.119456658883 0.787845290169 0)
(0.11438494156 0.756725929309 0)
(0.106053964141 0.724677784484 0)
(0.101349086453 0.692970175745 0)
(0.102813252522 0.663555092579 0)
(0.101830373206 0.640799208774 0)
(0.0907319263537 0.645672343378 0)
(0.0745894237496 0.616116912134 0)
(0.0390625980737 1.44958577636 0)
(0.0746509158586 1.38870016732 0)
(0.0671977200293 1.39931781213 0)
(0.0620660182589 1.49248838269 0)
(0.0601906731617 1.56780226586 0)
(0.0641621416644 1.53956709002 0)
(0.0764377659074 1.393971202 0)
(0.0910493305395 1.21830751946 0)
(0.104175673832 1.06573668324 0)
(0.115604940881 0.95272677986 0)
(0.123916788171 0.882738484713 0)
(0.127214838967 0.838824386808 0)
(0.125277230478 0.805059895157 0)
(0.117225922429 0.774144155875 0)
(0.107454043395 0.740779821501 0)
(0.104494124674 0.708623477262 0)
(0.108142894976 0.679284490158 0)
(0.107604893328 0.654585660897 0)
(0.0961634842647 0.660532832554 0)
(0.0801346195168 0.633217551112 0)
(0.0395569727324 1.50230664694 0)
(0.0750039523369 1.44015854757 0)
(0.0643353926111 1.43721607043 0)
(0.0552661725965 1.51422877409 0)
(0.0535162437076 1.57543574444 0)
(0.0614333910967 1.51099375391 0)
(0.0775888056638 1.35722101188 0)
(0.0943638526849 1.19320638341 0)
(0.108710551337 1.05517401089 0)
(0.12055038553 0.955807615242 0)
(0.12806179849 0.895415480328 0)
(0.129758046775 0.854801933993 0)
(0.124740478703 0.822418734669 0)
(0.113903349261 0.791211710454 0)
(0.105060394096 0.75651010199 0)
(0.104889935553 0.724314543955 0)
(0.110126797794 0.694858085364 0)
(0.110334617265 0.668637756657 0)
(0.0997122783333 0.674896445701 0)
(0.0841145672017 0.648871693601 0)
(0.0413238592184 1.57108633144 0)
(0.0774086220108 1.51073906103 0)
(0.0637059191141 1.49851184437 0)
(0.0505350120981 1.55544144141 0)
(0.0472048922925 1.58468760855 0)
(0.0570524631046 1.47873795837 0)
(0.0752543696301 1.31870477022 0)
(0.0932052820211 1.16636217207 0)
(0.108074963333 1.04376931303 0)
(0.119166526873 0.959620758427 0)
(0.124672358074 0.907400406072 0)
(0.123585386498 0.869504668096 0)
(0.115593641613 0.838306762844 0)
(0.104811522509 0.806601083524 0)
(0.0991597140541 0.770749947896 0)
(0.101660071829 0.738816730034 0)
(0.108299455719 0.709055488166 0)
(0.109742874779 0.681911872641 0)
(0.100372796271 0.688124787983 0)
(0.0854423220288 0.662766702502 0)
(0.0430717311126 1.65565836281 0)
(0.0792463239207 1.5963437686 0)
(0.0633667423879 1.5770291755 0)
(0.0469860365849 1.61825336795 0)
(0.0404133056763 1.59872266905 0)
(0.0497475612847 1.44696690099 0)
(0.0678414995556 1.28058832142 0)
(0.0854672894677 1.13842894158 0)
(0.099333249595 1.03153713526 0)
(0.108063093977 0.96222773573 0)
(0.110792572124 0.916338467866 0)
(0.107456764791 0.880519351748 0)
(0.0997402710481 0.850958626858 0)
(0.0923888329866 0.818477626456 0)
(0.0904227221918 0.781976521167 0)
(0.0950277649694 0.750730697813 0)
(0.10296788208 0.721001591819 0)
(0.106058766559 0.693641391897 0)
(0.0983913678906 0.699796938069 0)
(0.084881638278 0.675214766773 0)
(0.0444631110823 1.7503413794 0)
(0.0806303760727 1.69337010818 0)
(0.0626091362137 1.66664118888 0)
(0.0420803747659 1.70230245749 0)
(0.0315229260599 1.6148278948 0)
(0.0392171988723 1.41608695569 0)
(0.0550280461709 1.24329494318 0)
(0.0702033075045 1.10944111777 0)
(0.0812020417442 1.01763692986 0)
(0.0870815008758 0.960584358129 0)
(0.0884284197558 0.919711104669 0)
(0.086141191185 0.885773142758 0)
(0.08201647888 0.857666301869 0)
(0.078958099904 0.824275466107 0)
(0.0804446370452 0.788602225995 0)
(0.0869175064194 0.758602403826 0)
(0.0961045177116 0.729769217968 0)
(0.101152484243 0.703139681038 0)
(0.0955303078568 0.709039524875 0)
(0.0838898581679 0.685895237198 0)
(0.0455875338144 1.8619896459 0)
(0.0762867212218 1.81733015283 0)
(0.0484527967153 1.76889245675 0)
(0.0233292210906 1.79633032898 0)
(0.0129805081432 1.61967790657 0)
(0.0213738087311 1.38185707951 0)
(0.0350225986457 1.20454096148 0)
(0.0476543533767 1.0785392879 0)
(0.0564533333908 0.999999320891 0)
(0.0617309673816 0.952175824625 0)
(0.0648912957825 0.915521025102 0)
(0.0662803315709 0.883502364499 0)
(0.0665945031591 0.855863823912 0)
(0.0680406064933 0.822746908185 0)
(0.0727905304548 0.78980634629 0)
(0.0804766363199 0.761826605296 0)
(0.0906132635698 0.735014319324 0)
(0.0972478306372 0.710051694461 0)
(0.0936077374178 0.715141654032 0)
(0.0839297583026 0.694500037127 0)
(0.0435440451806 1.98470871539 0)
(0.0555532995191 1.9963102446 0)
(0.00744486289671 1.87876128296 0)
(-0.0136411406271 1.85170630714 0)
(-0.0128590437713 1.59063241643 0)
(-0.000559239684779 1.33428482674 0)
(0.0133890171008 1.15985882404 0)
(0.0258430333512 1.04393790003 0)
(0.0351530341121 0.97645004169 0)
(0.0424723964858 0.93590677734 0)
(0.0491249512118 0.90334441013 0)
(0.0547049222185 0.873695360949 0)
(0.0594686280511 0.84650054985 0)
(0.0648198090212 0.81570426631 0)
(0.0714502199568 0.786572196762 0)
(0.0792755485653 0.761411054553 0)
(0.0893807756551 0.737519134066 0)
(0.0963979666782 0.714871781595 0)
(0.0940879789053 0.718414550911 0)
(0.0860815103247 0.701550806606 0)
(0.0170746548751 2.15260607794 0)
(-0.012197694971 2.29014438479 0)
(-0.0607170404379 1.9284787701 0)
(-0.0504764402865 1.79476078872 0)
(-0.0271264500772 1.50729762677 0)
(-0.00763784002215 1.26640851087 0)
(0.00827505630545 1.10927133824 0)
(0.0217115345542 1.0073674453 0)
(0.0325964890885 0.949624295735 0)
(0.0420636736404 0.915241067295 0)
(0.0508997024181 0.886954944312 0)
(0.0587540511788 0.860456302991 0)
(0.0659232781273 0.83480737971 0)
(0.0727758587377 0.807443088021 0)
(0.0790967481074 0.782107931677 0)
(0.0854776520078 0.760015560126 0)
(0.0938060103326 0.739247744485 0)
(0.0993929775683 0.718868376079 0)
(0.097439105495 0.720096500909 0)
(0.0907276506648 0.708075793598 0)
(0.0171164283602 2.32869606596 0)
(0.00791685223297 2.59759172093 0)
(-0.0214288465183 1.93324884402 0)
(-0.013628494436 1.67433691899 0)
(0.00602938287077 1.40590465342 0)
(0.0213509151859 1.20087439565 0)
(0.0338897654197 1.06714397887 0)
(0.0456144952994 0.979701606892 0)
(0.0563815088485 0.929993327941 0)
(0.0658338913235 0.89972866851 0)
(0.0738559214274 0.874457630909 0)
(0.080601036259 0.85049853772 0)
(0.0863551996462 0.826818852935 0)
(0.0911878916294 0.802583057244 0)
(0.0948667472125 0.780289351903 0)
(0.098204534485 0.760708189718 0)
(0.102754921489 0.742375817518 0)
(0.105247626256 0.723644346503 0)
(0.103119631034 0.72224533154 0)
(0.097474668607 0.715396417774 0)
(0.0259745597361 2.42676780666 0)
(0.041313295205 2.76909648116 0)
(0.0292637980178 1.95075520104 0)
(0.0341015592794 1.59050647707 0)
(0.0465418737913 1.33681335007 0)
(0.0582220480639 1.16028460711 0)
(0.0694835235782 1.04475451767 0)
(0.081379611028 0.969274590541 0)
(0.0929593772306 0.92562207877 0)
(0.101850318376 0.896879896023 0)
(0.107647787431 0.872304111527 0)
(0.111840293123 0.849137993374 0)
(0.114703821443 0.82637530438 0)
(0.115721553214 0.803873060829 0)
(0.115093299875 0.783354633859 0)
(0.114033637693 0.765311972559 0)
(0.113534552454 0.748272340748 0)
(0.112773960424 0.730813626553 0)
(0.110737510503 0.727025331995 0)
(0.105684774638 0.72470964159 0)
(0.0112416171271 2.58165046336 0)
(0.0397531016688 2.74451695437 0)
(0.0593714943861 1.95237049277 0)
(0.0663823658253 1.54717215241 0)
(0.0767418082701 1.2985549825 0)
(0.0886249262178 1.13936839554 0)
(0.101909503259 1.03808010507 0)
(0.116576521277 0.973814547229 0)
(0.129354929878 0.934870455946 0)
(0.136782236288 0.905971546209 0)
(0.140360968246 0.880770934244 0)
(0.142205743091 0.857204960943 0)
(0.142090182949 0.834220455548 0)
(0.139800429452 0.812051239691 0)
(0.135464979976 0.792005617139 0)
(0.129835522186 0.774354272195 0)
(0.124699985009 0.75781829782 0)
(0.121755339704 0.74159448374 0)
(0.119622211438 0.73564002735 0)
(0.114115342911 0.736626140994 0)
(0.0292821543961 2.76608621928 0)
(0.0741805682067 2.59827810603 0)
(0.0924655865201 1.93955298783 0)
(0.0984666818732 1.5290513451 0)
(0.107055050713 1.28178706325 0)
(0.119343367107 1.13297669133 0)
(0.134833881019 1.0434116566 0)
(0.150522581682 0.989010120993 0)
(0.160962328928 0.952542735786 0)
(0.165486203941 0.923013695976 0)
(0.167292873254 0.897068982393 0)
(0.167215245846 0.87271954691 0)
(0.164818043734 0.849063049778 0)
(0.159961896843 0.826521444563 0)
(0.15269590997 0.806117626899 0)
(0.143811461889 0.787948213775 0)
(0.135859737017 0.771427534016 0)
(0.131274264315 0.755982315961 0)
(0.128025341609 0.747753585439 0)
(0.121229606018 0.750798747329 0)
(0.0504431880836 2.80050779111 0)
(0.109428396794 2.47977726762 0)
(0.121786050403 1.9186094874 0)
(0.129434295113 1.52181974016 0)
(0.138953292892 1.27933008963 0)
(0.152399780989 1.13860994638 0)
(0.168042434663 1.05909093631 0)
(0.180246967756 1.01076871043 0)
(0.186078865779 0.975045944413 0)
(0.188401370547 0.945364908085 0)
(0.188933172785 0.918873795906 0)
(0.187063840933 0.893710991277 0)
(0.182513808774 0.86921831619 0)
(0.17533678602 0.845949982924 0)
(0.165919759588 0.824734568915 0)
(0.155238166214 0.805640131225 0)
(0.145730920725 0.788413255448 0)
(0.13940362042 0.772725918529 0)
(0.134133830723 0.761865652338 0)
(0.126085372399 0.765863496001 0)
(0.0572855490301 2.72515882284 0)
(0.122817670223 2.37321350791 0)
(0.139029688998 1.87468290663 0)
(0.153628392601 1.50774301769 0)
(0.167685986883 1.28110675423 0)
(0.182947436209 1.15257447355 0)
(0.195792866681 1.08184899486 0)
(0.202457404969 1.0364343134 0)
(0.205271075109 1.00160139353 0)
(0.20669794091 0.97209304944 0)
(0.205788213255 0.944986790139 0)
(0.201964652856 0.918838849272 0)
(0.19523017428 0.893330212441 0)
(0.185831912273 0.869056369588 0)
(0.174609513103 0.846697482656 0)
(0.162826380896 0.826257216432 0)
(0.152395424973 0.807502516117 0)
(0.144243817557 0.790225766568 0)
(0.136879367058 0.776376558553 0)
(0.128501997144 0.779778159294 0)
(0.0551762942378 2.63047908406 0)
(0.123004236967 2.24942372685 0)
(0.148506724265 1.80407807535 0)
(0.17174568843 1.4812400765 0)
(0.191287162389 1.28339686379 0)
(0.206485028847 1.17252747619 0)
(0.214390353621 1.1091491313 0)
(0.217196359313 1.06631535236 0)
(0.219066205502 1.03276080853 0)
(0.219488792424 1.00307020144 0)
(0.216796364048 0.974872122091 0)
(0.210782327088 0.947360661184 0)
(0.201717742859 0.920513687657 0)
(0.190216245065 0.894856738108 0)
(0.17730151374 0.870870605928 0)
(0.164532901257 0.848516069573 0)
(0.153413138708 0.827451230228 0)
(0.144143853293 0.807406655359 0)
(0.135911920088 0.790232033543 0)
(0.128457718603 0.790189484457 0)
(0.0509817459901 2.55938939034 0)
(0.120230134948 2.12258213747 0)
(0.155064037777 1.72379504212 0)
(0.184965926183 1.45116613632 0)
(0.206799977061 1.28934312233 0)
(0.218091051251 1.1971568505 0)
(0.221404869959 1.14105181265 0)
(0.22333183312 1.10168041178 0)
(0.225201435597 1.06890606849 0)
(0.224271274152 1.03807206736 0)
(0.219446756235 1.00794659162 0)
(0.210913668228 0.978510241736 0)
(0.199468772531 0.949940804449 0)
(0.186009622422 0.92244316875 0)
(0.171768724375 0.896247742869 0)
(0.15824663412 0.871320027838 0)
(0.146807253908 0.847217544034 0)
(0.137786738476 0.823690498131 0)
(0.130358622783 0.802601981264 0)
(0.124926972077 0.795586842781 0)
(0.0533523665397 2.493314645 0)
(0.133491155416 2.0103769766 0)
(0.174651449878 1.65934797888 0)
(0.200705526299 1.43414832002 0)
(0.21572211914 1.30502278573 0)
(0.218911978384 1.22927844468 0)
(0.219846696167 1.18127888534 0)
(0.222074713265 1.14480135905 0)
(0.222713848039 1.11092661191 0)
(0.219267441982 1.07701513852 0)
(0.211273688382 1.04357760388 0)
(0.199688116915 1.01142902128 0)
(0.185769161347 0.98057054046 0)
(0.170766343271 0.950609411065 0)
(0.155863525046 0.921461302206 0)
(0.142254757829 0.893093276914 0)
(0.131323500544 0.865223827056 0)
(0.123811697178 0.837688858025 0)
(0.118957026684 0.812111565433 0)
(0.116763350424 0.796324071113 0)
(0.0566747942954 2.42148497385 0)
(0.148751252847 1.93201432953 0)
(0.192792576933 1.62764485242 0)
(0.205797289069 1.44180202612 0)
(0.208362438611 1.33797390089 0)
(0.206203766684 1.27730427412 0)
(0.206826708534 1.23613889747 0)
(0.207891936318 1.19896522848 0)
(0.205533975256 1.15983966654 0)
(0.198108130338 1.1194293116 0)
(0.186304042779 1.08052464754 0)
(0.171754707587 1.0443479599 0)
(0.15629589376 1.01009965062 0)
(0.141212563193 0.976531659235 0)
(0.127024433423 0.943138734986 0)
(0.114702199817 0.910243476591 0)
(0.106002112493 0.878121229425 0)
(0.101729643902 0.846399692929 0)
(0.100983404902 0.816162809775 0)
(0.10328676873 0.792391327229 0)
(0.0617271907988 2.38359855603 0)
(0.157210750513 1.91578943583 0)
(0.190652536631 1.64256366168 0)
(0.187593339708 1.48490667705 0)
(0.1808933389 1.4018203338 0)
(0.175338374887 1.3536588474 0)
(0.172665501245 1.31364731557 0)
(0.168860710038 1.26722132689 0)
(0.160978987163 1.21439214312 0)
(0.148820269325 1.16128196724 0)
(0.134011500721 1.11308148413 0)
(0.118834409725 1.07060944546 0)
(0.104986758106 1.03127643622 0)
(0.0929392403555 0.992785066563 0)
(0.0828835065792 0.954432744624 0)
(0.0758064860536 0.916956604624 0)
(0.0726592995291 0.880833771983 0)
(0.0733669001205 0.845464192585 0)
(0.0774313526516 0.811439464514 0)
(0.0847003472167 0.781646584419 0)
(0.0677736695508 2.36984970594 0)
(0.153904278981 1.95402414315 0)
(0.164110452869 1.70111292304 0)
(0.146215795367 1.56058226207 0)
(0.128061124901 1.49132249019 0)
(0.113024957407 1.45037457622 0)
(0.0993115288305 1.40463654303 0)
(0.0846099917869 1.33652117006 0)
(0.0697936911657 1.25777761011 0)
(0.0562892048161 1.18330430837 0)
(0.0452074664288 1.12168789373 0)
(0.0371222009554 1.07215575474 0)
(0.0320663779724 1.02879909648 0)
(0.0299285763204 0.987137583508 0)
(0.03025262647 0.946062322688 0)
(0.0327027687783 0.90616100836 0)
(0.0373904536451 0.867661160835 0)
(0.0444488168244 0.830562558376 0)
(0.0538915982206 0.795055724193 0)
(0.0656692759819 0.761953925117 0)
(0.0720204852968 2.28300473562 0)
(0.140707084169 1.9455854465 0)
(0.125709532676 1.71746563034 0)
(0.100772864253 1.59652390697 0)
(0.0750252360261 1.54009762386 0)
(0.0486970246305 1.50786997104 0)
(0.0193733562718 1.46210883538 0)
(-0.00938461057907 1.37487170477 0)
(-0.0303734952375 1.26562628625 0)
(-0.041304435498 1.16748653743 0)
(-0.0443050354616 1.09029156838 0)
(-0.0414727451616 1.03417886139 0)
(-0.0345265255612 0.99144329554 0)
(-0.0244804435785 0.951960494251 0)
(-0.0127367892328 0.912797899653 0)
(-0.000584112239355 0.874122426199 0)
(0.0118129230465 0.836474355457 0)
(0.0247123595459 0.800835847917 0)
(0.0385348773843 0.766673240178 0)
(0.0534749732379 0.733425833026 0)
(0.075755524453 2.01975498553 0)
(0.143937514028 1.7919959876 0)
(0.129712956093 1.6324174497 0)
(0.113865210064 1.55526650033 0)
(0.0917715544601 1.53083817505 0)
(0.0625962966125 1.51569424415 0)
(0.0278732415512 1.48070706832 0)
(-0.00847258104445 1.39077403879 0)
(-0.0385703028832 1.25540295211 0)
(-0.0568201868766 1.1351332633 0)
(-0.0637314630545 1.04006117543 0)
(-0.0619588306779 0.974111986919 0)
(-0.0539032820685 0.930506645492 0)
(-0.040682323248 0.896208068095 0)
(-0.0242953673802 0.862097192785 0)
(-0.00753378955766 0.827662286913 0)
(0.00823049968489 0.793895972877 0)
(0.023219233239 0.761993970412 0)
(0.0381361879114 0.730969472509 0)
(0.0533070864384 0.699738597296 0)
(0.0737428320275 1.5325865456 0)
(0.143161296553 1.60586331344 0)
(0.134139915425 1.55043107959 0)
(0.122699016235 1.52100795161 0)
(0.109367496073 1.52094022722 0)
(0.0950996941422 1.51889964935 0)
(0.0775209134176 1.49627623187 0)
(0.0536380775538 1.42169778527 0)
(0.0244871118875 1.27735428212 0)
(0.00050813585661 1.12348257839 0)
(-0.0130500642011 1.00802158393 0)
(-0.0190101025885 0.927663861253 0)
(-0.0186374427102 0.875241975247 0)
(-0.0120083953855 0.841456597179 0)
(0.000269384519721 0.811669280365 0)
(0.0146166476206 0.781802667678 0)
(0.0283037490252 0.752270862555 0)
(0.0411758195437 0.723902198838 0)
(0.0536961153403 0.696003633505 0)
(0.0660746861598 0.667388822638 0)
(0.0281673872144 1.12845276465 0)
(0.0647140798308 1.4672143853 0)
(0.0777643778875 1.49430187356 0)
(0.0850808270664 1.49849205513 0)
(0.0896288566259 1.50741608778 0)
(0.0925614167477 1.51339285067 0)
(0.0928177904376 1.50335207728 0)
(0.0131098080429 0.482238701992 0)
(0.0100389090754 0.48131682318 0)
(0.00735788280508 0.479814500667 0)
(0.00512987310443 0.477176510009 0)
(0.00347020302856 0.472564617964 0)
(0.00247691987094 0.465080829441 0)
(0.00210487038973 0.454370570623 0)
(0.00213815522706 0.440993678069 0)
(0.00234220563586 0.425936095542 0)
(0.00257478694393 0.409974339808 0)
(0.0027621834222 0.393541908193 0)
(0.00285650461582 0.376811762082 0)
(0.00281263350179 0.35976027421 0)
(0.00258575331614 0.342209117295 0)
(0.00213599672921 0.323932327815 0)
(0.00162267289002 0.304952248489 0)
(0.000697322939476 0.285909129187 0)
(0.0278371262266 0.505215692602 0)
(0.0156913009543 0.492436537028 0)
(0.0120522095764 0.48747458779 0)
(0.0101663174156 0.48616315449 0)
(0.00748085575698 0.484663691051 0)
(0.00507422506186 0.482515901621 0)
(0.00310562570546 0.479074842224 0)
(0.00173735979611 0.473467438697 0)
(0.00104739250519 0.464921883128 0)
(0.00093786286758 0.453348875071 0)
(0.00117342331148 0.439468566148 0)
(0.00153984390185 0.424216482302 0)
(0.00191380676605 0.408261846725 0)
(0.00222962601032 0.391967267302 0)
(0.0024422377385 0.375469178616 0)
(0.00250603128883 0.358724970081 0)
(0.0023701591449 0.341537189065 0)
(0.00199830712699 0.323653685681 0)
(0.00159527346561 0.305101137132 0)
(0.00071987497761 0.286577890042 0)
(0.0202787673423 0.505878552263 0)
(0.00722197104018 0.499910421262 0)
(0.00500713184566 0.491348848607 0)
(0.00543950593611 0.48938242724 0)
(0.00323449407196 0.487298284746 0)
(0.00124557796512 0.484467512545 0)
(-0.00030008262553 0.480169786475 0)
(-0.00121836230715 0.473538640884 0)
(-0.00147082230248 0.463975974249 0)
(-0.00120407938475 0.451642714538 0)
(-0.00065853389552 0.437353353043 0)
(-2.45130044653e-05 0.421966320947 0)
(0.000591935863652 0.406054036842 0)
(0.00113314465277 0.389919475287 0)
(0.00155826812702 0.373669400269 0)
(0.0018199008837 0.357246410273 0)
(0.00186243493074 0.340436306194 0)
(0.00164955240089 0.322955091293 0)
(0.00143193755139 0.304821949081 0)
(0.000693418237951 0.286820343312 0)
(0.0135878363424 0.504916522959 0)
(-0.00254535537846 0.500413981919 0)
(-0.00501021388814 0.494430583557 0)
(-0.00129484971185 0.491867019382 0)
(-0.00284030092306 0.489068684973 0)
(-0.00419453087968 0.485453631088 0)
(-0.00510425616857 0.480219949202 0)
(-0.00538623621931 0.472542644161 0)
(-0.00505152297422 0.462024124421 0)
(-0.00428356780728 0.449036717528 0)
(-0.00331373173488 0.434427535011 0)
(-0.00230582286112 0.4189636895 0)
(-0.00134877268391 0.403131319434 0)
(-0.000490507521759 0.387182894563 0)
(0.000233637765269 0.371200777814 0)
(0.000778217282052 0.355116556901 0)
(0.00107953585758 0.338701561221 0)
(0.00109953559374 0.321636206532 0)
(0.00113356687407 0.303915975704 0)
(0.000614235527511 0.286426908855 0)
(0.00834454258459 0.502237368947 0)
(-0.00830411559727 0.49547722399 0)
(-0.0137123192688 0.496982638125 0)
(-0.0110741033646 0.492990116211 0)
(-0.0111457940233 0.489442328226 0)
(-0.0114118724853 0.485010285108 0)
(-0.0113388935563 0.478827272403 0)
(-0.0107266861137 0.470148716181 0)
(-0.00961678038079 0.458789125097 0)
(-0.0082016950285 0.445281520889 0)
(-0.00668481412996 0.430457270251 0)
(-0.00519722669881 0.414988825378 0)
(-0.00380708386432 0.399287187071 0)
(-0.00254941467155 0.383562414588 0)
(-0.00145069983247 0.367877307792 0)
(-0.0005543830647 0.352156125375 0)
(7.26998398843e-05 0.33615920052 0)
(0.000386653861563 0.319529019862 0)
(0.000715601116447 0.302219651305 0)
(0.000483746172904 0.285224198552 0)
(0.00552922999208 0.497608300103 0)
(-0.0109488142967 0.488204657503 0)
(-0.0235525247051 0.4937040398 0)