/*--------------------------------*- C++ -*----------------------------------*\
| =========                 |                                                 |
| \\      /  F ield         | OpenFOAM: The Open Source CFD Toolbox           |
|  \\    /   O peration     | Version:  2312                                  |
|   \\  /    A nd           | Website:  www.openfoam.com                      |
|    \\/     M anipulation  |                                                 |
\*---------------------------------------------------------------------------*/
FoamFile
{
    version     2.0;
    format      ascii;
    arch        "LSB;label=32;scalar=64";
    class       volScalarField;
    location    "0.335/heater";
    object      T;
}
// * * * * * * * * * * * * * * * * * * * * * * * * * * * * * * * * * * * * * //

dimensions      [0 0 0 1 0 0 0];

internalField   nonuniform List<scalar> 
150
(
795.757760128
795.620898775
795.347072856
794.93565841
794.385379431
795.756560155
795.620589728
795.348880183
794.941464499
794.39622981
795.762217472
795.628099692
795.360813268
794.96394548
794.446667325
795.777965858
795.646218537
795.383826356
794.995225937
794.502164648
795.808193871
795.679718159
795.42400595
795.044664249
794.562481825
795.846077766
795.721163703
795.472774516
795.103465295
794.630686837
795.882498131
795.761812613
795.522286813
795.165350483
794.703329456
795.914428526
795.797668967
795.566430081
795.221209165
794.769045037
795.946417372
795.833459919
795.610313205
795.276712557
794.834254204
795.982861417
795.873644736
795.658539619
795.336692106
794.904054281
796.024897464
795.919475234
795.712782541
795.403733845
794.981842615
796.068829023
795.966426256
795.766624082
795.46855499
795.055077007
796.112263882
796.012398617
795.818616924
795.530801719
795.122790013
796.151759978
796.053872549
795.865032238
795.587007738
795.180011879
796.186371666
796.089869384
795.904777258
795.63726425
795.244895278
796.215694312
796.119835233
795.936472496
795.676154423
795.306215378
796.240779226
796.1449045
795.961470953
795.705034506
795.360107433
796.260884668
796.163963074
795.977589225
795.718476752
795.401169188
796.27534215
796.176161199
795.983150192
795.711160499
795.395514895
796.286551562
796.18541292
795.986221724
795.699679182
795.364790117
796.294768433
796.191801667
795.986568999
795.683463923
795.320305912
796.299013806
796.194026895
795.982617576
795.660549755
795.252833522
796.297670023
796.190264351
795.973390043
795.635745859
795.167939121
796.293790539
796.18418558
795.964007953
795.621963876
795.131586046
796.290389158
796.178552152
795.955302874
795.611514665
795.118398271
796.29413501
796.180556834
795.954935433
795.610541698
795.118825131
796.311204412
796.196597608
795.96961323
795.625890559
795.137575648
796.342060809
796.22711007
795.999434985
795.656201819
795.170742201
796.381000294
796.266118155
796.038163888
795.695233301
795.212058305
796.420505965
796.306310957
796.079535098
795.739403446
795.26075433
)
;

boundaryField
{
    emptyPatch
    {
        type            empty;
    }
    minY
    {
        type            zeroGradient;
    }
    maxY
    {
        type            zeroGradient;
    }
    minX
    {
        type            zeroGradient;
    }
    heater_to_water
    {
        type            compressible::turbulentTemperatureTwoPhaseRadCoupledMixed;
        refValue        nonuniform List<scalar> 
60
(
322.858928641
323.422945049
323.422913376
324.845874731
334.180332554
385.453050146
385.452072239
419.014919242
419.01374523
423.76616356
423.764694116
434.647680397
431.368481462
438.294569045
438.293113611
433.163883875
433.16239321
438.032894518
438.031343239
431.839405696
438.523191204
433.326827833
433.325112291
439.284766426
439.283201265
435.215529093
435.214172386
394.969508872
338.930449506
322.087152424
322.086701802
318.899373365
318.899042472
326.396758681
326.396432264
385.13545299
517.642110917
540.945044865
540.945451005
543.539646132
543.540233131
543.539719877
543.540586757
535.937384454
476.59197096
381.199187363
381.200079545
354.98037993
354.98068865
350.544378661
350.544447483
349.498066835
348.618072225
348.405427107
348.404984361
347.233005613
347.232447429
346.787871907
346.787205919
339.033094291
)
;
        refGradient     uniform 0;
        valueFraction   nonuniform List<scalar> 
60
(
0.000728965408679
0.000730657049037
0.000730658062001
0.000735640230448
0.00074818808663
0.000682959349958
0.000682967218308
0.000651614004784
0.000651620463855
0.000656927326518
0.000656935163227
0.000648056995551
0.000656055097438
0.000648370111799
0.000648376963937
0.000655288997943
0.000655296364818
0.000648317890294
0.000648325205584
0.000656149997957
0.000648202278461
0.000656905669978
0.000656914154423
0.000651457351776
0.000651464697699
0.000656907552398
0.000656914166602
0.000692749233737
0.000747971335384
0.000711696048971
0.000711710945576
0.000705715328326
0.000705728093081
0.000733681220491
0.000733690534125
0.000706549629221
0.000596754735557
0.00059394370461
0.000593942700361
0.000594230243996
0.000594228807532
0.000594095048645
0.000594092928062
0.000597044636884
0.000629152088716
0.00071907457175
0.000719066605341
0.000740619118912
0.000740614909705
0.000740894175906
0.000740893154024
0.000740493628751
0.000741213299466
0.000740738540864
0.000740745404416
0.000741637377296
0.000741646258986
0.000741615493401
0.000741626194497
0.000747830652675
)
;
        source          uniform 0;
        value           nonuniform List<scalar> 
60
(
794.04307853
794.042692977
794.053595878
794.05229619
794.103812395
794.168852267
794.223188675
794.257883743
794.317823196
794.318952204
794.387027799
794.397373205
794.465088776
794.472371668
794.538068182
794.532243079
794.597506616
794.603188169
794.673107459
794.666252161
794.751233899
794.744717975
794.818049075
794.823905427
794.891615983
794.887007112
794.944906268
794.904127359
794.906589577
794.911155316
794.972580334
794.97316825
795.0273708
795.019553059
795.0600505
795.114281827
795.22988345
795.244504854
795.213335521
795.214803914
795.170038755
795.170072128
795.102260498
795.096978069
794.967185309
794.869943671
794.835255907
794.806915803
794.794113444
794.790703692
794.791180826
794.790583607
794.808407818
794.808462293
794.841644594
794.840376907
794.881702731
794.881386809
794.93022109
794.921639779
)
;
        kappaMethod     solidThermo;
        Tnbr            T.liquid;
        region          solid;
        otherPhase      gas;
    }
    procBoundary3to0
    {
        type            processor;
        value           nonuniform List<scalar> 5(796.457712184 796.345257674 796.123187537 795.795071655 795.33753555);
    }
    procBoundary3to2
    {
        type            processor;
        value           nonuniform List<scalar> 5(795.760170858 795.622912239 795.348272565 794.935797345 794.385040274);
    }
}


// ************************************************************************* //
