/*--------------------------------*- C++ -*----------------------------------*\
| =========                 |                                                 |
| \\      /  F ield         | OpenFOAM: The Open Source CFD Toolbox           |
|  \\    /   O peration     | Version:  2312                                  |
|   \\  /    A nd           | Website:  www.openfoam.com                      |
|    \\/     M anipulation  |                                                 |
\*---------------------------------------------------------------------------*/
FoamFile
{
    version     2.0;
    format      ascii;
    arch        "LSB;label=32;scalar=64";
    class       volScalarField;
    location    "0.45/water";
    object      k.gas;
}
// * * * * * * * * * * * * * * * * * * * * * * * * * * * * * * * * * * * * * //

dimensions      [0 2 -2 0 0 0 0];

internalField   nonuniform List<scalar> 
1496
(
1.82309959715
0.95434072267
0.77269591307
1.02146573445
0.773743934575
0.379921740425
0.148824368345
0.0628310192741
0.0299964584184
0.0184960463884
0.0156141574807
0.0162746759076
0.0169529257687
0.0156597257702
0.0132027209656
0.0108442103094
0.00914566876101
0.00807557643308
0.00726369633015
0.0064086556356
1.70346118118
0.879656810436
0.68688648777
0.907640455967
0.816989123868
0.528655944089
0.242061801981
0.0987095150896
0.0418457361421
0.0217841389039
0.0154448509099
0.0139253159302
0.013588671224
0.012635677912
0.0112467754445
0.00999763009726
0.00909716222551
0.00839631478505
0.00757869341617
0.00656945632659
1.61438429869
0.817160152429
0.595329798797
0.738029339941
0.766333614809
0.611205132993
0.380314814429
0.162681596865
0.0627699553359
0.0285721531659
0.017487466369
0.0137832082201
0.0123760812147
0.0113899745838
0.0105251602293
0.0098491679131
0.0093300239625
0.00874091842817
0.00779741793293
0.00662185582263
1.55684869449
0.774548618156
0.518431003425
0.570367476411
0.684152775223
0.627421145861
0.463652693505
0.237836297387
0.0989960724136
0.0406581612582
0.0219892893528
0.0154374048822
0.0127170130445
0.0113294258075
0.0105450755342
0.0100789411954
0.00970824447711
0.0090703616328
0.00794105626773
0.00667323618831
1.51135923024
0.743270837751
0.46546996689
0.459959598496
0.59710068036
0.606677707468
0.505169525251
0.316757573728
0.14797953014
0.0633201667851
0.0307518474644
0.0191969844364
0.0143950149519
0.0121383854157
0.0110651740208
0.0105572069176
0.0101390884237
0.00930265036344
0.00804624602573
0.00681838316775
1.47502207805
0.720789246135
0.430338109633
0.388723934748
0.514460112855
0.554897504257
0.500702736
0.363015577215
0.200685888757
0.0971974078349
0.0472450364226
0.0264823390321
0.0177317244417
0.0137848119867
0.0119755508536
0.0111123989244
0.0103870073977
0.00935521376967
0.00814726051249
0.00706089599338
1.43903502822
0.702861838281
0.406645848903
0.341662865768
0.441477860032
0.489988880439
0.465591438269
0.374632188337
0.244469563495
0.135725677375
0.0710299726877
0.0383797785243
0.0230926544722
0.016151847539
0.013002373678
0.0114498863681
0.0103626547477
0.0093085484325
0.00826613135457
0.00735278222162
1.42062121713
0.693936800433
0.39080960347
0.308459059298
0.375254077216
0.415184097149
0.405198280818
0.34782149875
0.257626110289
0.166963590707
0.09649515037
0.052637289735
0.0294332368715
0.0185570075182
0.0137906127437
0.0115671598363
0.0102878788563
0.00930354879427
0.0084249507977
0.00766189288332
1.43505081383
0.682523585587
0.377816174825
0.284890387488
0.315425747616
0.340942858235
0.335835391676
0.300278625633
0.240493680301
0.174790028189
0.114516847762
0.0663128602121
0.0347146754937
0.0202052182809
0.0142949999519
0.0116868581486
0.0103143741484
0.00938371761699
0.00863437318639
0.00799744956437
1.40330178962
0.66896036882
0.363228866575
0.263340418903
0.265999029164
0.277721012485
0.27364981076
0.250943542037
0.21224925821
0.165909172035
0.119241041633
0.0746537415963
0.0374324377199
0.0211827269642
0.0147371119267
0.0119030577363
0.0104559245629
0.00956869883461
0.00892795644502
0.00839903173448
1.37925297012
0.657896116438
0.355231375488
0.246721783622
0.231850842285
0.232901208543
0.227775143737
0.212269412759
0.186384428292
0.153629506544
0.116689296663
0.0753308087477
0.0374371085524
0.0216100643192
0.0151282146007
0.0122087210629
0.0107488079212
0.00992474891788
0.00937914546504
0.00893011370122
1.37542310889
0.653168890732
0.351028646278
0.242197736608
0.213980688926
0.206891554734
0.199983502352
0.187669644868
0.168483453864
0.14266252776
0.109515715859
0.0661298146651
0.0349936581209
0.021431480845
0.0154563957927
0.0126633396131
0.0112795679975
0.0105339706516
0.0100510157302
0.00962613550279
1.39844774857
0.65771724931
0.346369015633
0.240285741224
0.206422494425
0.19560863419
0.186929104104
0.174767650026
0.156898478405
0.13128797345
0.0942011357808
0.0545963655127
0.0319237004853
0.0210874230616
0.0159173844788
0.0133966501086
0.0121302517488
0.0114248943751
0.01091077065
0.010410533428
1.44104733742
0.667201559705
0.342860722061
0.23156687652
0.204624948399
0.19468572148
0.183944315146
0.168207082443
0.145412963319
0.112468693409
0.0751085054889
0.0461142146509
0.0297299868712
0.021179799409
0.0167861790494
0.0145233576235
0.0132847446369
0.0124718538955
0.0117773004665
0.0110795023022
1.47113151564
0.679300947571
0.343569099883
0.224038124126
0.208136940158
0.201910840784
0.185254490292
0.159637495347
0.127995521229
0.0924688173132
0.0622196903314
0.0415622632407
0.0291891740993
0.0221608381719
0.0182410683931
0.0159835742905
0.0145329177291
0.0133776239172
0.0123064807431
0.0112982960996
1.49546228163
0.705093492194
0.355809366253
0.22739756669
0.216607521548
0.212363495375
0.18639988184
0.149544236029
0.113090939532
0.0812681099114
0.0573233421195
0.0410245641598
0.030603237448
0.0241379789985
0.0201233252978
0.0174514055761
0.0154412255621
0.0136970719014
0.0121244646689
0.0107886987112
1.57251395181
0.753063141804
0.387585470894
0.245887273336
0.228205905601
0.219963940847
0.18674127798
0.145722143837
0.109229430722
0.080110926921
0.0587417753194
0.0437560517828
0.0335179883167
0.0265855536345
0.0217922433901
0.0182222460051
0.0153228021262
0.0129124904304
0.0110116854559
0.00963698453943
1.66500284931
0.829285568177
0.438456639987
0.274347544003
0.24047547308
0.224661481216
0.189703222542
0.149261667729
0.113602056652
0.085248376258
0.0638956652509
0.0481900888368
0.0367057465168
0.0282782828538
0.0220247622392
0.0173389569752
0.0138614116154
0.0113534363457
0.00962767138209
0.00847401017279
1.82519692135
0.915620293505
0.475024489824
0.289927107009
0.241046518575
0.220842694417
0.189949632299
0.153796567069
0.120214512785
0.0920801586859
0.0695614063505
0.0518163423305
0.0380474948944
0.0277582751929
0.0204661288116
0.015506911144
0.0122091797737
0.0100448804105
0.00864120358058
0.00766158535974
1.96810072346
0.938416261984
0.478718095149
0.28898854245
0.224884936605
0.200090568279
0.175441953331
0.14775226108
0.11973197707
0.0937546648793
0.07104869072
0.0518851858707
0.0366213389244
0.0257190217062
0.0185381093553
0.0139598067648
0.0110682451107
0.00924244898384
0.00807120754114
0.00711027556433
1.90187518566
0.880944736366
0.451130769858
0.27129635619
0.201187958634
0.171646321182
0.150681724055
0.129927021071
0.108126750217
0.0863646780875
0.0660868280105
0.047968456991
0.0330264053902
0.0230170355696
0.0166683712903
0.0127051541033
0.0102537832452
0.00873008318201
0.00771309370035
0.0065612512619
1.76353449943
0.801184002417
0.403920746927
0.240251783115
0.174355611346
0.146001667146
0.128399816161
0.111985198686
0.0943231337438
0.0759367787813
0.0579740928865
0.0410026535993
0.0281229445646
0.0198835515772
0.0147222787967
0.0115397877719
0.0095992088803
0.00837323047578
0.00738065819009
0.00576767773304
1.66253184244
0.730341978814
0.357284739455
0.209632797467
0.151889496902
0.127344639385
0.112577270799
0.0985410348943
0.0826867654502
0.0653798379734
0.047654759286
0.0328353360009
0.0229859296127
0.0167720292469
0.0129137962496
0.010566854545
0.00913051617445
0.00812478952337
0.00692133015808
0.00487814388639
1.61006795158
0.684070017365
0.325113209061
0.187826731224
0.136683375286
0.115633270747
0.102511510107
0.0888419869768
0.0724457751446
0.0535735185069
0.0372383204259
0.0259155080183
0.0187569180997
0.0142941937564
0.0115683691756
0.00993104796923
0.0088743858508
0.00790207348275
0.00628329130601
0.00483079606142
1.6051932158
0.676332351938
0.313537536591
0.17587122292
0.127522597016
0.108625459722
0.0959660847467
0.0813294267951
0.0621464804134
0.042878136001
0.0295669074575
0.0211274374351
0.015884654919
0.0126848316127
0.0107828731415
0.00963360999135
0.00876448327059
0.00761541680553
0.00559860284253
0.00679536380331
1.66592715072
0.714943062207
0.31985389059
0.169514852456
0.121145280663
0.103394933874
0.0905939028702
0.0742084273146
0.0525883163189
0.0357355223249
0.0249802920639
0.0183173474343
0.0142611720969
0.0118640925533
0.0104767519409
0.00959515168484
0.0087332098781
0.00722999979874
0.00570781443173
0.0122049062797
1.84618846256
0.788319328722
0.322245861489
0.159211258528
0.113449537534
0.0972779934681
0.084273188649
0.0660315352702
0.0459332868223
0.031759109847
0.0226506028374
0.0169869997944
0.0135915724606
0.0116420845227
0.0105402874938
0.00975522171325
0.00869708112013
0.00702391478894
0.00774814875333
0.0201408267421
2.2479812027
0.847085765672
0.309245078054
0.138258295814
0.100468482883
0.0879428221346
0.075272995925
0.0578642358725
0.0416429520943
0.0297441948557
0.0217248664702
0.0166173907545
0.0135633536255
0.0118684293032
0.0108983678134
0.0100430240931
0.00883665694978
0.00783130815559
0.0125409974704
0.0247846313599
2.75341116195
1.00022929409
0.341012802254
0.135703651018
0.0895763123391
0.0767455657545
0.0653207333403
0.0514997420626
0.0387358841421
0.0286682580381
0.0214706840271
0.0167507530692
0.0139341729214
0.0124198896326
0.0115148998547
0.0106839512073
0.00963333978108
0.0103753596546
0.017360555768
0.0248727679797
3.07146501943
1.09205754391
0.389104828521
0.152072409454
0.0873742191675
0.0687229971099
0.057832941115
0.0470016104523
0.0366387356752
0.0279300364483
0.0214231913501
0.0171054918107
0.0145956127011
0.0133355944355
0.0126713053877
0.0118992723472
0.0114107907188
0.0141557303163
0.0196433302533
0.0227815922712
3.09364335577
1.11227649963
0.403127177006
0.161794153855
0.0882510665575
0.0651048011817
0.0537266257317
0.0441574009481
0.0351136287997
0.0273219056153
0.0214707805452
0.0177069750802
0.0157125475088
0.0149085843644
0.0143101645621
0.0135007294322
0.0141652919632
0.017084830047
0.0195415795623
0.0197580988072
2.8367044612
1.0262084251
0.381211298069
0.160637038035
0.0886310857732
0.0638370494411
0.0517589983894
0.0424337059525
0.0339884799056
0.026892717678
0.0218167837699
0.0188079553053
0.0174336269951
0.0166710606875
0.015845388876
0.0156590482029
0.0168742304839
0.0180624236482
0.0184391089902
0.0169199193552
2.46426677358
0.889126822397
0.341194617322
0.152903070501
0.0881082037695
0.0636813901082
0.051000337591
0.0414543947844
0.0333033113444
0.0269020770503
0.022630156631
0.0201719416799
0.0187573244611
0.0179413926155
0.017611582245
0.0178994977798
0.0181427806414
0.0179727836092
0.0170584591351
0.0148107396471
2.08329960471
0.748917082877
0.299465889444
0.144230580966
0.0878234353995
0.064364432213
0.0510783386495
0.0411158811919
0.0331463192814
0.0272389333755
0.0232846950719
0.0204883738617
0.0193018414218
0.0193020141656
0.019332805072
0.0190585614649
0.0183859531152
0.0173121638448
0.0157203812622
0.0133847029845
1.74533660196
0.629689975407
0.266623623982
0.139115079173
0.0892015739029
0.0659949986353
0.0517741921112
0.0412205505259
0.0331776920608
0.0272113511796
0.0224688988371
0.0198655174306
0.01994857995
0.0204543623349
0.0202489417446
0.0193077715121
0.0179368832764
0.016384644645
0.0144723718384
0.0123984119169
1.45851504672
0.541032446945
0.249445399228
0.141190840406
0.0939988264914
0.0693246875225
0.0533749215344
0.0417569472975
0.0330724940077
0.026137119803
0.0209226147411
0.0197704843674
0.0205687913558
0.0211056526947
0.0205023537425
0.0190063520412
0.017185747683
0.0153810977179
0.013539474816
0.0118923694465
1.2837137089
0.4997475856
0.250195984431
0.150195475411
0.101874046385
0.0741786736477
0.0559793141941
0.0430229355358
0.0331745461294
0.0255275368502
0.0208852176753
0.020676410251
0.0215740520742
0.021834545851
0.0209694707853
0.0191020060173
0.0170178956875
0.0152103601839
0.0136185185024
0.0123987692548
0.00293396340839
0.00231461170446
0.00130693680868
0.000788774482097
0.00128288532038
0.000353298864457
0.000126454403956
0.000149653638783
0.000606870968021
0.00674052660059
0.0178625937267
0.00469864830596
0.00515780836543
0.00571053026189
0.00642310865286
0.0343142993827
0.00555024020935
0.00476184741406
0.00422011304493
0.00372233118943
0.00312851825763
0.0024452085125
0.00141922966649
0.000893536423967
0.00138729199887
0.000366028355466
0.000147791439317
0.000210427235612
0.000934301189899
0.00897465975039
0.00523111260981
0.00463096820203
0.0051387925135
0.00597662582632
0.00883162578786
0.0379404283801
0.00557154165826
0.00478547456118
0.00432960123882
0.00385133879278
0.00322540351202
0.00248791756817
0.00150420813575
0.00100807191476
0.00143020265256
0.000379810401525
0.000180115963218
0.000307063953571
0.00143968636652
0.0116721474942
0.00380828461637
0.00435945268107
0.00517868500965
0.00630082238789
0.0108311332741
0.0400867391399
0.00557169913484
0.00482236997364
0.00436611423121
0.00387891591394
0.00322203227697
0.00245544525019
0.00154142837236
0.00109657471384
0.00140650157992
0.000383347566135
0.000228658332829
0.000466936236816
0.00221925877148
0.00642231149259
0.00389762504978
0.00417191493817
0.00525047968253
0.00664708655284
0.0123007080137
0.0422932275227
0.00566063513692
0.00493244202187
0.00439874632097
0.00384537282038
0.00315490242892
0.00239096589656
0.00152260064696
0.00110281488055
0.00130425269912
0.000379430344796
0.000311220149645
0.000749028809887
0.0036959678252
0.00324246695589
0.00357875973032
0.00408045637351
0.005348212774
0.00730082171542
0.012641380317
0.041175543375
0.00587601287375
0.00515119134269
0.00451614426446
0.00384705226671
0.00310094124459
0.00233551395855
0.00145740659838
0.00100340567609
0.00107060670382
0.000388647376111
0.000462101834182
0.00123757543272
0.00492800468131
0.00302508479821
0.00328326951293
0.00405429799793
0.00548702373532
0.00759719057344
0.0128039936776
0.0346863256242
0.00619774105283
0.00547104427492
0.00475473624614
0.00396784161359
0.00313716465903
0.00231725042182
0.00137175565172
0.000842101964186
0.000702078894832
0.000429249317695
0.000718955511217
0.00212044027723
0.00230187567396
0.00288970872066
0.00309526138598
0.00407653720823
0.00563298683298
0.00757014660179
0.0131113076897
0.030618945137
0.00658348892683
0.00586634318127
0.00509433558447
0.00421470961212
0.00328608483523
0.00234459375467
0.00129986071142
0.000752069181677
0.000416064402097
0.000442119795912
0.00102345500022
0.00221606937596
0.00226130677892
0.00247580726441
0.0029728308201
0.00415385073172
0.00575984461223
0.00772563216958
0.0133700229496
0.0268593317233
0.00699069997154
0.00630470446679
0.00550082288558
0.0045484204341
0.0035199057981
0.00241901622697
0.00133593742505
0.000739687329578
0.000363918697442
0.00050730959437
0.0011598904907
0.00124751415554
0.00224907137544
0.00214764921885
0.00289729422452
0.00433758197855
0.005854848956
0.00782748550841
0.012180794311
0.0231231104612
0.00741634710245
0.00677392743447
0.00595480953892
0.00493326323885
0.00379259207399
0.00255411606797
0.00165407377193
0.000796878260082
0.000437201893847
0.000599220565828
0.000994015799895
0.00130241064151
0.00182836788656
0.00189540535318
0.00325108974113
0.00514878625875
0.00591580459655
0.00782382368157
0.0103328949964
0.0201331511599
0.00789351189279
0.00729074096855
0.00645635793236
0.00535699540762
0.0040931121679
0.00274104085624
0.00179797360918
0.000925696459296
0.000622247415034
0.000633793253138
0.000612597572508
0.001441159879
0.00140583043771
0.00172748105571
0.00450002908028
0.00580133612495
0.00597219652914
0.00776226561341
0.0102328548609
0.0190380816987
0.0084699490454
0.0078817394158
0.00701756923264
0.00582195318239
0.00441816633995
0.00296056030687
0.00193610643551
0.00110854110843
0.000855485484286
0.000564011002399
0.000492186430339
0.00135784278678
0.00103634638311
0.00227059937715
0.00755886525434
0.00615792551899
0.00603288067101
0.00772583781463
0.00998447251943
0.0186610844172
0.00915443054417
0.00854590971796
0.00762571460666
0.00630078509745
0.00474618616184
0.00321220116052
0.00201982040509
0.00137040861008
0.00128761714522
0.000374561797943
0.000385669496685
0.00103405448834
0.000810497056114
0.00657736289055
0.0105722985952
0.00640590683998
0.00610284214714
0.00771040321576
0.00972459766738
0.0173936513423
0.00986465566139
0.00920448441191
0.0081936628206
0.00671231840297
0.00504391174804
0.0035496510805
0.00220739602816
0.00183660536647
0.00144676022192
0.000232220437141
0.000291813815072
0.000482984484046
0.00219586477142
0.0143406700209
0.0134602795604
0.00680452245833
0.00631332546981
0.00778986858255
0.00956676832755
0.0159864890539
0.0103876334288
0.00965334779617
0.00853530251875
0.00692495831597
0.00532682142178
0.00423319573309
0.0033571077849
0.00270111936986
0.00209279223907
0.000107224521288
0.000224546359617
0.000803051296312
0.00545614236672
0.0150281455034
0.0186905197813
0.00784345184171
0.0074577456417
0.0079997752539
0.0096020889462
0.0149195758501
0.0104218874206
0.00961737875687
0.0084039051479
0.00683669229252
0.0058310650284
0.00575864570241
0.00567758871822
0.00511990779433
0.00341015770573
4.64826172698e-05
0.000183128881334
0.00182398146103
0.0049255211205
0.0150407245938
0.0248035304404
0.010071841907
0.00904937120992
0.00846870472716
0.00984991791754
0.0146326718137
0.00977425821661
0.00892428541894
0.00765451896134
0.00649044910529
0.00636184215477
0.00653216344609
0.00642198548903
0.00558790435723
0.00339917521873
2.0849732577e-05
0.00012984571145
0.00160752789886
0.00399576088576
0.0146759295362
0.0287176648981
0.0121508760676
0.00987853431187
0.00974206498797
0.0104270812845
0.0147023785367
0.00866484416547
0.00773668436068
0.00637662766404
0.00573730910341
0.00671363647607
0.00676865626354
0.00648018836991
0.00517461579619
0.00241495914261
8.11697029783e-06
0.000120669324338
0.00152408285389
0.00312128459911
0.0138202755363
0.031142669855
0.0139373570604
0.0100196910833
0.00971922574654
0.0105785857998
0.0147737417604
0.00756568759932
0.00633317158962
0.00494192586208
0.00604624917302
0.00807077661652
0.00757315532175
0.00642919981472
0.00444502254259
0.00091013762132
4.26632857495e-06
0.00023490165506
0.0015140049109
0.00245833981827
0.0121455648905
0.0307531396373
0.0199142717251
0.00932797933899
0.00855110510507
0.0100537772409
0.0145180131301
0.00660709352584
0.00497688358492
0.00440529940616
0.00839231159581
0.0093538123358
0.00807031158051
0.0063011363108
0.00383224654526
0.000195930906275
1.54859655108e-06
0.000638296717188
0.00144582069599
0.00189932069579
0.00959567423249
0.0262171096308
0.0367031701497
0.00830975594984
0.0073948280266
0.00913482794791
0.0136398314776
0.00566405473084
0.00411454288662
0.00607530844785
0.0111514811808
0.0100749524785
0.00804309662372
0.00576373381915
0.00209762349078
0.000106202653672
2.62308295939e-05
0.00113974487607
0.00126714078287
0.00135528247816
0.00696891392141
0.0199851092069
0.030840512477
0.0138874884021
0.00563327966022
0.00769750182936
0.0120808940937
0.0047162631424
0.00456076444076
0.0109150415454
0.0127374936361
0.0101708325609
0.00728907055077
0.00359516188922
0.000893812467019
4.50583003993e-05
0.000441594027937
0.00120042671869
0.000977983683346
0.000913619078008
0.00473780363049
0.0141133453252
0.0211283100695
0.0271451191012
0.00554544718444
0.00651406300536
0.010102132892
0.0043645284376
0.00817521169187
0.0158277631478
0.0132873065077
0.00915590688086
0.0043275745838
0.0014316500495
0.000473310570563
8.71152378841e-05
0.001052536486
0.000969304932701
0.000721314479859
0.00074577912773
0.00312704732602
0.00919903307543
0.0136401493363
0.0208623331217
0.0209707808141
0.0060593405172
0.00888605594205
0.00587499582692
0.016003877307
0.0174421658328
0.0121784964557
0.00510442619173
0.00169260963927
0.000813423831437
0.000141144279657
0.000771721406187
0.000946316678027
0.000804219332727
0.000759284666644
0.00103679328423
0.00259176131253
0.00624360792579
0.00985689656128
0.0186558460631
0.0268335064625
0.00617262734843
0.00907795072778
0.0113476670821
0.0216551774728
0.0165970839864
0.00705301052835
0.00194801022883
0.00101411170117
0.000284721961788
0.000135995769155
0.000917419033351
0.000928423346003
0.00105195581056
0.00145668284542
0.00233135961703
0.00410994852533
0.00698490738547
0.0113293446789
0.0211840417912
0.00947297252806
0.00647981567827
0.00974178815837
0.0204874223013
0.022920864659
0.0136231837503
0.00257537413089
0.00127585807578
0.0004308923268
0.000128562319984
0.000720299588586
0.000971630122673
0.00126953998268
0.0020188165233
0.00351162033776
0.00588245278835
0.00905391531744
0.0127857151008
0.0182280811032
0.0249416632469
0.00546013700492
0.006822267271
0.0104752833835
0.0263963296401
0.0220095071719
0.00897243342085
0.00170193618308
0.000781388905975
0.000201402909409
0.000309081954118
0.000818880817182
0.00109326944421
0.0018750752649
0.00377000544897
0.0077098268624
0.0142017714883
0.0199457292162
0.0162621645257
0.00747634913652
0.00686730497489
0.00662899779136
0.00736025191529
0.0108555184209
0.0281504762424
0.0216910693101
0.00658124830292
0.00153963843229
0.000507646504727
0.000351473811696
0.000773142904958
0.000739969915252
0.00113179706653
0.00244638175035
0.00622424050101
0.015577153073
0.0278192364149
0.00982732540031
0.00648857658698
0.00801874266316
0.00888809555891
0.00827466244786
0.00843302964739
0.0117270646836
0.027299931366
0.0205701712378
0.00741589860144
0.00139609838739
0.000615513878411
0.00163936539256
0.00174467941678
0.000901643708294
0.00101822383293
0.00252943333701
0.00760785851025
0.0213169629874
0.00942147278881
0.00755095525035
0.00674908758222
0.00819591235099
0.00881024159311
0.00840327305351
0.00929257724637
0.0138160601605
0.0241622048398
0.0185324892755
0.00904884202845
0.00292788729111
0.000982131469704
0.00118790987108
0.00324895404375
0.0021277567416
0.00137374934052
0.00204051260404
0.00607440519052
0.0192238744227
0.0058725062895
0.00543806676493
0.00587009207665
0.00767399003619
0.00849018832789
0.00809093758089
0.00962283299854
0.0147159001221
0.0203362453422
0.0161337255393
0.00966773504341
0.00455721923974
0.00251893433485
0.00129708063561
0.00136123055803
0.00283804589773
0.00272789464632
0.00223268524028
0.00404932228601
0.0165070047066
0.00523606784299
0.00506355727161
0.00504927764031
0.00680943876586
0.00819016623209
0.00833529947714
0.0100060149036
0.01498945601
0.0168450622222
0.013902836609
0.00971255465237
0.00580689210913
0.00354198252677
0.00251340475881
0.00159759809319
0.00146400895266
0.00186506671257
0.00270516988798
0.0033172984318
0.0103721212737
0.00452024027258
0.00523558439453
0.00461281093152
0.00591952352792
0.00782790681069
0.00877164032593
0.0104472800621
0.0150847137084
0.0142675703377
0.0120556170739
0.00941274536061
0.00663657190826
0.00445147643835
0.00326877761381
0.00248446164084
0.00169243078722
0.00149244095184
0.0012429676151
0.00222777180369
0.00658540828118
0.00478911493727
0.00527480830887
0.004483707365
0.00534397618287
0.00761848748173
0.00936316681321
0.0109799297048
0.015153690183
0.0125277753315
0.0108150318179
0.00907646185899
0.00710293458055
0.00526762692034
0.00387384514472
0.00306744597269
0.00228566468906
0.00151377413176
0.00118317132614
0.000850335508589
0.00346270910598
0.00437453254562
0.00509647924213
0.00448733641801
0.00513121826657
0.00773695891234
0.0102486438786
0.0116639434854
0.0153733281873
0.0114500234871
0.0100301719176
0.00883090079752
0.00740240018603
0.00580682549568
0.00439164634872
0.0035364198415
0.00269282520372
0.00177738781668
0.000997461924823
0.000735873028434
0.0020750372316
0.00420935225597
0.00478655828329
0.00441763951835
0.00504842309969
0.0081693690572
0.0114930562404
0.0125568200606
0.016010447547
0.0107628049138
0.00955330330416
0.00862321543832
0.0074803372143
0.00595411121459
0.00481439972069
0.00392938560268
0.00291432088744
0.00181365797646
0.000937547050052
0.000674611138501
0.00164937166657
0.00356098781825
0.00417812693209
0.00415467112642
0.00468450105022
0.00893976756779
0.0132585088976
0.0137577037656
0.0176593119022
0.0106375649512
0.00966260539426
0.00882054276262
0.007580554045
0.00623508981179
0.00527766883358
0.00423533800919
0.00293246612548
0.00163745081484
0.000766360442641
0.000610512084017
0.00135784324298
0.00276738931652
0.00321990318744
0.00369893812641
0.0040744520675
0.0103052029503
0.0158333106885
0.0161722099628
0.0224944749943
0.0115279505363
0.0107842698023
0.00992721696373
0.00852519849528
0.00719102173477
0.00593262469045
0.0044061752462
0.00267472585237
0.00126257648905
0.000682341414808
0.000622885737367
0.00115209646471
0.00137418053851
0.00191472718878
0.00267609962472
0.00332433216787
0.0122281577947
0.0195675263294
0.0224938642901
0.0339977650443
)
;

boundaryField
{
    emptyPatch
    {
        type            empty;
    }
    minY
    {
        type            fixedValue;
        value           nonuniform List<scalar> 0();
    }
    maxY
    {
        type            inletOutlet;
        inletValue      uniform 1e-05;
        value           nonuniform List<scalar> 
40
(
1.2837137089
0.4997475856
0.250195984431
0.150195475411
0.101874046385
0.0741786736477
0.0559793141941
0.0430229355358
0.0331745461294
0.0255275368502
0.0208852176753
0.020676410251
0.0215740520742
0.021834545851
0.0209694707853
0.0191020060173
0.0170178956875
0.0152103601839
0.0136185185024
0.0123987692548
0.0115279505363
0.0107842698023
0.00992721696373
0.00852519849528
0.00719102173477
0.00593262469045
0.0044061752462
0.00267472585237
0.00126257648905
0.000682341414808
0.000622885737367
0.00115209646471
0.00137418053851
0.00191472718878
0.00267609962472
0.00332433216787
0.0122281577947
0.0195675263294
0.0224938642901
0.0339977650443
)
;
    }
    water_to_cooler
    {
        type            kqRWallFunction;
        value           nonuniform List<scalar> 
38
(
0.0343142993827
0.0379404283801
0.0400867391399
0.0422932275227
0.041175543375
0.0346863256242
0.030618945137
0.0268593317233
0.0231231104612
0.0201331511599
0.0190380816987
0.0186610844172
0.0173936513423
0.0159864890539
0.0149195758501
0.0146326718137
0.0147023785367
0.0147737417604
0.0145180131301
0.0136398314776
0.0120808940937
0.010102132892
0.00888605594205
0.00907795072778
0.00974178815837
0.0104752833835
0.0108555184209
0.0117270646836
0.0138160601605
0.0147159001221
0.01498945601
0.0150847137084
0.015153690183
0.0153733281873
0.016010447547
0.0176593119022
0.0224944749943
0.0339977650443
)
;
    }
    water_to_heater
    {
        type            kqRWallFunction;
        value           nonuniform List<scalar> 
59
(
1.82309959715
1.82309959715
1.70346118118
1.61438429869
1.55684869449
1.55684869449
1.51135923024
1.51135923024
1.47502207805
1.47502207805
1.43903502822
1.42062121713
1.43505081383
1.43505081383
1.40330178962
1.40330178962
1.37925297012
1.37925297012
1.37542310889
1.39844774857
1.44104733742
1.44104733742
1.47113151564
1.47113151564
1.49546228163
1.49546228163
1.57251395181
1.66500284931
1.82519692135
1.82519692135
1.96810072346
1.96810072346
1.90187518566
1.90187518566
1.76353449943
1.66253184244
1.61006795158
1.61006795158
1.6051932158
1.6051932158
1.66592715072
1.66592715072
1.84618846256
2.2479812027
2.75341116195
2.75341116195
3.07146501943
3.07146501943
3.09364335577
3.09364335577
2.8367044612
2.46426677358
2.08329960471
2.08329960471
1.74533660196
1.74533660196
1.45851504672
1.45851504672
1.2837137089
)
;
    }
    procBoundary0to1
    {
        type            processor;
        value           nonuniform List<scalar> 
41
(
1.95503230883
1.03485574238
0.838750354601
1.02975713357
0.603702006646
0.240234875711
0.0993307713828
0.0454044462116
0.0248723952987
0.0181942509161
0.0182457886728
0.0214433527795
0.0230168787218
0.0210298912493
0.0170621528636
0.0128992413253
0.00975796746642
0.00791691573053
0.00687948219353
0.00610430525871
0.00267151790708
0.00211830512824
0.0011894113535
0.000632455904082
0.0010906898303
0.000352445927454
0.000117542330559
0.000109901236697
0.00041285487338
0.0055217925597
0.0204206110003
0.00639849511069
0.00521260644931
0.00551997019855
0.00604318825064
0.0193859814582
0.00540170789153
0.00468632859874
0.00403127492174
0.00349591785964
0.00349591785964
)
;
    }
}


// ************************************************************************* //
