/*--------------------------------*- C++ -*----------------------------------*\
| =========                 |                                                 |
| \\      /  F ield         | OpenFOAM: The Open Source CFD Toolbox           |
|  \\    /   O peration     | Version:  2312                                  |
|   \\  /    A nd           | Website:  www.openfoam.com                      |
|    \\/     M anipulation  |                                                 |
\*---------------------------------------------------------------------------*/
FoamFile
{
    version     2.0;
    format      ascii;
    arch        "LSB;label=32;scalar=64";
    class       volScalarField;
    location    "0.345/water";
    object      d.gas;
}
// * * * * * * * * * * * * * * * * * * * * * * * * * * * * * * * * * * * * * //

dimensions      [0 1 0 0 0 0 0];

internalField   nonuniform List<scalar> 
6000
(
0.00497526224942
0.00497532482861
0.00497534145346
0.00497535400197
0.00497536457823
0.00497537391728
0.00497538237671
0.00497538996141
0.00497539660808
0.00497540235065
0.00497540722549
0.00497541128748
0.00497541461597
0.00497541728773
0.00497541936816
0.00497542091251
0.0049754219674
0.00497542257121
0.00497542275444
0.00497542254198
0.00497557634614
0.00497560668244
0.00497560373035
0.0049756031534
0.00497560734416
0.00497561107974
0.00497561458429
0.00497561795009
0.00497562129276
0.00497562450983
0.00497562738494
0.00497562983437
0.00497563189173
0.00497563359698
0.00497563496616
0.00497563599968
0.00497563669259
0.00497563703975
0.00497563703697
0.00497563668253
0.00497585787368
0.00497588875682
0.0049758755583
0.00497586522419
0.00497586190379
0.00497585913709
0.00497585692029
0.00497585544971
0.00497585465314
0.00497585440549
0.00497585449431
0.00497585466641
0.00497585478301
0.00497585481744
0.00497585476925
0.00497585462686
0.00497585436582
0.00497585395517
0.00497585336282
0.00497585256234
0.00497609603194
0.00497611703732
0.00497610295526
0.00497609578903
0.00497609481369
0.00497609292355
0.00497609019543
0.00497608743075
0.00497608498609
0.00497608295491
0.00497608132318
0.00497607995802
0.00497607870258
0.00497607747577
0.00497607625966
0.00497607505113
0.00497607384001
0.00497607260611
0.00497607132301
0.00497606996674
0.00497633207443
0.00497634551881
0.00497632694693
0.00497631921807
0.00497631865806
0.00497631761562
0.00497631527809
0.00497631238277
0.00497630955469
0.00497630699789
0.00497630474728
0.00497630274886
0.00497630088216
0.00497629905034
0.00497629721876
0.00497629538687
0.00497629355972
0.00497629173686
0.00497628991159
0.00497628807822
0.00497654658164
0.00497656072195
0.00497654310406
0.00497653539092
0.00497653458842
0.00497653450834
0.0049765334812
0.00497653146685
0.00497652909869
0.00497652681138
0.00497652470469
0.00497652275836
0.00497652087641
0.00497651896229
0.00497651697375
0.00497651491159
0.00497651279224
0.00497651063285
0.00497650844743
0.0049765062518
0.00497675288758
0.00497677299399
0.00497675853989
0.00497675135042
0.00497674952545
0.0049767489226
0.00497674841253
0.0049767473991
0.00497674591456
0.004976744341
0.00497674281351
0.00497674129659
0.00497673970789
0.00497673796227
0.00497673602284
0.00497673389858
0.00497673161931
0.00497672921998
0.00497672673528
0.00497672420374
0.0049769555928
0.00497698445496
0.00497697680328
0.00497697109253
0.00497696893996
0.00497696725322
0.00497696598619
0.0049769649922
0.00497696398541
0.00497696295928
0.00497696193299
0.00497696076001
0.00497695933227
0.00497695759347
0.00497695553349
0.0049769531809
0.00497695058404
0.00497694779763
0.00497694487744
0.00497694188302
0.00497717902117
0.0049772130752
0.00497720369236
0.00497719783915
0.00497719546224
0.00497719299867
0.00497719096848
0.00497718938556
0.00497718798253
0.00497718662278
0.00497718530751
0.00497718377868
0.00497718182194
0.00497717942439
0.00497717663695
0.00497717352169
0.00497717014731
0.00497716658513
0.00497716290606
0.00497715918221
0.00497742587295
0.00497746409313
0.00497744976794
0.00497744112584
0.0049774368021
0.00497743281712
0.00497742904046
0.00497742560812
0.00497742229888
0.00497741888821
0.00497741551014
0.00497741206935
0.00497740825055
0.0049774040375
0.00497739954529
0.00497739486575
0.00497739006962
0.00497738522286
0.00497738039119
0.00497737564125
0.00497769939176
0.00497773414671
0.00497771171712
0.00497769908936
0.00497769227894
0.00497768624764
0.00497767991319
0.00497767322821
0.00497766622573
0.00497765891185
0.00497765142489
0.00497764411616
0.00497763688215
0.00497762965071
0.00497762252791
0.00497761559379
0.00497760887706
0.00497760239873
0.00497759618669
0.00497759027541
0.00497795784353
0.00497798044754
0.00497795582028
0.00497794359022
0.00497793707099
0.00497793063551
0.00497792301916
0.0049779141697
0.00497790448513
0.004977894196
0.00497788326284
0.00497787211076
0.00497786130148
0.00497785100827
0.00497784131403
0.00497783225113
0.00497782379105
0.00497781589219
0.00497780852985
0.00497780169536
0.0049781672909
0.00497818145314
0.00497816206005
0.00497815174069
0.00497814635176
0.00497814087854
0.00497813415373
0.00497812614617
0.00497811718057
0.00497810748806
0.00497809696906
0.00497808538634
0.00497807336479
0.00497806179287
0.00497805102192
0.00497804108042
0.00497803192389
0.00497802349218
0.00497801573862
0.00497800863322
0.00497831684211
0.00497833314682
0.00497831971675
0.00497831587332
0.00497831568498
0.00497831447494
0.00497831165783
0.00497830755438
0.00497830229568
0.0049782960008
0.00497828872831
0.00497828009832
0.00497826994283
0.00497825943221
0.00497824952918
0.00497824039627
0.00497823196535
0.00497822420034
0.00497821707324
0.00497821056112
0.00497850138097
0.00497851698958
0.00497849511485
0.0049784867944
0.00497848437709
0.00497848251307
0.00497848044959
0.00497847805447
0.00497847506425
0.00497847128272
0.00497846654259
0.00497846077437
0.00497845361287
0.00497844560512
0.00497843796398
0.00497843099935
0.00497842454852
0.0049784185535
0.00497841301429
0.0049784079241
0.00497863195242
0.00497865374734
0.00497863946337
0.00497863579669
0.00497863711787
0.0049786382413
0.00497863880591
0.00497863944934
0.00497863988403
0.00497863893418
0.00497863612132
0.00497863206841
0.00497862758321
0.00497862284692
0.00497861857028
0.00497861491878
0.00497861151323
0.00497860820952
0.00497860503813
0.00497860202208
0.00497878652128
0.00497881570413
0.00497879980451
0.00497879311951
0.00497879274721
0.00497879357362
0.00497879536232
0.00497879849139
0.00497880197249
0.00497880360151
0.00497880225709
0.00497879924694
0.00497879676388
0.00497879542525
0.0049787951378
0.00497879561643
0.00497879595752
0.00497879590478
0.0049787955269
0.00497879489786
0.00497891065604
0.00497894981591
0.00497894447944
0.00497894185595
0.00497894462216
0.00497894869617
0.00497895449448
0.00497896229866
0.00497896960452
0.00497897339764
0.00497897328499
0.00497897095794
0.00497896956339
0.00497897074283
0.00497897407665
0.00497897852306
0.00497898243483
0.00497898543513
0.00497898762456
0.00497898913216
0.00497909239327
0.00497913541778
0.004979122208
0.00497911805784
0.0049791215609
0.0049791276401
0.00497913688849
0.00497914790281
0.00497915595614
0.00497916002557
0.00497915983266
0.00497915714792
0.00497915549174
0.00497915743225
0.00497916291611
0.00497916990568
0.00497917605278
0.00497918088602
0.00497918457363
0.00497918727873
0.00497929707362
0.00497934021529
0.00497932444519
0.00497932176913
0.00497932795303
0.00497933674758
0.0049793478673
0.00497935801178
0.00497936533592
0.00497936938192
0.0049793682672
0.00497936446748
0.00497936125132
0.00497936186722
0.00497936709472
0.00497937431196
0.00497938054009
0.00497938520237
0.00497938862937
0.00497939103004
0.00497951433758
0.00497956200071
0.00497954832076
0.00497954762491
0.00497955532045
0.00497956501069
0.00497957693364
0.00497958896291
0.00497959794938
0.00497960086123
0.00497959868232
0.00497959401174
0.00497958917215
0.00497958695551
0.00497958878593
0.00497959315449
0.00497959687884
0.00497959905784
0.00497960016792
0.00497960052356
0.00497973932473
0.00497979316873
0.00497978582891
0.00497978663035
0.00497979609647
0.00497980890072
0.00497982414736
0.00497983722254
0.00497984393965
0.00497984421527
0.00497984121001
0.00497983744445
0.00497983344712
0.00497982919795
0.00497982550165
0.00497982374521
0.00497982246134
0.00497982015595
0.00497981719274
0.00497981400893
0.00497999692104
0.00498006259496
0.00498006517056
0.00498006739609
0.0049800747845
0.00498008353972
0.00498009223756
0.00498009636854
0.00498009449135
0.00498009007492
0.00498008645098
0.0049800830561
0.00498007864333
0.00498007340354
0.00498006697203
0.00498005873552
0.00498005115134
0.00498004342667
0.004980035593
0.00498002813586
0.00498033930501
0.00498040094481
0.00498039055957
0.00498038407273
0.00498038019625
0.00498037504812
0.00498036856041
0.00498035897705
0.00498034738054
0.00498033704695
0.0049803287812
0.00498032169415
0.00498031487348
0.00498030844344
0.00498030080721
0.00498028945962
0.00498027604662
0.0049802630031
0.00498025050182
0.00498023894767
0.00498066595733
0.00498070678727
0.00498067944743
0.00498066618061
0.00498065632661
0.00498064308959
0.0049806266402
0.00498060814186
0.00498058949859
0.00498057280469
0.00498055882955
0.00498054695897
0.00498053645464
0.00498052605342
0.00498051624606
0.00498050534169
0.00498048978207
0.0049804731722
0.00498045729965
0.00498044275458
0.00498090182574
0.00498091404254
0.00498088507934
0.00498087417492
0.00498086742495
0.00498085678668
0.00498084066496
0.0049808212502
0.00498080094826
0.00498078197685
0.00498076618007
0.00498075149696
0.00498073792752
0.00498072500642
0.0049807130679
0.00498070183986
0.0049806875073
0.00498067008712
0.00498065287829
0.00498063703691
0.00498105271746
0.00498105197824
0.00498103051168
0.00498102386825
0.00498102159504
0.00498101678381
0.00498100637581
0.00498099173661
0.00498097560318
0.00498096078538
0.00498094763936
0.0049809336677
0.0049809193285
0.00498090573626
0.00498089221908
0.00498088053929
0.00498086841038
0.00498085264657
0.00498083627424
0.00498082093678
0.00498117586629
0.00498117410504
0.00498115877912
0.00498115390344
0.00498115305689
0.00498115085936
0.00498114435641
0.00498113454446
0.00498112379905
0.00498111498949
0.00498110623578
0.00498109352272
0.00498108142645
0.00498106921721
0.00498105733355
0.00498104636455
0.00498103581227
0.00498102275469
0.00498100867127
0.00498099523675
0.00498129768626
0.0049812941379
0.00498127638116
0.00498127256817
0.00498127293836
0.00498127244369
0.00498126867938
0.00498126226048
0.00498125596574
0.00498125324211
0.00498124622742
0.00498123863364
0.00498123015223
0.00498122192415
0.00498121376993
0.00498120422094
0.00498119456877
0.00498118390085
0.00498117253313
0.00498116171677
0.00498142974706
0.00498142328793
0.00498140008163
0.00498139431942
0.00498139375161
0.00498139296177
0.00498138948705
0.00498138401755
0.00498138133928
0.00498138168413
0.0049813804134
0.00498137454166
0.00498137026821
0.00498136683166
0.00498136247771
0.00498135666117
0.00498134782525
0.00498133876362
0.00498133003526
0.00498132211873
0.00498152503655
0.00498152287542
0.00498150352759
0.00498149992323
0.00498150069035
0.00498150137032
0.00498149988454
0.00498149797065
0.0049815014047
0.004981508032
0.00498150611131
0.00498150611099
0.00498150475069
0.00498150489421
0.00498150886779
0.00498150587436
0.0049814966787
0.0049814886386
0.00498148251006
0.0049814776827
0.00498163382929
0.00498163552925
0.00498161586218
0.0049816107471
0.00498161076833
0.00498161147622
0.00498161129096
0.00498161338467
0.00498162303714
0.00498162909121
0.00498163367978
0.00498163383267
0.00498163777631
0.00498164363021
0.00498164904102
0.00498165103737
0.00498164056492
0.00498163403036
0.00498163078642
0.00498162939234
0.00498172686447
0.00498173554796
0.00498172312137
0.00498172027286
0.00498172201149
0.00498172436273
0.00498172671345
0.00498173371644
0.0049817464636
0.00498175680352
0.00498175913843
0.00498176537753
0.00498176983194
0.00498177769576
0.00498179500365
0.00498178996974
0.00498178083912
0.00498177655789
0.00498177642253
0.0049817789185
0.00498186699483
0.00498187419729
0.00498185115829
0.00498184590683
0.00498184712615
0.00498184939548
0.00498185321642
0.00498186485379
0.00498188103563
0.00498188624219
0.00498189443424
0.00498189903022
0.00498190812189
0.00498192259649
0.00498193026987
0.00498193226781
0.00498192665325
0.00498192196725
0.00498192366108
0.00498192958527
0.00498198179488
0.00498199135321
0.00498196751638
0.00498196508034
0.00498196983881
0.00498197585516
0.00498198526965
0.00498200360462
0.00498201541202
0.00498202639719
0.00498203168107
0.00498204105511
0.00498204976852
0.00498206422619
0.00498208704722
0.00498208175294
0.004982075157
0.00498207144988
0.00498207515092
0.0049820841668
0.00498212646589
0.00498213977129
0.00498210903655
0.00498210413754
0.00498210873299
0.00498211609425
0.00498213026027
0.00498214863764
0.00498216382098
0.00498217113293
0.00498218271371
0.0049821919284
0.00498220384041
0.00498223356209
0.00498223682396
0.0049822342188
0.00498223166817
0.00498222919142
0.00498223422446
0.00498224526986
0.00498224129441
0.00498226165708
0.00498223750704
0.00498223680401
0.0049822462479
0.00498225977482
0.00498228088043
0.00498230335464
0.00498231307885
0.00498232732855
0.00498233816548
0.00498235123052
0.00498237063031
0.00498238433847
0.00498239412056
0.00498239686212
0.00498239650313
0.00498239632219
0.00498240193123
0.00498241376453
0.00498239239804
0.00498242183881
0.00498239916414
0.00498239621996
0.0049824048439
0.00498242041046
0.00498244438646
0.00498245735862
0.00498247344296
0.00498248476849
0.00498249814056
0.00498251217487
0.00498253099143
0.00498255707597
0.00498256053562
0.00498256587497
0.0049825708257
0.00498257330807
0.00498257785565
0.00498258938422
0.00498253426059
0.00498256543975
0.00498254026717
0.00498254283341
0.00498255805269
0.00498257989515
0.00498260068943
0.00498261878036
0.00498263400534
0.00498264896351
0.00498266759085
0.00498268373725
0.00498271655506
0.00498272233459
0.00498273025183
0.00498274452896
0.00498275604418
0.00498275842144
0.00498276050816
0.00498277187761
0.00498271176982
0.004982748828
0.00498271481213
0.00498271646863
0.00498273393803
0.00498275592828
0.00498277895814
0.00498280280686
0.00498282583084
0.00498284675507
0.00498285766113
0.00498287733988
0.00498288578012
0.00498289516957
0.00498291407951
0.00498293713976
0.00498294932348
0.00498294986241
0.00498295109041
0.00498296290341
0.00498285773844
0.00498290535431
0.00498288210141
0.00498289375598
0.00498292100818
0.00498295378952
0.00498298871453
0.00498301663728
0.00498302942772
0.00498303139277
0.00498303743406
0.00498304755791
0.00498306235099
0.00498308413598
0.00498311335531
0.0049831391277
0.00498314921928
0.00498315062705
0.00498315259807
0.00498316480782
0.00498300907556
0.00498308109567
0.00498307078354
0.00498308801687
0.00498312309602
0.00498316072997
0.00498318526961
0.0049831921337
0.00498319063782
0.0049831940627
0.00498320637599
0.00498322822058
0.00498325650076
0.00498328888965
0.00498332357537
0.00498334935521
0.00498336070846
0.00498336546032
0.00498336874789
0.00498338108104
0.00498315554036
0.00498325581504
0.00498326975984
0.00498329323707
0.00498332888699
0.0049833489329
0.00498335149195
0.00498334957809
0.00498335379914
0.00498336719331
0.00498339299431
0.00498342848403
0.00498346682323
0.00498350717899
0.00498354644412
0.00498357487722
0.00498359061574
0.00498359893884
0.00498360428453
0.00498361672609
0.00498329060375
0.00498342303334
0.00498344839767
0.00498347760478
0.00498350087903
0.00498350158634
0.00498350068605
0.00498350787829
0.0049835245927
0.00498355391119
0.00498359664157
0.00498364549327
0.00498369507823
0.00498374485173
0.00498379014235
0.00498382349202
0.00498384465471
0.00498385721075
0.004983866291
0.0049838787563
0.00498340981744
0.00498358782965
0.00498361131382
0.00498363882643
0.00498364028534
0.00498364113952
0.00498365356218
0.00498367643786
0.00498371203316
0.00498376396391
0.00498382656723
0.00498389116446
0.0049839538542
0.00498401368459
0.00498406608488
0.0049841050994
0.00498413157964
0.00498414914665
0.0049841628731
0.00498417371843
0.00498357911885
0.00498382602451
0.00498384004438
0.00498383975445
0.00498383078316
0.00498384289835
0.00498386986963
0.0049839131992
0.00498397508221
0.00498405053812
0.00498412971153
0.00498420523989
0.00498427488132
0.004984337352
0.00498438983176
0.00498442920381
0.00498445755402
0.00498447820746
0.00498449286049
0.0049845005404
0.004984239137
0.00498445704201
0.00498436228182
0.00498429953644
0.00498427072832
0.0049842740761
0.00498430876045
0.00498436828204
0.00498444126953
0.00498451560217
0.00498458363831
0.00498464376776
0.00498469609632
0.0049847395155
0.0049847742739
0.00498480020361
0.00498482046551
0.00498483630911
0.00498484324153
0.0049848492015
0.00498569773354
0.00498576750561
0.00498555723169
0.00498543417277
0.00498534103775
0.00498527553339
0.00498524176701
0.00498523274461
0.00498523316309
0.00498523414666
0.00498523301441
0.00498523115636
0.004985229952
0.00498522664783
0.00498522113275
0.00498521496072
0.00498521267308
0.00498521325881
0.00498521109201
0.00498521139474
0.00498695670643
0.00498695435512
0.00498688878527
0.00498677984196
0.00498666142697
0.00498652440486
0.00498636809982
0.00498622377601
0.00498610667041
0.00498600932583
0.00498592463459
0.00498584969269
0.00498578487692
0.00498573061365
0.0049856825261
0.00498564004256
0.00498560735349
0.00498558695335
0.00498557271774
0.00498555945707
0.00498701358747
0.00498701400656
0.00498701534345
0.00498701624779
0.00498700641687
0.00498697991049
0.00498691672672
0.00498679826858
0.00498666043786
0.00498653610306
0.00498642678699
0.00498632643381
0.00498623341569
0.00498615358208
0.00498608457618
0.00498602207655
0.00498596766921
0.0049859271645
0.00498590191087
0.00498587731915
0.00498704157878
0.00498704177184
0.00498704219298
0.00498704279766
0.00498704363254
0.00498704410247
0.00498703907437
0.00498700893816
0.00498693481054
0.00498683434623
0.0049867339924
0.0049866401963
0.00498655024091
0.00498646744546
0.00498639597156
0.00498633121804
0.00498627203506
0.00498622387041
0.00498619237044
0.00498616399898
0.0049870615386
0.0049870615884
0.00498706166171
0.00498706173291
0.00498706180605
0.00498706191243
0.00498706189504
0.0049870561181
0.00498702946785
0.0049869757906
0.00498690376104
0.00498682959641
0.00498675757778
0.00498668638547
0.00498662295446
0.00498656565221
0.00498651336899
0.00498647016847
0.00498643901548
0.00498640993182
0.00498707986705
0.00498707990523
0.00498707991297
0.00498707993249
0.00498708000895
0.00498708012826
0.00498707948277
0.00498707692764
0.00498706413735
0.00498703500319
0.00498699128477
0.00498694117049
0.004986888568
0.00498683590928
0.00498678537496
0.00498673917194
0.00498669834981
0.00498666771757
0.00498664093061
0.0049866142756
0.00498709743981
0.00498709746147
0.00498709742766
0.00498709740558
0.0049870974291
0.00498709750476
0.0049870963099
0.0049870944687
0.00498708644219
0.00498706790467
0.00498704154745
0.00498700957203
0.00498697499276
0.00498693867719
0.00498690228947
0.00498686902104
0.00498684086533
0.00498682520868
0.00498680901415
0.00498678629794
0.00498711496609
0.0049871149267
0.00498711477151
0.00498711457634
0.0049871143448
0.00498711403116
0.0049871120763
0.00498711105781
0.00498710578111
0.00498709364442
0.00498707845166
0.00498706200772
0.00498704016829
0.00498701734539
0.00498699499832
0.00498697337649
0.00498695765608
0.00498695735553
0.00498695084116
0.00498693198409
0.00498713481873
0.0049871347281
0.00498713453445
0.0049871342409
0.0049871338283
0.00498713179146
0.00498712993964
0.00498712804673
0.00498712341577
0.00498711566053
0.00498711147037
0.00498710728748
0.00498709901727
0.00498708718736
0.0049870758539
0.00498706502981
0.004987060875
0.00498707781316
0.00498708025148
0.00498706589251
0.00498716002884
0.00498715988965
0.00498715962764
0.0049871590943
0.00498715596386
0.00498715343926
0.00498715158405
0.00498714909962
0.00498714513896
0.00498714564892
0.00498715533404
0.00498716278604
0.00498716031231
0.00498715912273
0.00498715740049
0.00498715661737
0.00498716852663
0.00498719628361
0.00498720352214
0.00498719346008
0.00498719610529
0.00498719590269
0.00498719528917
0.00498718715069
0.00498718367668
0.00498718211142
0.0049871809131
0.00498717903313
0.00498718179311
0.00498719914247
0.00498721955462
0.0049872262648
0.00498723352901
0.00498723996027
0.00498724815938
0.004987258006
0.00498727855975
0.00498731797971
0.00498732708063
0.00498732234205
0.00498724488965
0.00498724476733
0.00498720304683
0.00498719036275
0.00498719257192
0.00498719750446
0.00498720179359
0.00498721000535
0.00498723493794
0.00498726740326
0.00498728485065
0.00498730064623
0.00498731472329
0.00498733141924
0.00498734926228
0.00498736829254
0.00498740573837
0.00498744378652
0.00498745587579
0.00498745814146
0.00498731371024
0.00498728999813
0.0049872088841
0.00498719152377
0.00498720083129
0.00498721393357
0.00498723086121
0.00498726505168
0.00498730896601
0.00498733719949
0.00498736206497
0.00498738434102
0.00498740999412
0.0049874370748
0.00498746460749
0.00498749635067
0.00498753655825
0.00498757908746
0.00498759613605
0.00498760696703
0.00498739303857
0.00498732571399
0.00498721033823
0.00498719248502
0.00498721350591
0.00498724582497
0.00498729492307
0.00498735107371
0.0049873883715
0.00498742188981
0.00498745204645
0.00498748623866
0.00498752160343
0.00498755708616
0.00498759540628
0.00498763395079
0.00498768873695
0.00498772792896
0.00498775260673
0.00498777501898
0.00498746857797
0.00498737215295
0.0049872328597
0.00498721824321
0.00498726123558
0.00498733133566
0.00498740221185
0.00498744722111
0.00498748833093
0.00498752533639
0.00498756767808
0.00498761089151
0.00498765392099
0.00498770037142
0.00498774445853
0.00498780080011
0.00498785342161
0.00498789522145
0.0049879332101
0.00498796999949
0.00498753761464
0.00498742941849
0.00498728990568
0.00498729487228
0.00498738089316
0.00498747163925
0.00498752559005
0.00498757264003
0.00498761416165
0.00498766376535
0.00498771382967
0.0049877637612
0.00498781773658
0.00498786892293
0.00498792663514
0.00498798255212
0.00498803969381
0.00498809109104
0.00498814581238
0.00498819721072
0.00498760163754
0.00498752106322
0.00498736580455
0.00498742489629
0.0049875475275
0.00498761960317
0.00498767521205
0.00498772149629
0.00498777911047
0.00498783576616
0.00498789283716
0.00498795461089
0.00498801198051
0.0049880768507
0.00498813700121
0.00498820316885
0.00498826400616
0.00498832765545
0.00498839562383
0.0049884567001
0.0049876590545
0.00498766132828
0.00498755121464
0.00498764636949
0.00498774428781
0.00498780835205
0.00498785789382
0.00498792245803
0.0049879860301
0.00498805133419
0.00498812297958
0.00498818847048
0.00498826303789
0.00498833108352
0.00498840564126
0.00498847292292
0.00498854015845
0.00498860940462
0.00498868160837
0.00498874790558
0.00498775037469
0.00498784460803
0.00498780972589
0.00498788529585
0.00498796931301
0.00498803368401
0.00498810550856
0.00498818069428
0.0049882566828
0.00498834469752
0.00498842130666
0.00498851066276
0.00498858783895
0.00498867131185
0.00498874295839
0.00498881097167
0.00498887609023
0.00498894135032
0.00498900743048
0.00498907059349
0.00498813373569
0.00498832559122
0.00498828439532
0.00498832855668
0.00498840675043
0.00498848557887
0.0049885668224
0.00498865302412
0.00498875154324
0.00498883104462
0.00498891586768
0.00498898897054
0.0049890615139
0.00498912314068
0.00498917937724
0.00498923153766
0.00498928168725
0.00498933066307
0.00498937921216
0.0049894272198
0.00498974515338
0.00498997681905
0.00498988550917
0.00498981216415
0.00498977073233
0.00498974197157
0.00498970930672
0.00498968152789
0.00498965655009
0.00498964911158
0.00498965255674
0.00498966479641
0.00498967891224
0.00498969439752
0.00498971034474
0.00498972678672
0.00498974488735
0.00498976454417
0.00498978638199
0.00498981089589
0.00499128258362
0.00499135623337
0.00499126355394
0.00499118802715
0.00499112238198
0.00499104513489
0.00499093778735
0.00499080536509
0.0049906729564
0.00499055732624
0.00499046420048
0.00499039154526
0.00499033491634
0.00499029036403
0.00499025526284
0.00499022833696
0.00499020897932
0.00499019651517
0.00499019033189
0.00499019061879
0.00499138062138
0.00499138180281
0.00499138240883
0.00499138281911
0.00499138298473
0.00499137806302
0.00499135751102
0.00499131259687
0.00499123581156
0.00499113470374
0.00499102668729
0.00499092501973
0.00499083662645
0.00499076169631
0.0049906984013
0.00499064569292
0.00499060307723
0.00499057028978
0.00499054587024
0.00499052968308
0.00499140169391
0.00499140191512
0.00499140205835
0.00499140235329
0.00499140280551
0.00499140341377
0.00499140381359
0.00499140040464
0.00499138552211
0.0049913466782
0.00499128561666
0.00499121128774
0.00499113462609
0.004991064385
0.00499100167724
0.00499094625545
0.00499089895336
0.00499086009174
0.00499082945775
0.0049908061568
0.00499141848969
0.00499141868496
0.00499141885302
0.00499141908139
0.00499141937982
0.00499141975509
0.00499142025113
0.0049914208498
0.00499142039624
0.00499141017878
0.00499138510733
0.00499134504965
0.00499129518124
0.00499124359964
0.00499119476614
0.0049911490342
0.00499110761965
0.00499107164691
0.00499104192137
0.00499101838711
0.00499143345041
0.00499143360001
0.00499143371903
0.00499143386446
0.00499143404168
0.00499143424919
0.00499143446968
0.00499143471286
0.00499143559929
0.00499143324914
0.00499142287466
0.00499140289196
0.00499137555872
0.00499134374825
0.00499131074479
0.00499127819714
0.00499124703323
0.00499121856418
0.00499119344628
0.00499117254437
0.00499144703938
0.0049914471623
0.00499144726362
0.00499144738931
0.00499144754634
0.0049914477285
0.00499144794789
0.0049914482333
0.00499144828691
0.00499144730242
0.00499144220257
0.00499143146079
0.00499141729369
0.00499140112028
0.00499138285527
0.00499136171178
0.00499134094204
0.00499132091028
0.00499130213633
0.0049912849986
0.00499145962832
0.0049914597223
0.00499145979665
0.00499145990513
0.0049914600467
0.00499146020509
0.00499146039336
0.00499146063755
0.00499146005955
0.00499145950375
0.00499145679526
0.00499145095425
0.00499144504379
0.00499144069903
0.00499143321035
0.00499142219136
0.00499140981873
0.0049913974182
0.00499138508454
0.00499137265736
0.00499147134851
0.00499147153199
0.00499147170265
0.00499147182551
0.00499147191863
0.00499147198092
0.00499147202453
0.00499147204417
0.00499147133988
0.00499147180115
0.00499147101412
0.00499146900452
0.0049914698039
0.00499147504922
0.00499147785736
0.00499147364667
0.00499146912065
0.00499146368815
0.00499145694683
0.00499145080867
0.00499148792182
0.00499148686971
0.00499148598764
0.00499148534598
0.00499148491422
0.00499148464473
0.00499148460855
0.00499148460832
0.00499148467203
0.00499148557166
0.00499148636463
0.00499148797944
0.00499149704662
0.00499151417111
0.00499152460266
0.004991529653
0.00499153187235
0.00499153265815
0.00499153365978
0.00499153181009
0.00499154395612
0.00499151702094
0.00499151197291
0.00499151167519
0.00499151208227
0.00499151280133
0.00499151385464
0.00499151457582
0.00499151495196
0.00499151586372
0.00499151774991
0.00499152551711
0.00499154934131
0.00499157681735
0.00499159420314
0.00499160453964
0.00499161356216
0.00499162098239
0.00499162710309
0.00499162691376
0.00499160610496
0.00499157366733
0.00499155736812
0.00499155900454
0.00499156416906
0.00499156823968
0.00499157051719
0.00499157229532
0.00499157341775
0.0049915754368
0.00499158309908
0.0049916100814
0.00499165024303
0.00499168144757
0.00499169922667
0.0049917151893
0.00499172896684
0.00499174253453
0.00499174903443
0.00499174124822
0.00499166554038
0.00499163759841
0.00499161052126
0.00499161629896
0.00499162852905
0.00499163950735
0.004991648496
0.00499165619156
0.00499166461633
0.0049916806807
0.00499171722365
0.00499176802736
0.00499181035858
0.00499183400686
0.00499185526166
0.00499187451226
0.004991893482
0.00499190471922
0.00499189918217
0.00499188958573
0.00499176850475
0.00499175682436
0.00499172441953
0.00499173750084
0.00499175934093
0.00499177896286
0.00499179813537
0.00499182123988
0.0049918566962
0.00499190904586
0.00499196360787
0.00499200689505
0.0049920316575
0.00499205450128
0.00499207915261
0.00499210084657
0.00499211416868
0.00499210946566
0.00499210051307
0.00499208272323
0.00499205061654
0.00499208274294
0.00499205610268
0.00499206908121
0.00499209211451
0.00499211558637
0.00499214588192
0.00499218818019
0.00499223877764
0.00499227657515
0.00499230204873
0.00499232301219
0.00499234279302
0.00499237148477
0.00499239257935
0.00499240023601
0.00499239059037
0.0049923760586
0.00499235407737
0.00499232085537
0.00499261394548
0.00499268777463
0.00499266815822
0.00499266578872
0.00499267243504
0.00499268109212
0.00499269567259
0.00499271614496
0.00499273214469
0.00499273947987
0.00499275691929
0.00499278066078
0.00499280269367
0.00499280914862
0.00499279664231
0.00499276892951
0.00499273708271
0.00499270111756
0.00499265748398
0.00499260427604
0.00499345127293
0.00499351134582
0.00499346269256
0.0049934454375
0.00499343874006
0.0049934327942
0.00499343186625
0.00499343920627
0.00499344838415
0.00499346046553
0.0049934676562
0.00499345166335
0.00499340865598
0.0049933468427
0.00499327733648
0.00499320881439
0.00499314254065
0.00499307477374
0.00499300320622
0.00499292672559
0.00499399214229
0.00499402725168
0.00499399979982
0.00499399377846
0.00499399957296
0.00499401107051
0.00499402361853
0.00499402918724
0.00499402138258
0.00499399865247
0.00499395954421
0.00499390562311
0.00499384101548
0.00499376997051
0.00499369439278
0.00499361370535
0.00499352792476
0.00499343972753
0.00499334956012
0.00499325931031
0.00499397782044
0.00499397895145
0.00499397969134
0.00499398040192
0.00499398119112
0.00499398305255
0.00499398525059
0.0049939856751
0.00499398552869
0.00499398572197
0.00499398578292
0.0049939807804
0.0049939624591
0.00499393311278
0.00499389446869
0.00499384442123
0.00499378068644
0.00499370733494
0.00499362987559
0.00499355337367
0.00499398912274