/*--------------------------------*- C++ -*----------------------------------*\
| =========                 |                                                 |
| \\      /  F ield         | OpenFOAM: The Open Source CFD Toolbox           |
|  \\    /   O peration     | Version:  2312                                  |
|   \\  /    A nd           | Website:  www.openfoam.com                      |
|    \\/     M anipulation  |                                                 |
\*---------------------------------------------------------------------------*/
FoamFile
{
    version     2.0;
    format      ascii;
    arch        "LSB;label=32;scalar=64";
    class       volScalarField;
    location    "0.965/heater";
    object      T;
}
// * * * * * * * * * * * * * * * * * * * * * * * * * * * * * * * * * * * * * //

dimensions      [0 0 0 1 0 0 0];

internalField   nonuniform List<scalar> 
600
(
787.340992499
787.218676408
786.974687034
786.61038153
786.127993819
787.190011364
787.057359403
786.791618227
786.391844836
785.856462522
787.063367096
786.928846362
786.659748024
786.255985826
785.717504651
786.986342668
786.851837731
786.58284339
786.179393161
785.641533067
786.950230375
786.816389595
786.548781923
786.147563933
785.612897917
786.935423625
786.801967384
786.535129224
786.135158479
785.602541763
786.928389903
786.795020149
786.528328625
786.128600206
785.596746505
786.922522249
786.789176307
786.522495023
786.122728813
785.591328075
786.913726623
786.780302587
786.51341273
786.113038386
785.580383369
786.900790549
786.767164617
786.499882236
786.098728409
785.563569948
786.885149473
786.751280816
786.483564718
786.081844282
785.545302039
786.868801241
786.734720097
786.466627132
786.064494602
785.527665762
786.852955931
786.718660728
786.450176159
786.047599511
785.510505968
786.838729103
786.704240131
786.43538137
786.032340843
785.494929027
786.826895628
786.692241889
786.4230505
786.019572015
785.481837443
786.817869091
786.683111202
786.413710222
786.009983562
785.472146634
786.81118967
786.676359722
786.406806434
786.002945019
785.465314545
786.806016724
786.671102868
786.40134551
785.997162635
785.459547245
786.802143796
786.667148319
786.397179738
785.992548002
785.454738736
786.799691673
786.664670417
786.394613847
785.989665578
785.451434197
786.798087152
786.66307272
786.39301221
785.987854105
785.448496117
786.796613358
786.661567517
786.391455624
785.986150217
785.445735946
786.795583074
786.660493139
786.390316657
785.984942302
785.444054113
786.795814785
786.660734297
786.39060123
785.98534518
785.444668153
786.797503363
786.66246272
786.392437471
785.987396364
785.447134026
786.800732806
786.665683253
786.395665004
785.990698059
785.450658079
786.806915912
786.671841936
786.40181023
785.996913279
785.457048106
786.818286518
786.683252076
786.41337954
786.008884038
785.469555001
786.837425691
786.702520225
786.433010747
786.02930393
785.491045519
786.86772514
786.732955875
786.463792278
786.060822565
785.523650432
786.913149358
786.77854832
786.509780862
786.107635265
785.571775678
786.978545177
786.844202785
786.576028018
786.175098361
785.641278903
787.068501352
786.934511004
786.667197083
786.268216345
785.738191379
787.184432511
787.050817928
786.784471839
786.387883987
785.863332886
787.327508526
787.194355408
786.929205409
786.535845336
786.018373684
787.496529076
787.363995119
787.100383879
786.711751832
786.205896934
787.685915292
787.55410976
787.292251889
786.910624648
786.439313462
787.88592296
787.754785307
787.494170098
787.115987047
786.672534205
788.091927195
787.961470436
787.701984225
787.325332731
786.887605935
788.301405903
788.171754598
787.913589853
787.538408908
787.103006655
788.510612318
788.381983708
788.125513573
787.752128797
787.318437675
788.710203038
788.582689319
788.328086694
787.95665653
787.524371136
788.892884899
788.766542952
788.513936363
788.144586774
787.713480715
789.051890547
788.92674914
788.676233006
788.308992157
787.878255606
789.179597254
789.055656489
788.80732063
788.442257581
788.010889413
789.266718016
789.143700959
788.897102356
788.533626982
788.101854363
789.307665335
789.185250276
788.939869258
788.576860121
788.141552919
789.299734423
789.177564644
788.932944318
788.569412618
788.124583979
789.244491188
789.122263364
788.878380102
788.514931363
788.049527639
789.147408616
789.024755806
788.781308205
788.420707245
787.939708428
789.012735923
788.889257288
788.645689301
788.290000382
787.815368475
788.850949921
788.726205958
788.481616434
788.130818258
787.675412908
788.684160718
788.557866517
788.311417996
787.96505028
787.542562396
788.543761364
788.416147239
788.167598914
787.821961665
787.431025457
788.448625931
788.319987846
788.069509277
787.722098118
787.342423567
788.407485361
788.278020689
788.025569068
787.674957436
787.293826892
788.422022489
788.291944008
788.03726519
787.681575972
787.294855057
788.487789821
788.357714902
788.101681514
787.740956939
787.346685079
788.594383199
788.464961844
788.208459034
787.842280943
787.436898977
788.724301208
788.596154814
788.340177345
787.96813094
787.546050591
788.858302736
788.731874817
788.477380098
788.098964937
787.648520333
788.979296973
788.85471429
788.602786819
788.221717159
787.741049863
789.077990849
788.955227987
788.706399622
788.326010593
787.817433497
789.148214433
789.027092687
788.781495683
788.404981831
787.887553791
789.190269117
789.070305696
788.827502213
788.456759893
787.946335128
789.212070883
789.092685878
788.851643929
788.4864305
787.989290402
789.226454054
789.107775712
788.868583115
788.509298565
788.034682437
789.248746428
789.130974097
788.893728636
788.539455456
788.093158065
789.291844708
789.175319417
788.940451426
788.589389509
788.153106165
789.358360241
789.24279276
789.009865846
788.660976673
788.226071791
789.442606958
789.327540371
789.095823059
788.748169543
788.31294787
789.540519843
789.425467371
789.194062653
788.846283703
788.408243035
789.652941169
789.537708845
789.30615588
788.957134171
788.512425564
789.77614866
789.66139366
789.4307908
789.081706819
788.629410605
789.898456703
789.785061759
789.55706624
789.209914418
788.745656654
790.007503812
789.895941126
789.671634713
789.329191411
788.85128984
790.094329714
789.984534167
789.764245832
789.430373172
788.960135066
790.158989726
790.050757306
789.834027134
789.509156303
789.058897583
790.207285555
790.100564157
789.887052876
789.570899382
789.15002461
790.243606264
790.138453982
789.927787967
789.617828334
789.232397825
790.269361859
790.166045285
789.958051067
789.650056656
789.276709086
790.280472279
790.179349116
789.974847422
789.668827249
789.294604166
790.272940821
790.174401206
789.974611278
789.672298356
789.296542041
790.247497005
790.151629263
789.957270462
789.659984669
789.281855121
790.208849987
790.115557564
789.927172049
789.636234907
789.252956783
790.160274863
790.068167765
789.883724444
789.598506591
789.209350085
790.10307676
790.010307625
789.826859802
789.54554092
789.146585287
790.038454897
789.942970399
789.75696542
789.477615043
789.065365706
789.97198923
789.871649716
789.679176515
789.401128833
788.995981835
789.915091125
789.809912428
789.60982062
789.331264625
788.949622116
789.866633094
789.757681269
789.550916277
789.271285009
788.927311111
789.824194584
789.712614146
789.500479758
789.216547616
788.904754399
789.788866875
789.675141879
789.458209947
789.167236711
788.854386589
789.768530176
789.654142699
789.435109757
789.140365139
788.822531425
789.766871173
789.652693707
789.433009229
789.136199927
788.817231947
789.781438718
789.667621166
789.447404794
789.148270629
788.828431852
789.805892475
789.692310783
789.470976724
789.1679236
788.844978557
789.831626448
789.718328881
789.495933924
789.188506067
788.860830398
789.860244174
789.747501886
789.524332719
789.211565682
788.876144231
789.902141265
789.791536113
789.570736203
789.254873389
788.908886347
789.954046543
789.84573163
789.627767739
789.307359659
788.941725617
789.994991905
789.888090355
789.672381938
789.349552121
788.966136299
790.017468656
789.911195836
789.697034441
789.373129452
788.972714807
790.027990973
789.921925647
789.708946858
789.384603207
788.960920028
790.03695277
789.930573705
789.718383319
789.39564703
788.94242697
790.055307662
789.947918384
789.735214193
789.415922801
788.96101655
790.085359917
789.97662853
789.762486174
789.4465401
789.003745136
790.120444159
790.010177638
789.793649889
789.479720015
789.052630165
790.155285371
790.043287159
789.823097697
789.508766931
789.105933014
790.18987997
790.076179049
789.851661788
789.53231722
789.150441589
790.219505979
790.103344963
789.87267075
789.542700221
789.161745146
790.238037287
790.1184551
789.879648927
789.534244831
789.135876978
790.244405657
790.122155465
789.876373615
789.514047923
789.086818773
790.229492197
790.106322216
789.857608416
789.484222159
789.024480258
790.174389787
790.050767222
789.800759753
789.420488535
788.92242452
790.06722533
789.942824185
789.691615791
789.308607079
788.787725718
789.90687053
789.781041328
789.527820272
789.143744342
788.620014227
789.710373005
789.582819795
789.327068941
788.942006851
788.420772224
789.518119495
789.388666385
789.129794094
788.742875979
788.22642701
789.396770966
789.265938665
789.00433815
788.614512856
788.103240609
)
;

boundaryField
{
    emptyPatch
    {
        type            empty;
    }
    minY
    {
        type            zeroGradient;
    }
    maxY
    {
        type            zeroGradient;
    }
    minX
    {
        type            zeroGradient;
    }
    heater_to_water
    {
        type            compressible::turbulentTemperatureTwoPhaseRadCoupledMixed;
        refValue        nonuniform List<scalar> 
240
(
304.681103146
325.101713691
325.104327017
326.572838003
326.574277961
326.329032182
326.329841655
325.008464136
323.094174917
321.597789791
321.597940544
320.923681304
320.92379247
320.150225857
320.150332195
319.071180493
318.29268931
318.936345415
318.936530618
322.301670205
322.301886067
324.259669944
324.259891874
324.423009684
324.699212025
324.587577105
324.587783726
324.765935073
324.766119432
324.553032761
324.553185806
324.588050778
324.422786443
324.35815576
324.358272294
323.831947385
323.832054169
321.971212991
321.971304509
320.374221427
320.263222887
321.349642176
321.34972674
323.726733045
323.726810448
326.442480871
326.442538637
329.022484455
331.808661449
333.030376989
333.030402154
333.351074499
333.351066615
333.676861705
333.676782315
333.470913425
334.151326947
333.664289196
333.66397706
334.376954399
334.376453999
333.989337556
333.988590071
334.693498882
333.959389054
327.618058162
327.616885294
319.163620293
319.162560925
314.987849709
314.98681861
317.314997764
333.333057049
440.541531057
440.537248109
501.045198901
501.042079085
513.855074779
513.851637912
522.179638285
521.585927399
525.765227873
525.762007989
523.981169737
523.97805436
526.222391105
526.219801104
521.930036964
515.667975456
506.276349608
506.274957553
515.56370497
515.563136228
516.03629877
516.036633111
521.571128553
519.542677774
466.360202963
466.362627274
352.162089054
352.164264355
327.062317544
327.063787187
321.336592922
326.072804416
363.939149107
363.941395849
501.330048322
501.331721696
538.926248947
538.927022626
544.643852046
548.29592801
549.094220633
549.093442918
551.146293731
551.14492931
550.214642237
550.212940678
549.260056451
543.712503292
524.58200667
524.58048582
480.070162649
480.068539168
381.429675096
381.42819233
340.726703533
329.942989926
328.562589625
328.562219487
334.562936319
334.5624673
360.962172593
360.96120709
441.031405484
474.794129595
478.223092883
478.221329037
480.362603431
480.360492297
479.708088385
479.705743906
479.283690731
474.904136521
467.858378508
467.855661888
465.035915801
465.033241379
454.12752761
454.125133847
374.035343507
336.249339032
326.51115054
326.510267371
326.772840778
326.772030149
341.045017409
341.043979911
425.546598648
500.935609399
513.520269075
513.519961419
515.749042373
515.749065932
517.705716563
517.706093509
516.706377567
515.650817339
506.572539262
506.573500766
494.756193816
494.757529516
481.117605502
481.119338644
398.880284534
344.011940782
330.885089088
330.885663512
331.377496068
331.377806733
359.511353364
359.511886206
522.382760495
563.530752082
552.312376992
552.31266045
545.042791755
545.042846569
545.098177682
545.098105561
552.656975021
555.371926529
560.747874638
560.747765389
562.980646911
562.980532527
567.536333231
567.536074103
569.602490224
573.684456281
575.520876146
575.520670158
580.154265379
580.154227135
582.693474519
582.693609665
549.984321676
443.836114138
360.779176824
360.778884064
332.870770251
332.870341588
322.752146886
322.751802569
321.025825048
327.379615062
359.688154619
359.687442305
454.591643544
454.591488512
497.704690748
497.705377563
505.147058855
507.494144933
504.758673933
504.760314507
495.493181239
495.495668869
408.964123093
408.967479697
349.212999496
332.946399455
328.685136746
328.687202182
329.456803478
329.458849503
337.439647552
337.441252603
355.591848835
)
;
        refGradient     uniform 0;
        valueFraction   nonuniform List<scalar> 
240
(
0.000600067392856
0.000731003906158
0.000730927668908
0.000732745487876
0.000732705651591
0.000732738601008
0.000732715966018
0.000729288628454
0.000722931942132
0.000717558304739
0.000717553248389
0.00071555589242
0.000715552049912
0.000712298635825
0.000712294832001
0.000706970458178
0.000703023446649
0.000706890985784
0.000706883967253
0.000723193373785
0.000723186277431
0.00073059546703
0.000730588693603
0.000730031821402
0.000731108180439
0.000730127207612
0.000730120981098
0.000731104022725
0.000731098498683
0.00073002960548
0.000730024984995
0.000730627297546
0.000729996352494
0.000730059207576
0.000730055657508
0.000728881110492
0.000728877788207
0.000721627098673
0.000721624034302
0.000714352949414
0.00071474951868
0.000720152627608
0.0007201497094
0.00072979404925
0.000729791617409
0.000737420671432
0.000737419028795
0.000741918954129
0.000744886196911
0.000745347486683
0.000745346909736
0.000745411850207
0.000745412029214
0.000745538300426
0.000745540085372
0.000745438993518
0.000745618885841
0.000745438953617
0.000745445970638
0.000745609889294
0.00074562090272
0.000745441834544
0.000745458470787
0.000745595734898
0.000745463269895
0.000739269795203
0.000739301769126
0.000707250739547
0.000707290927294
0.000684441476395
0.000684490369723
0.000700218348081
0.000745059376882
0.000630354859354
0.00063037416291
0.00060252348259
0.000602532864227
0.000603450090864
0.000603459819754
0.000601178992328
0.000603300563006
0.000601258204954
0.000601266804958
0.000603011228957
0.000603019640329
0.000601409664294
0.000601416568812
0.000603351364049
0.000601600602675
0.000603716568673
0.000603720654365
0.000601740514226
0.000601742105977
0.000604207095082
0.00060420615766
0.000602497963229
0.000604470102987
0.000628517127233
0.000628507938388
0.000743067155545
0.000743035799175
0.000725950567721
0.00072591016152
0.000713021481529
0.00073126805661
0.00073139556169
0.000731369491469
0.000609194856237
0.000609189769639
0.00059855426417
0.000598552318447
0.000598978692648
0.000598253235985
0.000598820893586
0.00059882276973
0.000598245452004
0.000598248712908
0.00059890943436
0.000598913520075
0.00059868638616
0.000599034709931
0.000603295317771
0.00060329941591
0.000623798352673
0.000623803998623
0.000712514927785
0.000712528021312
0.000746197006888
0.000739166952209
0.000739613825753
0.000739623695968
0.000745732264746
0.000745742645898
0.000732289783732
0.000732301555866
0.000654539353434
0.000634312760852
0.000634751807837
0.000634758120485
0.000633623994613
0.000633631446039
0.000634519762479
0.000634528078325
0.000634476994655
0.000634665414628
0.000634670359534
0.000634680676391
0.000635245109291
0.000635255448786
0.00063865709042
0.000638667055824
0.000718898776224
0.000744748058589
0.000731346304182
0.000731371445139
0.000736066288917
0.000736089325995
0.000746183923509
0.00074620322826
0.000662456867552
0.000614058305238
0.000612964787133
0.000612965674427
0.000613852096316
0.000613852028982
0.000613078069212
0.000613077003087
0.000613934991263
0.000613581526903
0.000614026600643
0.000614023730592
0.000616017216598
0.000616012973037
0.000621100087567
0.000621094115743
0.000691372812388
0.000746480470246
0.000740102125275
0.000740087900592
0.000743570134737
0.00074356251891
0.000733796600927
0.000733789908121
0.000596285213531
0.000588685491471
0.000589030291674
0.000589029627152
0.000588318707407
0.000588318575247
0.000589057119839
0.000589057293878
0.000588340920559
0.000589104661422
0.000588510653145
0.000588510900555
0.00058915616095
0.000589156418035
0.000588714565275
0.000588715137234
0.000589209064524
0.000588905328148
0.000589239351837
0.000589239793534
0.000589030404188
0.000589030484797
0.000589273118888
0.000589272836511
0.00060026356376
0.000662645581262
0.000735760946519
0.000735764533573
0.000741768286342
0.000741778191036
0.000716654315487
0.000716665565101
0.000713279786535
0.000733347663916
0.000736777916912
0.000736786889565
0.000646098698208
0.000646099351532
0.000622610905303
0.000622608728061
0.000621276100044
0.000621173824357
0.000624733031815
0.00062472799548
0.000624624505321
0.000624616506587
0.000684956917014
0.000684935568576
0.00074457730441
0.000742571463759
0.000738169769643
0.000738114002228
0.000741294146238
0.000741240133254
0.000746849018472
0.000746815750868
0.000735816875077
)
;
        source          uniform 0;
        kappaMethod     solidThermo;
        Tnbr            T.liquid;
        region          solid;
        otherPhase      gas;
        value           nonuniform List<scalar> 
240
(
785.840449752
785.792338144
785.521042847
785.521281326
785.382451019
785.38225619
785.306357177
785.306967733
785.279907163
785.281318835
785.270974706
785.271419021
785.265622549
785.266583317
785.26114216
785.26285742
785.253173011
785.251820747
785.235059226
785.229882441
785.211704857
785.209702936
785.192090014
785.192465963
785.175023673
785.17539421
785.159824026
785.159501181
785.146417509
785.146754407
785.137073373
785.136821228
785.130165224
785.130089061
785.124327743
785.124485702
785.119652849
785.121657108
785.118298829
785.120527961
785.117319969
785.115588902
785.112872187
785.110131
785.108499086
785.106979201
785.10761122
785.107459849
785.11063248
785.111333823
785.114843382
785.115053034
785.121433243
785.121619047
785.134120075
785.134012285
785.155915751
785.155633904
785.188220395
785.18867793
785.236769836
785.236562059
785.306019122
785.306482703
785.402892017
785.401002152
785.526052809
785.53476155
785.689541672
785.697351757
785.884870219
785.879089105
786.103346895
786.222899799
786.453892886
786.499990438
786.714310126
786.721779945
786.936917142
786.942546997
787.156937036
787.159992593
787.36578159
787.364251102
787.553258744
787.555033115
787.719752975
787.716658486
787.846019294
787.839773148
787.930736762
787.936884232
787.976453099
787.976067087
787.958950286
787.962749585
787.885944402
787.846061546
787.737817705
787.616119392
787.493606622
787.482827083
787.343235695
787.345088786
787.207604111
787.235240548
787.12253522
787.257971523
787.167520789
787.193065015
787.144208795
787.147527157
787.150792307
787.151134673
787.202845168
787.204210824
787.294258165
787.293544885
787.40248756
787.401970987
787.500806461
787.488225813
787.580872691
787.547712742
787.625383878
787.527801531
787.599323995
787.555267545
787.609543586
787.608317952
787.651371265
787.65303974
787.698283227
787.723715985
787.780807933
787.866431785
787.953918876
787.955957837
788.028840724
788.030549071
788.117354934
788.116667412
788.211879695
788.211627681
788.312914667
788.308441383
788.425368859
788.423396574
788.539572175
788.531506012
788.638391595
788.553959416
788.625114285
788.624059445
788.72297977
788.721001437
788.812308294
788.818291021
788.899374056
788.992887664
789.099433028
789.107462288
789.125187711
789.126311584
789.128201092
789.129612386
789.114910989
789.11406422
789.084617339
789.078921262
789.035443826
789.027600732
788.964995913
788.955026565
788.875093285
788.796593323
788.66652284
788.659645908
788.613693506
788.612464121
788.590281403
788.615394126
788.590400153
788.746561283
788.721263419
788.714577764
788.682830172
788.678721312
788.673472346
788.673324902
788.684440126
788.689061919
788.706926833
788.71022932
788.725957821
788.727126145
788.742290255
788.745072133
788.777653865
788.778762074
788.813793213
788.814803403
788.83898037
788.841754391
788.848099697
788.849545341
788.837861033
788.815959828
788.714124255
788.627781602
788.647978137
788.624706072
788.66777387
788.671982521
788.720951558
788.721299253
788.770095987
788.792316358
788.835816291
788.936081158
788.945703148
788.980404437
788.953990924
788.95900263
788.911114306
788.908403123
788.845875644
788.840116584
788.738757474
788.661781625
788.528705475
788.461560439
788.283260396
788.282120603
788.083079753
788.08218823
787.887988745
787.891376012
787.767985052
787.786297356
)
;
    }
}


// ************************************************************************* //
