/*--------------------------------*- C++ -*----------------------------------*\
| =========                 |                                                 |
| \\      /  F ield         | OpenFOAM: The Open Source CFD Toolbox           |
|  \\    /   O peration     | Version:  2312                                  |
|   \\  /    A nd           | Website:  www.openfoam.com                      |
|    \\/     M anipulation  |                                                 |
\*---------------------------------------------------------------------------*/
FoamFile
{
    version     2.0;
    format      ascii;
    arch        "LSB;label=32;scalar=64";
    class       volScalarField;
    location    "0.06/water";
    object      alpha.gas_0;
}
// * * * * * * * * * * * * * * * * * * * * * * * * * * * * * * * * * * * * * //

dimensions      [0 0 0 0 0 0 0];

internalField   nonuniform List<scalar> 
1503
(
0.243690820197
0.147172942255
0.040254618818
0.00986895365712
0.00178635125973
0.000270661164072
4.23851580245e-05
6.99722679315e-06
5.18090082347e-07
1.0699685099e-08
8.44237444349e-11
3.91865473506e-13
2.00020473991e-15
1e-15
1e-15
1e-15
1e-15
1e-15
1e-15
1e-15
0.587687565823
0.277760715087
0.121362971165
0.0421603007832
0.0135561794685
0.00413510828517
0.00130932495602
0.000365256093679
5.95929393253e-05
2.77115523293e-06
1.64179298229e-08
3.80915592451e-11
9.00836404477e-14
1.01204845788e-15
1e-15
1e-15
1e-15
1e-15
1e-15
1e-15
0.587667652757
0.323481105337
0.165399846134
0.0733551462855
0.0304864940668
0.0123056448988
0.00473045986513
0.00146022072411
0.000261306357191
1.72544234274e-05
2.10002233886e-07
9.71028169571e-10
3.22274909942e-12
7.24485003854e-15
1e-15
1e-15
1e-15
1e-15
1e-15
1e-15
0.587687565823
0.387145475763
0.227561533682
0.121732473336
0.0604258996393
0.0277458891067
0.0112542232544
0.00348459500183
0.000653540291746
6.02547758316e-05
2.41685137227e-06
2.92198991966e-08
9.97582835712e-11
1.42667386169e-13
1.05882961251e-15
1e-15
1e-15
1e-15
1e-15
1e-15
0.574195277025
0.436214341476
0.305351088926
0.196828198901
0.114528975955
0.0570712707632
0.0231455359981
0.00701547704785
0.00140503164882
0.000188126742911
2.0105546026e-05
8.18975071675e-07
2.87798229846e-09
2.14176608277e-12
1.93008081574e-15
1.01741542137e-15
1e-15
1e-15
1e-15
1e-15
0.540082721353
0.456300752257
0.374548501354
0.286110347803
0.193584942107
0.106936913764
0.0452152778844
0.0141149463775
0.0031887878958
0.000600994433629
0.00010956899749
1.02170993134e-05
6.23995695023e-08
2.11459822356e-11
7.05940983414e-15
1.63529855713e-15
1.12208153571e-15
1.00978852039e-15
1e-15
1e-15
0.509313162683
0.46139292684
0.424085911752
0.366540621241
0.27797112096
0.171970041354
0.0811370588964
0.0286966056116
0.00785507471297
0.00193138046047
0.000456312792773
6.17798031641e-05
1.16823628284e-06
1.45258839521e-10
6.11983046655e-14
1.34784981639e-14
3.84555407696e-15
1.40305786941e-15
1.03142989404e-15
1.00089557281e-15
0.503648737054
0.469477498429
0.457977326717
0.425189914952
0.346343079516
0.235531732791
0.127745276689
0.0548230903135
0.0193263905455
0.006071260882
0.00163995183047
0.000251645607469
8.46217470609e-06
6.07795690646e-10
9.30245197517e-13
1.97135921312e-13
5.03798249824e-14
9.45313369914e-15
1.91414833879e-15
1.05482866905e-15
0.502791912898
0.479901992605
0.487309278543
0.467634449329
0.3962881892
0.287424586144
0.176605315837
0.0928006187948
0.0430315050805
0.0176417179316
0.00548197837147
0.000872282904054
3.66460236257e-05
2.90541764975e-08
1.47612151429e-11
2.63364185324e-12
7.1516269034e-13
1.42212503464e-13
1.95857754651e-14
2.47087188969e-15
0.504802783852
0.49191382245
0.508926353663
0.493094640152
0.4266292698
0.323128818874
0.21784293937
0.135924733669
0.0813091006993
0.0436874799235
0.0163967262204
0.00278217261823
0.000126793535533
5.10294714034e-07
2.17527619073e-10
3.08736760977e-11
8.78876179675e-12
1.96135233656e-12
3.04897033189e-13
3.06457804554e-14
0.512248856505
0.50255657556
0.51578152028
0.498332371519
0.433783003386
0.338626882593
0.244788148655
0.175941675154
0.130089883245
0.087391901289
0.0392400175256
0.00735919032939
0.000364401204928
3.58328889621e-06
2.81522227924e-09
3.21344851729e-10
9.30272173356e-11
2.2875309955e-11
4.09270073354e-12
4.80482183948e-13
0.527924538318
0.513870790587
0.51584459131
0.494289996786
0.428984219745
0.339703883436
0.26117834148
0.212656558264
0.182763777935
0.13978320424
0.0694490962645
0.0142833108692
0.000840939811289
1.64507552771e-05
4.59380076344e-08
2.98069546053e-09
8.56022247565e-10
2.27099065582e-10
4.59854181891e-11
6.34669206092e-12
0.552214831392
0.524938663013
0.509700359427
0.476675758103
0.412778777152
0.335796475018
0.277361946562
0.252469243796
0.23452408038
0.18457635534
0.0935796496315
0.0214988636172
0.00178641810408
6.82045811347e-05
8.09169706154e-07
2.49045622166e-08
6.9123679741e-09
1.94655770454e-09
4.39162462842e-10
7.00752614546e-11
0.570679976622
0.530558520062
0.50089289945
0.457910186255
0.397669836254
0.33709976427
0.305694527142
0.302005873069
0.284328011057
0.216271728345
0.111411531354
0.0313972849821
0.0044692889338
0.000316726777788
7.1728172014e-06
2.03425299471e-07
4.96972622458e-08
1.46518186851e-08
3.63885522961e-09
6.61597376211e-10
0.584496120933
0.533934134289
0.501226617126
0.457415355714
0.401345577424
0.359584162555
0.357361124525
0.360586809516
0.329235576412
0.242767174883
0.135588475953
0.0537205215457
0.0140927552446
0.00166085540159
4.87227882699e-05
1.67967686546e-06
3.32257391266e-07
9.88774795685e-08
2.66454807616e-08
5.45789392572e-09
0.587364775991
0.536955827263
0.507310564035
0.469730363064
0.429458279045
0.41315178757
0.418460467118
0.411172756128
0.360873068677
0.269420150144
0.17598048043
0.104307227309
0.0460132782739
0.00826144714385
0.000303174761383
1.09892559756e-05
2.1922869537e-06
6.1438770337e-07
1.74602126222e-07
3.97659883362e-08
0.585323813844
0.540584179848
0.521919754157
0.500356769114
0.478449361748
0.466560814417
0.456615639018
0.427987066101
0.366718174342
0.287323617944
0.225934677447
0.186434467199
0.119260729197
0.0311272361859
0.00160536655571
5.46077997078e-05
1.25635003179e-05
3.54554610271e-06
1.02699935655e-06
2.55140614709e-07
0.588815753747
0.541248181999
0.535689153876
0.523891924268
0.506031668264
0.48526985599
0.462460150862
0.426612171685
0.362883971435
0.290566838307
0.268897110288
0.269321147843
0.21281221486
0.0746592869667
0.00582360119308
0.000221088034509
5.3504886957e-05
1.72466176045e-05
5.26674068079e-06
1.41535687314e-06
0.585323813844
0.539071422333
0.538876199282
0.529679771224
0.509170244917
0.484876048839
0.459080639536
0.417368235052
0.349339423031
0.287189793277
0.294699149335
0.32331086372
0.270482417549
0.111585108932
0.0121988228173
0.000665509028125
0.000177413752907
6.49893050647e-05
2.20717955776e-05
6.5693735882e-06
0.588337479282
0.53367978823
0.538680110076
0.529834221256
0.507274885191
0.478253723654
0.44508240295
0.393948428083
0.322656540605
0.28342730651
0.304257087297
0.350091346459
0.290133629317
0.12073465732
0.0161325739205
0.00147204519388
0.000475377168768
0.000194407129671
7.40240501321e-05
2.49619432716e-05
0.585323813844
0.527698076992
0.537809254719
0.527622308924
0.499293247924
0.460409427744
0.416201307429
0.357441974257
0.290966895626
0.283350537144
0.307747491471
0.364726416577
0.295253720897
0.119205005181
0.0174433693649
0.00267858827036
0.00106452061923
0.000481353034145
0.000205051800683
7.8592624839e-05
0.587158900721
0.523789307313
0.532778685996
0.520207345177
0.484647999526
0.434419541439
0.378776210524
0.318387428841
0.283350537144
0.283384896893
0.310029662763
0.378611253256
0.297810516062
0.112895518852
0.0181038652819
0.00446917195243
0.00208698895867
0.00103370088775
0.000490120399317
0.00021248618726
0.585323813844
0.523285221106
0.523556396976
0.507403914385
0.468099730189
0.413361806809
0.352048522058
0.291437063046
0.283384896893
0.283284354918
0.323620815088
0.402080284962
0.302459119654
0.107306845633
0.0204090990427
0.00729634871441
0.00377297342739
0.00202356178879
0.00105490039773
0.000511476969054
0.585611327031
0.523611733545
0.519454087445
0.498631994608
0.460441303743
0.408707219603
0.347725904613
0.286513068279
0.283285780728
0.283342892149
0.390061448522
0.444880019004
0.316433894914
0.111664293668
0.027784518034
0.0121102064435
0.00660153464789
0.00376241579571
0.00211310955544
0.00112659746133
0.583664450602
0.52492765793
0.519963466506
0.499207923524
0.461998466425
0.411297100022
0.351203548355
0.292337103833
0.283377650738
0.347007822794
0.517625007424
0.51048815253
0.356978382494
0.142440143712
0.0448095012236
0.020761448675
0.0115113784039
0.00677626275167
0.00399763338601
0.00229764481963
0.578903704755
0.524170894125
0.520959594809
0.503866931124
0.470842443371
0.423178663677
0.367654048603
0.323979651609
0.343583625847
0.481554597241
0.567799675681
0.568430123183
0.430470374153
0.207509725546
0.0741816321889
0.0353123790062
0.0197305920047
0.0117163426225
0.00709543521105
0.00430927912468
0.578759491438
0.524135253438
0.523454039359
0.514784868035
0.491297905109
0.448762536316
0.401490232943
0.384057209419
0.435300189735
0.557393614803
0.569901123305
0.567799675681
0.489320296094
0.277194242503
0.109782490288
0.0540640222679
0.031273589492
0.0188042888634
0.0115614073467
0.00729646232935
0.57875400573
0.525087347961
0.527708385291
0.529504286772
0.516622543186
0.479876279218
0.437044259343
0.428196325098
0.477999731353
0.567344895131
0.567799675681
0.56929075127
0.518445242916
0.324385446359
0.139647515169
0.070468641082
0.0431968013425
0.0269707687417
0.0169276270424
0.0109917538749
0.578725381245
0.526585394211
0.535698001822
0.545092129816
0.536848341242
0.503290232057
0.458442010784
0.442589503194
0.486396429923
0.56705360785
0.569990178084
0.567799675681
0.531344160835
0.351212023762
0.159852834494
0.081007453252
0.0520267308103
0.0342167008498
0.022167819
0.0147631043275
0.577786899665
0.526509352421
0.542436042281
0.557784030168
0.551109577127
0.517693098391
0.469159405512
0.447823505284
0.489545059819
0.567825791411
0.567799675681
0.569346544921
0.537493283295
0.367004608035
0.173373749755
0.087345336425
0.0573629802396
0.0394837801877
0.0264713769107
0.0180372507328
0.573179293309
0.525167770863
0.546253228208
0.568107975493
0.56260442257
0.527932597223
0.476149034748
0.452500164971
0.493963539637
0.567774965209
0.570020056097
0.567799675681
0.540759190023
0.37740454436
0.183473163549
0.0917008028393
0.0606489957543
0.0431078920962
0.0297707775411
0.0206464016977
0.568285058722
0.52509248037
0.550103672009
0.578614783766
0.572995177845
0.535143641891
0.481095468918
0.458623530609
0.501262322633
0.568640844694
0.567799675681
0.569379393918
0.54291582664
0.386040304642
0.19263729946
0.0953995308043
0.0629911057247
0.0458095454244
0.0324364464729
0.0227649967803
0.569525751278
0.529937637138
0.560292749938
0.591397068077
0.581947963577
0.537635172964
0.482772635932
0.465702106537
0.510804426125
0.567799675681
0.570111478989
0.567799675681
0.545541276788
0.395842682737
0.203211513011
0.0994395143033
0.0649619543531
0.0480778450985
0.0348367298901
0.0246747365828
0.570781748627
0.548718387804
0.584848731378
0.60930926018
0.5911398505
0.538215740655
0.482494902584
0.470686537253
0.518856034459
0.568969142508
0.567799675681
0.569425966979
0.549702892261
0.409452853957
0.217582629705
0.104948310766
0.0669267685375
0.05014248938
0.0371941838313
0.0266097341505
0.57458467732
0.577899728576
0.619388249511
0.629860270204
0.601506473548
0.539079013816
0.480474267619
0.471145754323
0.521743913307
0.567799675681
0.570153739652
0.567799675681
0.555551808665
0.42705461538
0.236747868758
0.113035807635
0.0692194267143
0.0520755568182
0.0395539326524
0.0286763649655
0.585417862231
0.605120257011
0.642433893685
0.644921104785
0.611730921389
0.540672512151
0.476044340798
0.468340980724
0.519375683454
0.568866076211
0.567799675681
0.569423455234
0.560417438731
0.443142253082
0.257013685504
0.123485121969
0.0720410759457
0.0537946156903
0.0417320607049
0.0307733834543
0.604881826725
0.624216132472
0.649070105516
0.649311866034
0.61697104654
0.540727117429
0.468037432429
0.457779308529
0.508931152987
0.567799675681
0.570042069442
0.567799675681
0.561761115777
0.449337952288
0.269335889402
0.132796970631
0.0748989350595
0.0549769112487
0.0432808751296
0.0324872231549
0.626502562176
0.636861573173
0.650241717229
0.649997757564
0.615359221158
0.534205347556
0.452638464655
0.43575039017
0.485688353127
0.568390295834
0.567799675681
0.569252083623
0.56018884212
0.44677508238
0.269736452299
0.136223265619
0.0762647355824
0.0552838125827
0.0437546058618
0.0332218287176
1e-15
1e-15
1e-15
1e-15
1e-15
1e-15
1e-15
1e-15
1e-15
1e-15
1e-15
1e-15
1e-15
1e-15
1e-15
1e-15
1e-15
1e-15
1e-15
1e-15
1e-15
1e-15
1e-15
1e-15
1e-15
1e-15
1e-15
1e-15
1e-15
1e-15
1e-15
1e-15
1e-15
1e-15
1e-15
1e-15
1e-15
1e-15
1e-15
1e-15
1e-15
1e-15
1e-15
1e-15
1e-15
1e-15
1e-15
1e-15
1e-15
1e-15
1e-15
1e-15
1e-15
1e-15
1e-15
1e-15
1e-15
1e-15
1e-15
1e-15
1e-15
1e-15
1e-15
1e-15
1e-15
1e-15
1e-15
1e-15
1e-15
1e-15
1e-15
1e-15
1e-15
1e-15
1e-15
1e-15
1e-15
1e-15
1e-15
1e-15
1e-15
1e-15
1e-15
1e-15
1e-15
1e-15
1e-15
1e-15
1e-15
1e-15
1e-15
1e-15
1e-15
1e-15
1e-15
1.00003339628e-15
1.00040248672e-15
1e-15
1e-15
1e-15
1e-15
1e-15
1e-15
1e-15
1e-15
1e-15
1e-15
1e-15
1e-15
1e-15
1e-15
1e-15
1e-15
1e-15
1e-15
1e-15
1.00512190508e-15
1e-15
1e-15
1.02699719821e-15
1e-15
1e-15
1e-15
1e-15
1e-15
1e-15
1e-15
1e-15
1e-15
1e-15
1e-15
1e-15
1e-15
1e-15
1.00000675627e-15
1.00406646333e-15
1.00964783909e-15
1e-15
1e-15
1.06210337288e-15
1.00054508542e-15
1e-15
1e-15
1e-15
1e-15
1e-15
1e-15
1e-15
1e-15
1e-15
1e-15
1e-15
1e-15
1e-15
1.00082691569e-15
1.01023046484e-15
1.01349420341e-15
1e-15
1e-15
1.12171134393e-15
1.05314233738e-15
1e-15
1e-15
1e-15
1e-15
1e-15
1e-15
1e-15
1e-15
1e-15
1e-15
1e-15
1e-15
1e-15
1.00188697445e-15
1.0169160611e-15
1.01826526276e-15
1e-15
1e-15
1.12681030857e-15
2.50959062483e-15
1.03159826982e-15
1e-15
1e-15
1e-15
1e-15
1e-15
1e-15
1e-15
1e-15
1e-15
1e-15
1e-15
1e-15
1.00251389248e-15
1.02380277386e-15
1.02576850441e-15
1e-15
1e-15
1.12689984933e-15
3.2583173888e-14
2.10188288919e-15
1.02895512323e-15
1e-15
1e-15
1e-15
1e-15
1e-15
1e-15
1e-15
1e-15
1e-15
1e-15
1e-15
1.00261215904e-15
1.03207948101e-15
1.03713298556e-15
1e-15
1e-15
1.12698313364e-15
5.23977884453e-13
2.65420419126e-14
2.11151350639e-15
1.04596203455e-15
1e-15
1e-15
1e-15
1e-15
1e-15
1e-15
1e-15
1e-15
1e-15
1e-15
1.00255077736e-15
1.0381467349e-15
1.04998519052e-15
1e-15
1e-15
1.12706271369e-15
7.03379151455e-12
4.54256768646e-13
2.78596782054e-14
2.64454026324e-15
1.07030377643e-15
1e-15
1e-15
1e-15
1e-15
1e-15
1e-15
1e-15
1e-15
1e-15
1.00284943035e-15
1.03797434363e-15
1.05824448722e-15
1e-15
1e-15
1.13881848628e-15
7.88887237448e-11
6.42522281235e-12
4.91409970724e-13
3.95712931804e-14
3.38993289273e-15
1.06859304263e-15
1e-15
1e-15
1e-15
1e-15
1e-15
1.00047265484e-15
1.00068996916e-15
1.00009480445e-15
1.00480087653e-15
1.03699190696e-15
1.0625596529e-15
1.00562873454e-15
1e-15
1.24798147342e-15
7.58102187722e-10
7.52395190094e-11
7.10784732364e-12
6.90546184403e-13
5.59424079075e-14
3.35428997722e-15
1.02525502966e-15
1.00578158221e-15
1.00416669432e-15
1.00514579513e-15
1.00725446689e-15
1.00995868581e-15
1.01083299788e-15
1.00968630814e-15
1.01271429014e-15
1.03910928589e-15
1.06960040638e-15
1.03167740672e-15
1.03534952263e-15
1.79952019729e-15
6.33865929086e-09
7.46259360992e-10
8.4461620163e-11
9.81099548158e-12
9.6510145409e-13
5.5552173998e-14
1.92309097672e-15
1.03874747992e-15
1.02992633424e-15
1.03307225838e-15
1.03720969847e-15
1.04073520134e-15
1.04296078898e-15
1.04337212572e-15
1.0430205448e-15
1.05955347983e-15
1.09634715361e-15
1.10960672845e-15
1.22387153163e-15
3.68425557335e-15
4.60283657601e-08
6.31807210945e-09
8.39136752228e-10
1.140761991e-10
1.34175697273e-11
9.57817330803e-13
2.40199375949e-14
1.15758816165e-15
1.12107359468e-15
1.12444672783e-15
1.13802891408e-15
1.14781899017e-15
1.15196483969e-15
1.15440627392e-15
1.151196e-15
1.1535311375e-15
1.19734927634e-15
1.3320330675e-15
1.82284251158e-15
8.20307789407e-15
2.85516891227e-07
4.52273183156e-08
6.99476415252e-09
1.09943850621e-09
1.51643447104e-10
1.31891037114e-11
4.27343105797e-13
2.95517838387e-15
1.60613165891e-15
1.4122449157e-15
1.45742859739e-15
1.49051425577e-15
1.50111040743e-15
1.50649560104e-15
1.4976128366e-15
1.4710164648e-15
1.51855689916e-15
1.91463904056e-15
3.43234158251e-15
1.42054000619e-14
1.48065504312e-06
2.69315220599e-07
4.85717168781e-08
8.81094401695e-09
1.41079671736e-09
1.4672118479e-10
6.11091804379e-12
4.29287277985e-14
2.90685523243e-15
2.18465581462e-15
2.31817991925e-15
2.41838429864e-15
2.46872235671e-15
2.4911105678e-15
2.46502115928e-15
2.34451956123e-15
2.37036129186e-15
3.24467782199e-15
6.95894997618e-15
1.69805814356e-14
6.36604345013e-06
1.32416741999e-06
2.79440900358e-07
5.87489616553e-08
1.08927687404e-08
1.34205638254e-09
7.01935458812e-11
7.31670281969e-13
3.46917005779e-15
3.97192110258e-15
4.24030802685e-15
4.4855690893e-15
4.6889034706e-15
4.77326980723e-15
4.71048086695e-15
4.32819933086e-15
4.24019649915e-15
5.7840419286e-15
1.20517714072e-14
1.72776648042e-14
2.3024887957e-05
5.47730549058e-06
1.34173833942e-06
3.27723839029e-07
7.04349846138e-08
1.02356419552e-08
6.64967724752e-10
9.9537938224e-12
4.41080797994e-15
8.02469696616e-15
7.75078271493e-15
8.10653847921e-15
8.60898845724e-15
8.80323439787e-15
8.6928326783e-15
7.89106273926e-15
7.52917684519e-15
9.58731269859e-15
1.69431515477e-14
1.72907717171e-14
7.17787188522e-05
1.97993362743e-05
5.54133793339e-06
1.55339408611e-06
3.85956808946e-07
6.59661261184e-08
5.29484350514e-09
1.10278110322e-10
8.6507496423e-14
1.11920369477e-14
1.2348230416e-14
1.256172005e-14
1.31867166844e-14
1.34088779235e-14
1.32937914665e-14
1.23751926675e-14
1.1727521088e-14
1.34621387968e-14
1.75477684342e-14
1.72937904092e-14
0.000198509032305
6.39591892387e-05
2.0455451701e-05
6.45781577232e-06
1.82533270105e-06
3.64234051869e-07
3.59096179564e-08
1.0251736632e-09
2.19947553518e-12
9.63874994437e-15
1.51977265371e-14
1.55589042386e-14
1.58307686743e-14
1.59111199052e-14
1.58686967912e-14
1.5427169405e-14
1.48315944547e-14
1.55130174582e-14
1.75934973399e-14
1.72923051526e-14
0.000497797461885
0.000186390753754
6.82215284634e-05
2.4218086655e-05
7.67136315711e-06
1.75448076849e-06
2.10102891256e-07
8.10143555299e-09
3.49464262991e-11
3.34481404548e-15
1.55615091072e-14
1.62695921153e-14
1.63009598873e-14
1.63023348098e-14
1.62972631322e-14
1.61432907981e-14
1.57571875305e-14
1.59162112249e-14
1.75477684342e-14
1.72853484849e-14
0.00114090397526
0.000490767892884
0.000204341357811
8.181276683e-05
2.91425101975e-05
7.56065995512e-06
1.07399719759e-06
5.45862456321e-08
4.06147761147e-10
3.14885916115e-15
1.54656322942e-14
1.62870852097e-14
1.63017457937e-14
1.63019598542e-14
1.62954582812e-14
1.61568327759e-14
1.58247955569e-14
1.59503896022e-14
1.75976856996e-14
1.72712287457e-14
0.00236777554936
0.0011557352695
0.00054276050531
0.000245136867145
9.90129476921e-05
2.94109755304e-05
4.88317324503e-06
3.15618939735e-07
3.73719145488e-09
3.14852133932e-15
1.51818638646e-14
1.62702854644e-14
1.62760473914e-14
1.62899943474e-14
1.62651405172e-14
1.61276102271e-14
1.58255165105e-14
1.59619513744e-14
1.75477684342e-14
1.72561873314e-14
0.00435517615214
0.00238144967406
0.00125462899958
0.000638949418277
0.000294552659842
0.000101467505008
1.9904224046e-05
1.58713450825e-06
2.81625400475e-08
1.37629832133e-12
1.15661613461e-14
1.61596833984e-14
1.62614139514e-14
1.6301970429e-14
1.62210114759e-14
1.60633259342e-14
1.58262254541e-14
1.59745022168e-14
1.7602526089e-14
1.72547359572e-14
0.00697009822317
0.00418086147604
0.00246290479729
0.00141867269918
0.000751050866616
0.000303056183517
7.13972914477e-05
7.06604650791e-06
1.76136337971e-07
1.30328210521e-10
9.76450856449e-15
1.59405080921e-14
1.62736349796e-14
1.63675728089e-14
1.62078026224e-14
1.59940207778e-14
1.58269343977e-14
1.59898071067e-14
1.75477684342e-14
1.72552329427e-14
0.00972474468729
0.00617422313087
0.00400925898835
0.002627026642
0.00160947569266
0.000767716079268
0.000220410683747
2.76327184419e-05
9.26804482807e-07
1.95516857171e-09
9.74648281955e-15
1.56463577187e-14
1.63297555364e-14
1.64763650783e-14
1.62229520568e-14
1.5951490023e-14
1.58276349668e-14
1.6006235398e-14
1.76066354823e-14
1.7253471075e-14
0.0121475293506
0.00785340260086
0.00539989457406
0.00400112247088
0.00284733319168
0.00162102093326
0.00057481291058
9.22218580898e-05
4.11153867158e-06
1.64214852276e-08
9.76450856447e-15
1.53132355292e-14
1.64187473548e-14
1.6577818676e-14
1.62898178959e-14
1.59403872454e-14
1.58282948868e-14
1.60231337341e-14
1.75477684342e-14
1.72560599194e-14
0.0141016854947
0.00909655228864
0.00629462669676
0.00507449022173
0.00412708511875
0.00280963243199
0.00124072621952
0.000254743883754
1.49260394389e-05
9.28010275277e-08
9.74648281814e-15
1.49725187313e-14
1.64709316658e-14
1.66345799679e-14
1.63912775892e-14
1.59433776001e-14
1.58288952756e-14
1.60413301266e-14
1.76070460715e-14
1.72511752763e-14
0.0157011427597
0.0101037304819
0.00683545361693
0.00566318586598
0.0050265883074
0.00398334062868
0.00216800851855
0.000564176260507
4.27340833753e-05
3.78132086853e-07
9.76450856449e-15
1.46509112305e-14
1.64774709669e-14
1.66809043681e-14
1.64621218321e-14
1.59633150205e-14
1.58294629358e-14
1.60630912242e-14
1.75477684342e-14
1.72574199727e-14
0.0171223778254
0.0110664188393
0.0072831416323
0.00596937681463
0.00548874754634
0.00476443557183
0.00305781431712
0.000984588840564
9.46864445363e-05
1.14313115121e-06
9.74648281751e-15
1.43590105711e-14
1.64760562471e-14
1.66805954567e-14
1.65108623858e-14
1.60058454894e-14
1.58299424008e-14
1.60935041796e-14
1.76054001796e-14
1.72472430422e-14
0.0185192564174
0.0120740120526
0.00778511843916
0.00620097216439
0.00572703683545
0.00514339915597
0.00364317289223
0.00138797165315
0.000164490509444
2.61935299506e-06
9.76450856393e-15
1.40750342006e-14
1.64767150621e-14
1.66856884046e-14
1.65630095222e-14
1.60733048077e-14
1.583031084e-14
1.61418915605e-14
1.75477684342e-14
1.725877291e-14
0.0199870115812
0.0131297462022
0.00838177030931
0.00644727670334
0.00589103312454
0.00532435466209
0.00395475673933
0.00168775045562
0.000235213370456
4.74254070351e-06
9.74648281786e-15
1.37881932049e-14
1.64838947924e-14
1.66805954567e-14
1.66139089937e-14
1.61723718649e-14
1.58306640856e-14
1.62181077172e-14
1.75987481457e-14
1.72407758708e-14
0.0214925892754
0.0141698622085
0.00900602716021
0.00671397831998
0.00602624553657
0.00543101972415
0.00412068863206
0.00188001521647
0.000293363034794
7.16629482711e-06
2.56729976366e-10
1.26239841669e-14
1.64359606787e-14
1.66889879145e-14
1.66696506773e-14
1.62950605654e-14
1.58307861766e-14
1.63154826431e-14
1.75477684342e-14
1.72593394789e-14
0.0227762628248
0.01501559756
0.0095125901102
0.00693892309147
0.00612974782933
0.005496318367
0.00419377273008
0.0019634119857
0.0003243921369
9.00805178813e-06
1.24358862656e-09
1.26144798992e-14
1.64039530209e-14
1.66805954567e-14
1.66828880289e-14
1.64103127309e-14
1.58943740689e-14
1.63982015103e-14
1.75883283081e-14
1.73933475467e-14
0.0233786389432
0.0153860425995
0.00972721322985
)
;

boundaryField
{
    emptyPatch
    {
        type            empty;
    }
    minY
    {
        type            fixedValue;
        value           uniform 1e-15;
    }
    maxY
    {
        type            inletOutlet;
        phi             phi.gas;
        inletValue      nonuniform List<scalar> 0();
        value           nonuniform List<scalar> 0();
    }
    water_to_cooler
    {
        type            zeroGradient;
    }
    water_to_heater
    {
        type            zeroGradient;
    }
    procBoundary2to3
    {
        type            processor;
        value           nonuniform List<scalar> 
41
(
0.644674892213
0.645613442076
0.650353140385
0.648048620407
0.604599578422
0.514654018744
0.425728732825
0.401433829412
0.450459373998
0.55732651337
0.569304102699
0.567799675681
0.55086959376
0.429301771672
0.259944447191
0.134281092489
0.0758466467905
0.0548039467281
0.043451684108
0.033095883379
0.00704457965861
0.00618182008566
0.00551617063591
0.00419562763449
0.0019582484311
0.000322529910688
9.07347123123e-06
1.49069258293e-09
1.2604022835e-14
1.64031646349e-14
1.66905620567e-14
1.66805954567e-14
1.65013630573e-14
1.61766012267e-14
1.64165878666e-14
1.75477684342e-14
1.75696052019e-14
0.0233044035209
0.015306588214
0.00704457965861
0.0096783548164
)
;
    }
}


// ************************************************************************* //
