/*--------------------------------*- C++ -*----------------------------------*\
| =========                 |                                                 |
| \\      /  F ield         | OpenFOAM: The Open Source CFD Toolbox           |
|  \\    /   O peration     | Version:  2312                                  |
|   \\  /    A nd           | Website:  www.openfoam.com                      |
|    \\/     M anipulation  |                                                 |
\*---------------------------------------------------------------------------*/
FoamFile
{
    version     2.0;
    format      ascii;
    arch        "LSB;label=32;scalar=64";
    class       volScalarField;
    location    "0.985/water";
    object      alpha.gas;
}
// * * * * * * * * * * * * * * * * * * * * * * * * * * * * * * * * * * * * * //

dimensions      [0 0 0 0 0 0 0];

internalField   nonuniform List<scalar> 
1496
(
0.633373827571
0.636891082029
0.669029366727
0.707626192501
0.724816036145
0.731015310201
0.73454638418
0.734304537864
0.719307236901
0.665429115321
0.562424507878
0.437014277722
0.326198378679
0.252014933827
0.221961511733
0.218554945603
0.219692026789
0.251846095254
0.373780328865
0.447513213762
0.634180802026
0.636690392723
0.667889743658
0.707674238974
0.719108890297
0.721419637393
0.727561279704
0.732065809925
0.724674336333
0.691997289475
0.619513807163
0.512424852823
0.392809166164
0.286230731148
0.224351067433
0.218439508164
0.219024730623
0.254974025449
0.395886565116
0.479853776048
0.634770729558
0.635335912464
0.656236290494
0.696691372509
0.687668718842
0.669887951671
0.678302516871
0.695508502854
0.699069124727
0.674234414187
0.610209804588
0.511579104477
0.397768677781
0.292592362549
0.226519949444
0.218447826807
0.227561703093
0.304569812794
0.473639142221
0.516815054844
0.634913048012
0.635938723963
0.63927109142
0.676918690309
0.641626326493
0.579229465661
0.571501462714
0.595022957891
0.609855130784
0.595146201381
0.546768939933
0.466004373097
0.368466117431
0.279746390988
0.229854314928
0.231388269336
0.284017309432
0.431746340623
0.526966186706
0.527069445485
0.635938723963
0.634683068133
0.636817635058
0.66987167149
0.631531512957
0.527808076105
0.468859769094
0.46162377306
0.46873276848
0.452995499741
0.418928470891
0.365592291492
0.309202467936
0.271837740523
0.25713230005
0.302893812023
0.424194973869
0.525033094577
0.527069445485
0.52291021456
0.634706512711
0.636724511086
0.661928323123
0.687658701273
0.65365995157
0.556232218585
0.473917042758
0.426672419788
0.390901220519
0.357358671748
0.334324470889
0.317892679777
0.305914320143
0.302059997421
0.355996892848
0.452804689646
0.519990746122
0.525417818261
0.524135106998
0.492838306694
0.695991603767
0.721419715856
0.731714651729
0.736592819817
0.715353329711
0.654680186736
0.567629793439
0.484625739501
0.420869657572
0.371115097301
0.345675959559
0.342129127245
0.357841716677
0.417961013944
0.500820983653
0.536404952144
0.53371416732
0.521314486581
0.488485869895
0.418110620107
0.824460622869
0.812585755858
0.800460619374
0.789378416753
0.775934272602
0.752399329189
0.707275295053
0.636327326179
0.552862631077
0.478037032804
0.440739709452
0.452509942252
0.493336997814
0.547383683163
0.561554881604
0.545637929525
0.523229059239
0.479850761528
0.403627647679
0.31268380808
0.838871374981
0.838283821866
0.828189260569
0.812462964238
0.80059576568
0.790920703805
0.775688494212
0.745544224476
0.69461339206
0.632392607155
0.590133070627
0.589130494962
0.596510249209
0.589230324864
0.564804953263
0.532943791861
0.478237236418
0.393348567673
0.295355988284
0.224543012146
0.84134552781
0.838857742601
0.83359575015
0.81630702364
0.803522016866
0.794943410401
0.785298548089
0.768180860888
0.738555871192
0.697939845633
0.661632367213
0.639479306907
0.61658332626
0.588473495219
0.550107214358
0.487320621133
0.395024313608
0.289161971908
0.214846215206
0.193083705207
0.838871374981
0.839224031656
0.834721178744
0.816257606875
0.801169454179
0.790804924915
0.781148381166
0.764865876931
0.737229767814
0.700403960137
0.667368491415
0.640795842293
0.612145209145
0.570663637848
0.504437851701
0.408620363763
0.29622067809
0.212601878957
0.191788733208
0.191470732694
0.841230351021
0.838871374981
0.834407461784
0.814117837354
0.792914688248
0.775688275412
0.761837170192
0.744927829457
0.719888710712
0.688782431415
0.658410846585
0.627813599978
0.586120912919
0.521521401728
0.427759623346
0.313469248776
0.217659159465
0.191804640325
0.191615736887
0.191527818457
0.838871374981
0.839078032624
0.831952062825
0.808663634745
0.782175438781
0.754007333786
0.723782196049
0.697054364252
0.673435998759
0.64960723686
0.622129350555
0.583855469353
0.525583313761
0.440526574017
0.33241963138
0.229412364174
0.191960538437
0.191810221075
0.191723937706
0.213479229201
0.840414672929
0.835872401009
0.826207154813
0.801993881373
0.776674365716
0.742084151053
0.683220565434
0.625774980893
0.599280261618
0.579059440573
0.550449040346
0.503627626008
0.43280726845
0.339369995917
0.241251222444
0.192353302695
0.191765184495
0.191960538437
0.215350494823
0.310892683166
0.838871374981
0.828263979113
0.817306811838
0.797062802495
0.776787760044
0.743088042735
0.671230109021
0.562229762532
0.511525987671
0.485951522976
0.450997479066
0.39634789793
0.322372790392
0.242448862097
0.194662395333
0.191523246505
0.191798603265
0.197344893324
0.323630000318
0.340731784935
0.839114718946
0.817513619374
0.806982221062
0.793678699614
0.778550511914
0.747780190019
0.676943390579
0.555724910342
0.441372152626
0.390284346131
0.342079204738
0.283480453204
0.22732094452
0.195164092841
0.191555234899
0.191766192907
0.191458865611
0.254866674592
0.393652933709
0.341851362577
0.834607800714
0.80407853633
0.796418714527
0.790289007963
0.780930151188
0.755723530531
0.690934638252
0.567776729248
0.436521466981
0.32477884335
0.252535412641
0.208045987941
0.19289612554
0.191600382578
0.191766192907
0.191110426668
0.195970612974
0.371634658278
0.393971755858
0.301123375627
0.815674360306
0.787604887008
0.785108197666
0.785782231903
0.781689053866
0.762571182766
0.707475159019
0.593047128798
0.44815262429
0.320192003518
0.222562556637
0.19243878735
0.19162428161
0.191766192907
0.191110426668
0.191765714538
0.245750699966
0.455224337865
0.392062377896
0.246992556125
0.795634168586
0.768113501016
0.770883334931
0.779035214967
0.780077106655
0.7647010407
0.716285590598
0.615124135766
0.470848866572
0.328698881676
0.224188181452
0.192289296681
0.191769266781
0.191197191231
0.191765714538
0.190908032697
0.35371103984
0.504517295636
0.382149002474
0.222136637123
0.794820875982
0.742203019016
0.751249573946
0.767691793143
0.773648842343
0.761528815577
0.715799203532
0.621889306165
0.488485561184
0.344773173593
0.23152534994
0.192770977889
0.19151486877
0.191769266781
0.191134497768
0.215104120172
0.475230811584
0.506828863311
0.383296738756
0.222267992054
0.794300731352
0.701943953691
0.726127847512
0.747162851805
0.756290891158
0.747554599452
0.707143070038
0.618735701867
0.491103066268
0.352930517307
0.237205668636
0.19303590511
0.191851792718
0.191282970638
0.191769266781
0.328035677758
0.506828863311
0.507800690144
0.404547938829
0.237490042932
0.795555892057
0.660403809279
0.695644183289
0.712115002831
0.721011921717
0.714018741573
0.679210237736
0.600781981063
0.48351501432
0.350260628474
0.235934390523
0.19246750633
0.191613260075
0.191851792718
0.215407566732
0.476951366745
0.509787873497
0.506828863311
0.4745174065
0.293598483057
0.793099739447
0.626914558536
0.656755557849
0.660886599679
0.663992460791
0.655775921967
0.6244822734
0.556797238744
0.453301671371
0.33057055616
0.224108788082
0.192043512531
0.192008917246
0.191629249604
0.346636353699
0.5102667595
0.506828863311
0.509546124469
0.506828863311
0.414402765185
0.792217491029
0.589083270021
0.607221216113
0.596074088277
0.588581978715
0.575495550511
0.545554114412
0.485740541048
0.393024643645
0.282702546096
0.201461089739
0.192247237125
0.191898064495
0.246082689047
0.496455259234
0.506828863311
0.51105495028
0.506828863311
0.508895675557
0.50680170336
0.792327851789
0.538752663163
0.544825714711
0.521043755709
0.503511399104
0.484648327699
0.452949866542
0.394904770122
0.308392974279
0.219178476009
0.192498927942
0.19215682195
0.214790428575
0.422900761044
0.506828863311
0.511088692233
0.506828863311
0.510525500301
0.506828863311
0.508264753093
0.784337459228
0.480805194938
0.482088521988
0.452190497655
0.426891756992
0.399381810893
0.35995983379
0.300050386792
0.231702997471
0.195771122033
0.19250351654
0.209935869871
0.348819767477
0.506828863311
0.510686727989
0.506816427267
0.510701172837
0.506828863311
0.509372371107
0.506828863311
0.731861563394
0.437599964645
0.441934138005
0.41250172808
0.373813114862
0.330930400298
0.283970287049
0.24052057111
0.214232125132
0.2029154214
0.216192481204
0.310236975761
0.488354991108
0.509416711176
0.506828863311
0.510462726105
0.506828863311
0.50971272671
0.506828863311
0.507833762111
0.640002292334
0.433605850812
0.433329449722
0.403752497952
0.343793827655
0.288785666005
0.252589230236
0.235275904952
0.227728996117
0.24247268037
0.2902854414
0.38878148488
0.497249985925
0.506828863311
0.509490745074
0.506828863311
0.509724684199
0.506828863311
0.508141243765
0.506828863311
0.571571235526
0.446800924096
0.455317602727
0.410036359505
0.338228050557
0.281045981338
0.253105346462
0.246645982514
0.262519246384
0.28685972975
0.318893859517
0.381163649726
0.462873228098
0.505519922797
0.506828863311
0.509265360286
0.506828863311
0.508506474552
0.506828863311
0.486102511323
0.586411489905
0.558021381655
0.540751334944
0.462633911805
0.368249834192
0.29975852644
0.268303996828
0.265996060119
0.276082580221
0.287338479966
0.305681654253
0.332137526616
0.383597219113
0.466174395258
0.507805379531
0.506828863311
0.50839629609
0.506828863311
0.507046923985
0.423780506619
0.67223524313
0.710157546407
0.675304357281
0.603711738486
0.509830637529
0.412049322623
0.327833931826
0.287348444282
0.273412354227
0.269570264878
0.27167707293
0.275942193257
0.302381577989
0.381897226321
0.473658549721
0.507504467932
0.506828863311
0.507292224343
0.481521101935
0.347299910452
0.7689397309
0.77603734832
0.754457951456
0.729098576155
0.689752790999
0.617815559764
0.485109677496
0.346644581597
0.280511898056
0.258224054892
0.250362318486
0.252660973353
0.26413844167
0.301097597763
0.388189906143
0.478343927597
0.505380037762
0.501225914997
0.430119862761
0.284783051036
0.792858282786
0.777650535974
0.764411430213
0.76232460858
0.758755208885
0.733578780042
0.653123773724
0.480257636904
0.330187462913
0.265306768577
0.247026471454
0.244920402627
0.250852733396
0.26656502054
0.307429887488
0.397680148042
0.466629250176
0.457637526458
0.373826277283
0.242093831927
0.793003926929
0.76093812738
0.755224458611
0.759578267044
0.759454137225
0.748913632373
0.704834858681
0.589669594146
0.423686222851
0.298207533471
0.249153336515
0.242790281861
0.243842146059
0.25301125204
0.273618346728
0.319886904015
0.383076853743
0.38069419139
0.320625525468
0.20990934554
0.773164636693
0.720707059914
0.720580591312
0.736763223687
0.748720539983
0.740741718543
0.70275182192
0.60765572027
0.470628824419
0.335400031397
0.254856616409
0.242379109292
0.24233982923
0.243399123287
0.259256669468
0.283876803236
0.313636546356
0.316505052662
0.273040892573
0.177115308136
0.729780496182
0.671426155063
0.669064366695
0.683774579469
0.697468808571
0.693311750898
0.665347952317
0.587634920507
0.465418919394
0.337844405997
0.254971888676
0.24233982923
0.242062982495
0.241538868651
0.246637828082
0.273391068992
0.303447012834
0.288492931532
0.229871964289
0.139766849798
0.684654231017
0.660517007455
0.636783775653
0.624075584648
0.614790710872
0.598757969388
0.56760304925
0.505633103506
0.412391768762
0.312049841206
0.24765941101
0.242062982495
0.241350796096
0.241226164495
0.241275981453
0.280799461444
0.322867103694
0.293236697991
0.20530911205
0.122420246742
0.395070506167
0.403170254107
0.340405900149
0.115885260792
0.0094558005822
0.000210022506075
1.77695258324e-05
1.76699368429e-05
1.77695258324e-05
1.76685042428e-05
2.65475700911e-05
0.0419585242863
0.526284525894
0.555227971997
0.273412267829
0.000174019095843
0.425947608351
0.374074719232
0.348890603481
0.339747055715
0.342244047725
0.348155422896
0.300704094433
0.116223928456
0.0110383023534
0.000335521474761
2.72333270683e-05
2.26761392364e-05
1.98438581412e-05
1.77714296749e-05
0.000947465529051
0.245988827842
0.555172627639
0.553333454075
0.237924896462
0.00015679396968
0.439132709315
0.37408011988
0.326608845172
0.304327914728
0.298377274361
0.300126812829
0.26917028973
0.124134514791
0.0167271958254
0.000859632529619
8.61021315404e-05
5.47327969361e-05
3.56681433389e-05
4.49255091268e-05
0.0342320820052
0.508589588161
0.553333454075
0.554549836971
0.210442963646
0.000150051064891
0.462362404379
0.381414298938
0.316793721726
0.2798547731
0.26588039079
0.262368565599
0.244209730611
0.145064716274
0.0322152971964
0.0029970873934
0.000372782978454
0.000146439192812
0.000101591027236
0.00173540558431
0.254933797856
0.553333454075
0.554306950784
0.553333454075
0.203483271027
0.000148428830645
0.473373239897
0.387502069071
0.310489930377
0.261633941554
0.241080855523
0.232657898271
0.219806020649
0.166440278408
0.0640138017537
0.011272568965
0.00168639845882
0.000624387615088
0.000784327925438
0.0712529728624
0.5241355084
0.55431118959
0.549910855278
0.537664283453
0.191866294582
0.0001467866567
0.465352832638
0.378499645243
0.29594914817
0.241683853971
0.218253348182
0.206169481945
0.194175042053
0.1704110753
0.104383929077
0.0367023950458
0.00937572277787
0.00852664649506
0.0584878094088
0.415818203782
0.568241154137
0.553431164855
0.526331294664
0.478306333459
0.141214147182
0.000145144505054
0.420624052255
0.333863108631
0.25900771889
0.213906164138
0.195531642879
0.187794750528
0.183520289561
0.175836168698
0.162219341248
0.128335208735
0.115813878619
0.218758571843
0.477619241309
0.586222096849
0.568472804684
0.555237481265
0.519935249583
0.402719295238
0.0816306436112
0.000133818230881
0.332394297516
0.256671146196
0.208547531342
0.191425131417
0.187741542087
0.187714937748
0.214450686385
0.312799767348
0.428725627527
0.492811867004
0.554376906454
0.662310327462
0.696113024361
0.647698144819
0.609973172187
0.600447844209
0.540978223407
0.376201639743
0.0533195054699
0.000133813776918
0.23955861386
0.198905812858
0.191334058428
0.191322806841
0.193654936873
0.320784951545
0.554815939214
0.698750627881
0.752644207809
0.773720425537
0.782526181232
0.779728058508
0.732148025799
0.669635536874
0.648943279527
0.643496574863
0.529402550656
0.331423380706
0.0483386778523
0.000133818230881
0.1951061538
0.191334058428
0.191322806841
0.198222345535
0.4219446644
0.72155547654
0.799661749902
0.801495559415
0.803420609838
0.801495559415
0.801811412576
0.771986993777
0.710083641324
0.643557208521
0.637198617674
0.615174529899
0.418503780177
0.271780383279
0.0576738647889
0.000141140805315
0.191356561696
0.191345310046
0.191334058428
0.40167951155
0.764576199319
0.804553352292
0.801495559415
0.805011759608
0.801495559415
0.802240556112
0.784687422653
0.733516046429
0.660790340138
0.598850531475
0.591128428577
0.51911811453
0.258157361523
0.233760944636
0.0859260223417
0.000315618409735
0.191413647107
0.191356561696
0.283529517761
0.685383013979
0.805271565772
0.801495559415
0.805194454322
0.801495559415
0.802834936513
0.787169093261
0.739319987525
0.676044991871
0.613132831684
0.563504991349
0.513045383713
0.378365797318
0.125842251071
0.208907605784
0.119794476171
0.000595206532436
0.19232605802
0.223140064902
0.443857784701
0.766620187196
0.801495559415
0.805960116576
0.801495559415
0.804240541869
0.801495559415
0.74362479028
0.671798970316
0.61607098681
0.57310864366
0.53128730074
0.413955065457
0.23452847932
0.0619098780063
0.200401468755
0.143035829415
0.00077511134076
0.265657353242
0.300897369721
0.444027157356
0.754137540199
0.806513083
0.801495559415
0.805289519151
0.801495559415
0.796179343511
0.685639995034
0.590769650414
0.554675828757
0.543842412462
0.509911842365
0.338780769518
0.128471388438
0.0617907745812
0.202159573988
0.149969739462
0.000760968909762
0.312090389226
0.295637284632
0.391481664081
0.742621396896
0.801495559415
0.806111630858
0.801495559415
0.803311432834
0.786628991186
0.65821207424
0.534606105864
0.513703144539
0.532917761852
0.521254018856
0.364409570858
0.0939203731773
0.0619098780063
0.201982543858
0.143709809591
0.000759800002405
0.302106623806
0.252491884275
0.39720851298
0.75749059632
0.805633408356
0.801495559415
0.804391959497
0.801495559415
0.775961330883
0.66580065679
0.541976320578
0.513703776862
0.554797294392
0.610991908031
0.517394265171
0.145550604987
0.0617822306693
0.178638277837
0.120361067449
0.000824986802852
0.25295013311
0.226619212358
0.451940974526
0.783871833437
0.801495559415
0.804523553571
0.801495559415
0.80211009907
0.766925931032
0.673144058918
0.569666301787
0.564511349789
0.666071393436
0.708463848178
0.7102343146
0.268282866042
0.0684976409041
0.118824624257
0.0829248993317
0.000920875857898
0.199948803023
0.226764319774
0.527108878111
0.795946644201
0.803485060331
0.801495559415
0.802667787381
0.801495559415
0.753360968558
0.676657042536
0.630205106619
0.691783062152
0.708463848178
0.712351633077
0.709448340947
0.410440853267
0.0763623521039
0.0623214576224
0.0424620161247
0.000676160106777
0.166510249319
0.223643497114
0.543528220104
0.788772359125
0.801495559415
0.802273490796
0.801495559415
0.783386348163
0.72570634047
0.684599972696
0.709876322146
0.707609640926
0.71297712243
0.708966455362
0.712035970244
0.632942133471
0.103915547793
0.0165578051838
0.0123996523631
0.000269662148592
0.148759764152
0.2062650383
0.508397305691
0.744579469601
0.791375617745
0.795103584962
0.784418041623
0.735428575403
0.684715884974
0.691186770016
0.706835381638
0.713025004121
0.707609640926
0.712957382406
0.708966455362
0.710424055654
0.205249807015
0.0046380335401
0.000938898767117
0.000122623146019
0.141902976207
0.164581708933
0.399596976582
0.625561064104
0.71696278942
0.735978700558
0.716775518263
0.657155359557
0.614541255387
0.666372439024
0.710721723964
0.706835381638
0.713249388705
0.707609640926
0.711119525165
0.707609640926
0.374265995824
0.0116250317086
0.000122623146019
0.000122676619328
0.139378501694
0.12435503075
0.242801855248
0.431421573737
0.550282741894
0.594822489824
0.583963695339
0.529625730964
0.50884476671
0.629802316133
0.705659052827
0.711264430281
0.706835381638
0.711115569385
0.707609640926
0.709405281472
0.475632286158
0.0324733243491
0.000239950521864
0.000122553437551
0.15364033216
0.112497068807
0.121357737636
0.221011023858
0.328916721569
0.390823383018
0.394499480376
0.344832329605
0.38852130455
0.635238426823
0.707972728029
0.705659052827
0.710529040668
0.706835381638
0.710264907225
0.706835381638
0.419084644897
0.0297149338658
0.000291490294902
0.000122605487444
0.221631150877
0.112313056014
0.0887928670507
0.0934558800658
0.138063454431
0.180138879025
0.187626318062
0.164514764492
0.335124458671
0.687182313086
0.704801144489
0.707271879255
0.705659052827
0.709581949211
0.706835381638
0.680781716255
0.241740157086
0.0133978326266
0.000183640886968
0.000122498920809
0.351682538136
0.170520700821
0.0881686091245
0.0698619547549
0.0708713947956
0.0741658661024
0.073206829401
0.0823644069917
0.371301951111
0.6948046552
0.696184116914
0.704801144489
0.706871156475
0.705659052827
0.708040077844
0.493911358677
0.0591402247982
0.00178497119803
0.000141804875556
0.000122569505617
0.451487294484
0.276993921221
0.118525973144
0.0694327766949
0.0693411516292
0.0690626017161
0.0693411516292
0.0713731116378
0.430266825748
0.693399318016
0.668437965796
0.679045850096
0.704801144489
0.706745216308
0.652110265838
0.201889415599
0.00421297115697
0.000738014435957
0.000569022197246
0.000122485066868
0.469162526579
0.328710953805
0.170881284146
0.069709077754
0.0690373996654
0.0692413531682
0.0685192717818
0.0697993168303
0.495835847375
0.6926685345
0.651666733178
0.629904427111
0.6462004881
0.671960360446
0.529897667497
0.0627267920239
0.00246061745939
0.00243684341747
0.0137999980778
0.000170509992388
0.463035989219
0.326364918404
0.185519389714
0.0727484086019
0.0692413531682
0.0685192717818
0.0692413531682
0.107342279783
0.596635034998
0.691922042263
0.663751930886
0.570882405183
0.526546144877
0.563108859786
0.525525399325
0.150619940577
0.0200552919409
0.0290814241082
0.0776674439077
0.000517463132437
0.432304370468
0.296592117074
0.172092337644
0.0723725478036
0.0688055297962
0.0692413531682
0.0684207477993
0.332976662672
0.688173171939
0.690987467585
0.65935282695
0.528482154613
0.524560953265
0.527068701892
0.586123975656
0.514015576168
0.326722327386
0.308713632626
0.173351870159
0.000872222689566
0.364731784195
0.230809066113
0.126086394455
0.0693730930613
0.0693411516292
0.0685013099755
0.224085460086
0.650133998802
0.687920397915
0.682677076676
0.620887106851
0.542156200187
0.534590329945
0.62430282201
0.67379077454
0.673767874934
0.655842659087
0.602015334435
0.246895083714
0.00252935023869
0.277126900254
0.153190520528
0.0771689706497
0.0694503334846
0.0687080461855
0.171135578165
0.596708150348
0.67403051577
0.67579153513
0.647617768527
0.61899317075
0.618020149649
0.650603225625
0.671672269588
0.673767874934
0.67379077454
0.645649362828
0.557421599379
0.168820249388
0.00133367253802
0.200790533017
0.097757277815
0.0695639103872
0.0691942190489
0.10286659951
0.494375293169
0.639838364802
0.644710884905
0.621061707015
0.600494703934
0.626462558695
0.660128441549
0.660212021971
0.633757604016
0.610399027225
0.592056886787
0.510900755496
0.382447941833
0.0434951660671
0.000108824309218
0.152909459144
0.0787351255394
0.0694829731293
0.0711305155676
0.310905312636
0.582984490437
0.600766928543
0.560940889208
0.536706098395
0.54236081228
0.613637424482
0.660212021971
0.645559502441
0.57740946305
0.552307248888
0.464299574706
0.298649436805
0.158633059962
0.00245465891656
3.29539200493e-05
0.129079697729
0.0774969749334
0.0713108210308
0.169284733492
0.522983713524
0.575431256631
0.530596293131
0.478953750475
0.4593471273
0.463891686988
0.525779908771
0.601610940577
0.612649985858
0.575175291307
0.57575430531
0.439869784385
0.119799422841
0.0224121514549
9.05646509394e-05
3.28612521736e-05
0.115421349573
0.0865341058329
0.118740215812
0.362267855671
0.58965962722
0.566967743324
0.508779282223
0.465965902022
0.436051468394
0.404328749445
0.401424527083
0.468232852847
0.595273891685
0.575849491365
0.631329243554
0.390230534201
0.0363516080783
0.000590158536564
4.29017922409e-05
3.2768219291e-05
0.106958151743
0.10997854657
0.222922357149
0.488011280829
0.599122589106
0.575057353428
0.528244132516
0.492430048516
0.459525872285
0.408507593564
0.383462551963
0.405153927364
0.596815184159
0.575175291307
0.633189917186
0.304801219328
0.0172589742859
7.61697736218e-05
4.00693207505e-05
3.26762643958e-05
0.104048720706
0.131556927038
0.302048731104
0.52556817626
0.608989666441
0.605541865927
0.589686546749
0.572232162413
0.539102638803
0.461768683838
0.384083894241
0.407166023635
0.597840443402
0.620709057329
0.63296735778
0.311139109942
0.0212543741898
0.000112434750609
3.82116954323e-05
3.25899981193e-05
0.100743459357
0.131624628053
0.313378140383
0.538238622513
0.62428800662
0.639501463448
0.643061944152
0.641325935401
0.617589557636
0.547936677671
0.4462037167
0.406181785008
0.557113366136
0.626714997506
0.614457284084
0.311406254593
0.0275392046817
0.000219763530101
3.25988144437e-05
3.25063444941e-05
)
;

boundaryField
{
    emptyPatch
    {
        type            empty;
    }
    minY
    {
        type            fixedValue;
        value           nonuniform List<scalar> 0();
    }
    maxY
    {
        type            inletOutlet;
        phi             phi.gas;
        inletValue      uniform 1;
        value           nonuniform List<scalar> 
40
(
0.684654231017
0.660517007455
0.636783775653
0.624075584648
0.614790710872
0.598757969388
0.56760304925
0.505633103506
0.412391768762
0.312049841206
0.24765941101
0.242062982495
0.241350796096
0.241226164495
0.241275981453
0.280799461444
0.322867103694
0.293236697991
0.20530911205
0.122420246742
0.100743459357
0.131624628053
0.313378140383
0.538238622513
0.62428800662
0.639501463448
0.643061944152
0.641325935401
0.617589557636
0.547936677671
0.4462037167
0.406181785008
0.557113366136
0.626714997506
0.614457284084
0.311406254593
0.0275392046817
0.000219763530101
3.25988144437e-05
3.25063444941e-05
)
;
    }
    maxX
    {
        type            zeroGradient;
    }
    water_to_heater
    {
        type            zeroGradient;
    }
    procBoundary0to1
    {
        type            processor;
        value           nonuniform List<scalar> 
41
(
0.60125656467
0.622606828265
0.656295778697
0.683001718645
0.691269752795
0.687605109504
0.681118049761
0.66580858312
0.612444995965
0.513783597497
0.3991008617
0.310624622734
0.257029850218
0.230812112595
0.221627356796
0.220225022442
0.227433556089
0.275065500412
0.37762916227
0.436603238917
0.44987005367
0.456247848332
0.383742081843
0.125643836017
0.00947596483831
0.000192824156409
1.76743555313e-05
1.77695258324e-05
1.76738738381e-05
1.77714296749e-05
1.7670828433e-05
0.00213078360378
0.322289714479
0.553333454075
0.312848601234
0.000201098583376
0.424378634766
0.393622660855
0.38315774369
0.383538582927
0.383538582927
)
;
    }
}


// ************************************************************************* //
