/*--------------------------------*- C++ -*----------------------------------*\
| =========                 |                                                 |
| \\      /  F ield         | OpenFOAM: The Open Source CFD Toolbox           |
|  \\    /   O peration     | Version:  2312                                  |
|   \\  /    A nd           | Website:  www.openfoam.com                      |
|    \\/     M anipulation  |                                                 |
\*---------------------------------------------------------------------------*/
FoamFile
{
    version     2.0;
    format      ascii;
    arch        "LSB;label=32;scalar=64";
    class       volScalarField;
    location    "0.42/water";
    object      km;
}
// * * * * * * * * * * * * * * * * * * * * * * * * * * * * * * * * * * * * * //

dimensions      [0 2 -2 0 0 0 0];

internalField   nonuniform List<scalar> 
750
(
0.0436893847953
0.0343422563794
0.0224254559177
0.00907100953628
0.00834505281227
0.0110096140381
0.0115896604279
0.0117411895274
0.0148957731761
0.0129924785796
0.009386903857
0.00148552864186
0.000701397154306
0.00109960760196
0.00242162078122
0.00469576598415
0.00818691992229
0.0130788993486
0.00959054701553
0.0117532259288
0.0142174690985
0.0158550202805
0.0164899729139
0.017434090211
0.0202197837296
0.028567958283
0.0511619146272
0.102454270995
0.231716392829
0.569484105453
0.0108000060165
0.00126621742882
0.000704024552489
0.00106700492462
0.00220850796453
0.00459191879203
0.00714013488795
0.0093870296378
0.00776982984369
0.00934680347107
0.0110952932691
0.0125148373237
0.0137877880596
0.0159097765609
0.0193887406739
0.0268548391485
0.0476325987986
0.103082506473
0.242539902123
0.592570356865
0.00745012978873
0.000998880965423
0.00070764014823
0.0010730902345
0.00206754612515
0.00447939924518
0.00736926112124
0.00746546492172
0.00647813086221
0.00743503040454
0.00870531199601
0.0103445011158
0.012880827665
0.0166329652918
0.0210862969098
0.0272195233727
0.0394946884183
0.0707281472798
0.156806275251
0.364020858477
0.00787842184535
0.00114662957427
0.000829324633357
0.00124186570369
0.00237628857081
0.00549321061198
0.0078917202108
0.00614961419651
0.00503900958547
0.0053584930664
0.00632292639857
0.00806240044877
0.011533273048
0.0180985139792
0.0259062887209
0.034334819684
0.0456408450594
0.0639206376397
0.101342862741
0.176654991668
0.0175317681002
0.00290273513864
0.00153579783134
0.00251879990493
0.00636595147881
0.0100262913708
0.00863318240534
0.00581649516132
0.0041996979539
0.00380512717357
0.00394782776097
0.00474488866127
0.00663199314746
0.0141723168387
0.0286573215921
0.0454681879013
0.0646942894315
0.0884484695088
0.121338026448
0.170466589985
0.0290709514239
0.00724987312489
0.00431890996213
0.00653373001766
0.00806886182249
0.00966112760838
0.00881505699918
0.00558964815772
0.00360311514837
0.00278159977818
0.00237141222187
0.00227742122236
0.00278045705866
0.00653546956201
0.0194900971788
0.045654017731
0.0859740087341
0.141648866811
0.214356830314
0.304271471528
0.0389961312972
0.0134404975134
0.00680098076958
0.00633411776113
0.00766603263081
0.00825711043393
0.00706838933978
0.00477078787693
0.00312528357326
0.00225451279565
0.00171903677767
0.00141219850308
0.00154783160142
0.00392780706087
0.0150377540143
0.0427967349706
0.0964344464905
0.201259157184
0.414089024577
0.787471669044
0.0362782460147
0.0144879294044
0.007945246264
0.00790536137596
0.00841617653247
0.00780438854244
0.00618593579642
0.00434284268977
0.0030345586682
0.00221336200263
0.00169718060962
0.00145640646904
0.00183883270475
0.00538090082354
0.0202537857643
0.052967334219
0.111723151167
0.241339168879
0.567204111207
1.32620800616
0.0335938805847
0.0171988996498
0.0118912691408
0.0107098355677
0.00968552183787
0.00809658091949
0.00606178335507
0.00419075881153
0.00300563800375
0.00226832112734
0.00187830937963
0.00188392227489
0.00297180593439
0.00961934411004
0.0306496697928
0.070479345563
0.136568135618
0.284520190931
0.666767420442
1.60547926548
0.0357802499859
0.0230625705996
0.0168109411482
0.0138642080776
0.0114853331468
0.00888397154307
0.00612731047864
0.00415244223803
0.00302089175719
0.00247165952817
0.00237427932178
0.00281261262271
0.00528997005674
0.015395646473
0.0420185190413
0.0892774057046
0.16100141677
0.31986242409
0.737451791715
1.78323927813
0.0381134593804
0.0279645251126
0.0212775053385
0.0170194178736
0.0134334035364
0.00949452076042
0.00608918403927
0.00413466676721
0.00323318482602
0.00299414596698
0.00330392287645
0.00420005330656
0.00908768569199
0.0209622831027
0.0518798298129
0.105213396843
0.183898831093
0.354918790501
0.805582407149
1.93298596755
0.0359104321658
0.029392008477
0.0238995936718
0.0191963663934
0.0147715810717
0.00937608392859
0.00591024402839
0.00423736825336
0.00372207423132
0.0038582885619
0.00441453980397
0.00604750721527
0.0148816208198
0.0276122691955
0.0615217586147
0.123414755903
0.213542104287
0.399255245197
0.862975292232
1.93907331859
0.0240627782257
0.0254419996738
0.0230076868557
0.0190674182191
0.0141878558017
0.00866754107166
0.00577184957985
0.00477769743065
0.00499596809421
0.00593937474613
0.00717304810479
0.0120208823655
0.0234591498556
0.039605828035
0.0887886571566
0.168001111947
0.263882680886
0.435395402415
0.782863312508
1.36553985318
0.0170231432739
0.0153221895042
0.0151794618683
0.0172584224557
0.0141894034264
0.00876431013164
0.00698888440895
0.0074466965282
0.00901090600441
0.0107938171772
0.0169951980064
0.0281402761483
0.0457088615094
0.0800534942298
0.142360444951
0.216896634927
0.294210429688
0.40292909855
0.550410887367
0.684564140079
0.00729013536309
0.0087465149925
0.00827614976172
0.010885286069
0.0134193245316
0.010273872308
0.0100382797631
0.0120350887152
0.0178348271648
0.0240382957325
0.0381339858508
0.0556204582098
0.0822486180617
0.123631358816
0.177407527992
0.228243324528
0.270850042669
0.31046128617
0.316127233011
0.328999788532
0.00362744965834
0.00354783789349
0.00762153007175
0.0108900911061
0.0148485762076
0.0165643342569
0.018482613313
0.0237477410059
0.0334945449396
0.0430259881768
0.0579803655807
0.0784739340796
0.106517753862
0.140679504338
0.173899202128
0.197345399243
0.207123731028
0.195034714875
0.178262220053
0.179780117408
0.00366143960207
0.00203279111593
0.00522061636958
0.0205772926467
0.0256704158729
0.0271118960731
0.0306021081006
0.0359897411984
0.0439411209994
0.0545099060165
0.0692958143649
0.0878024809148
0.108924677394
0.129040928265
0.143054621248
0.143583250831
0.124304748145
0.0988089017499
0.0888160661033
0.0897245770775
0.00387021228833
0.00176765240534
0.00453790985703
0.0236537490931
0.041102153864
0.0404387781516
0.0480538563161
0.0542224809339
0.0615623107987
0.0708507001156
0.0821811689623
0.0942195388604
0.105303348234
0.109569713063
0.102192881336
0.0851122864129
0.0595292287983
0.0456567596749
0.0408735185883
0.0414873793139
0.00370680835998
0.00159804603357
0.00389476820272
0.0198113487683
0.0364100156179
0.0585520852324
0.0707786811769
0.0875008087454
0.0957766955373
0.0998578188226
0.104786538447
0.103237718169
0.0910510450937
0.0791226057588
0.0579333235759
0.0392044438042
0.0266792325387
0.0207833639952
0.0201318807926
0.0229744921423
0.00308113563364
0.00150927536911
0.00335245112837
0.0122686414558
0.0257651965113
0.0506748285888
0.0989355133054
0.124709183264
0.147885282555
0.136842366696
0.101796496861
0.0878349429372
0.0596471369958
0.0420368374425
0.0277509095254
0.0185734268721
0.0133620492388
0.0117244604242
0.0127051052386
0.0162710434784
0.00289800725402
0.0015068891333
0.00238797441624
0.00524420150842
0.0118132715091
0.0293057398312
0.0820805508928
0.151164189431
0.200017457802
0.180935377689
0.0699653399678
0.0496738773228
0.0321919410197
0.0219811833068
0.0153082873538
0.0119252415557
0.0104538413273
0.0101640551223
0.0108328966509
0.0128641122554
0.00360185575951
0.0017110706704
0.00203433840061
0.00274900763773
0.00385671450925
0.00811675653364
0.0255748533906
0.177664666093
0.242126998166
0.22421730447
0.054862523605
0.0303446547216
0.0178117906565
0.0125563614101
0.0106361637553
0.00996012635223
0.00987795607306
0.0101668966799
0.010848637876
0.012358310049
0.00496752484769
0.00223491948837
0.00241435072039
0.00252424629613
0.00242353363835
0.00227426724408
0.01633038247
0.167934738443
0.203495758277
0.193431529861
0.0742467802571
0.0277089286
0.0112928340717
0.00942081071628
0.00950009119163
0.00988984119731
0.0103716986065
0.0109465097078
0.0117253406362
0.0130137896418
0.0070322197523
0.00317981089475
0.00331052669075
0.00327413151662
0.00288733000514
0.00253353328519
0.0161541141477
0.118691130546
0.132137208349
0.129482254047
0.0727308672948
0.0431646646331
0.0130383576878
0.00943972320886
0.00993068803536
0.0107873166225
0.011629220033
0.012454370632
0.0133698770749
0.0146054064796
0.00974499563573
0.00463961177006
0.00449729823086
0.00437348161795
0.00404311466619
0.00524491520606
0.0151774856541
0.0788586608145
0.0823160439959
0.0837265227435
0.0585246536144
0.048870888175
0.0148108792315
0.00920679679494
0.0106070187434
0.0122690644339
0.0136816381987
0.0148870791097
0.0160011447035
0.0172261599463
0.00966422696973
0.00648748731733
0.00575454840838
0.00547195861288
0.00522105611554
0.00691395480615
0.0146780540937
0.0683031374037
0.0644166560713
0.0660862867524
0.0563162049234
0.0544244210747
0.0192662331419
0.00991183034062
0.0123789834287
0.0150395808114
0.0171686672584
0.0188487334986
0.0202103478937
0.0214330481603
0.00944336261895
0.00788908477692
0.00691225794188
0.00636223765106
0.00598122988774
0.00711367389596
0.0108583899148
0.063286767204
0.0580673159713
0.0619727712588
0.0601885680191
0.0626205641304
0.0298272089005
0.0111413515329
0.0149133236806
0.0189062638755
0.02201391468
0.0243395230299
0.0260480275666
0.0273599492374
0.00971308876973
0.00881427941613
0.00773885216728
0.006838766437
0.00615157796945
0.00692352733774
0.00995633971088
0.055215070531
0.0560700984616
0.0611977087564
0.0675923790828
0.0736888136129
0.0445897651473
0.0129384608755
0.0179569496479
0.0236540963725
0.0281646661286
0.0315791380445
0.0340477586411
0.0359114155306
0.00969041126018
0.00956728511672
0.00805334474011
0.00657532963168
0.00562615565957
0.00683825222027
0.00910324927107
0.051777479343
0.054398036079
0.0652259028998
0.0780636262388
0.0838185060039
0.0566655765454
0.0160794903684
0.0218816393563
0.030170691664
0.0367905222991
0.0419395881062
0.0457086805481
0.0485710124635
0.0106554122709
0.00938706120461
0.0067270199147
0.00511334371908
0.00504912175833
0.00770742546141
0.0167706156222
0.0475341947906
0.0604524993703
0.0725935431445
0.0887868601777
0.0910011444989
0.0625127905708
0.0220174076798
0.0240694570006
0.0363312433437
0.0466867036964
0.0553783143117
0.0620596291025
0.0675998246023
0.0101259533849
0.00654201025352
0.00410727905715
0.00413022297807
0.00754138290902
0.0142162678866
0.0273488364207
0.0486940989587
0.0641541747887
0.0775864029017
0.0913404032725
0.0924440967877
0.0680422796607
0.0276493152144
0.0223117006092
0.0395231555065
0.0562252869928
0.0704896273497
0.0811671941193
0.0896068728618
0.00687674988676
0.00408608688988
0.00240875575118
0.00556523343394
0.011062087543
0.0206824266189
0.0306525373377
0.0456037585833
0.0571408258103
0.0681232183039
0.0794129454618
0.0839730628242
0.0741018843249
0.0478988585737
0.030854877758
0.0405239504175
0.0703149129481
0.0956200024104
0.106264198832
0.116142148036
0.00483293164304
0.00260384227566
0.00620689636217
0.0136440819693
0.0128977979619
0.0161262917314
0.0209230798602
0.0282410579975
0.0392205818304
0.0542044495206
0.0691604712556
0.0792220415587
0.0815990178098
0.0828439735912
0.0934992670327
0.122647728436
0.148182628162
0.139519948307
0.125384009028
0.12525470311
0.00326779860375
0.0132530679706
0.032635116597
0.0244485672832
0.0192370849282
0.0189369882235
0.0197052487493
0.0241296643443
0.0340269001912
0.046870437847
0.0602722747089
0.0734360066919
0.088017162455
0.108226104761
0.135244930291
0.158215062858
0.159138050993
0.11830072291
0.0928991339039
0.0916412840368
0.00622229655072
0.0243307163153
0.0454630236467
0.0342816949737
0.0248324313678
0.018645180922
0.0172269054606
0.0175286518726
0.0181197386767
0.0207300152211
0.0250561739172
0.0311990598999
0.0398248149691
0.0516453208911
0.065418903149
0.0761094637757
0.0774697763919
0.0673783099089
0.0664201668134
0.0768140423742
0.0145426615716
0.0215530284679
0.0312283699148
0.0320209906496
0.0254789051075
0.0167424694477
0.0126458546775
0.0112645311084
0.00909641136204
0.00846057805845
0.00937695121899
0.0111573202468
0.013841554191
0.0174153841543
0.0220184675446
0.0275789891455
0.0341799621838
0.0433498250496
0.0586995042859
0.0814394921726
0.0238587994526
0.0191419747311
0.0257112755861
0.0262309001575
0.0213986389902
0.0167724689113
0.0134115383872
0.0116643674242
0.00860084700471
0.00374398664822
0.00441301969205
0.00513149114649
0.00643278145604
0.00869744613702
0.0123551600992
0.0177909398295
0.0257356876762
0.0373830717739
0.053965869618
0.0765148045603
)
;

boundaryField
{
    emptyPatch
    {
        type            empty;
    }
    minY
    {
        type            fixedValue;
        value           nonuniform List<scalar> 0();
    }
    maxY
    {
        type            inletOutlet;
        inletValue      uniform 1e-05;
        value           nonuniform List<scalar> 
20
(
0.0238587994526
0.0191419747311
0.0257112755861
0.0262309001575
0.0213986389902
0.0167724689113
0.0134115383872
0.0116643674242
0.00860084700471
0.00374398664822
0.00441301969205
0.00513149114649
0.00643278145604
0.00869744613702
0.0123551600992
0.0177909398295
0.0257356876762
0.0373830717739
0.053965869618
0.0765148045603
)
;
    }
    maxX
    {
        type            kqRWallFunction;
        value           nonuniform List<scalar> 
37
(
0.569484105453
0.592570356865
0.364020858477
0.176654991668
0.170466589985
0.304271471528
0.787471669044
1.32620800616
1.60547926548
1.78323927813
1.93298596755
1.93907331859
1.36553985318
0.684564140079
0.328999788532
0.179780117408
0.0897245770775
0.0414873793139
0.0229744921423
0.0162710434784
0.0128641122554
0.012358310049
0.0130137896418
0.0146054064796
0.0172261599463
0.0214330481603
0.0273599492374
0.0359114155306
0.0485710124635
0.0675998246023
0.0896068728618
0.116142148036
0.12525470311
0.0916412840368
0.0768140423742
0.0814394921726
0.0765148045603
)
;
    }
    water_to_heater
    {
        type            kqRWallFunction;
        value           nonuniform List<scalar> 0();
    }
    procBoundary2to1
    {
        type            processor;
        value           nonuniform List<scalar> 
20
(
0.00907185981927
0.00175651727152
0.000718792923061
0.00106065103162
0.00243134426701
0.00482369341265
0.0110127776017
0.0163524287042
0.0142777246028
0.0170030652685
0.0198787966464
0.0218213756846
0.0217906539062
0.0213509928413
0.0225460942474
0.0281825125484
0.0439570032111
0.0844447079684
0.199002278165
0.482851227991
)
;
    }
    procBoundary2to3
    {
        type            processor;
        value           nonuniform List<scalar> 
39
(
0.0325365114195
0.0452463955046
0.0369366354893
0.0475132022453
0.111949133092
0.124525481961
0.134060675436
0.109273524189
0.0814313291475
0.062694576679
0.0521683058435
0.0521683058435
0.0459657297991
0.0388494435312
0.0232664304731
0.0100595809183
0.0101370132156
0.0126690812955
0.0134992736098
0.0142618107204
0.0188896620557
0.0174898409584
0.0160413532987
0.0160413532987
0.0220396024865
0.0263794273293
0.0278561067423
0.0241704000012
0.022193814575
0.0213329155192
0.0182265739318
0.0165762227293
0.0138075047453
0.00965009264011
0.00690860847576
0.00495459237708
0.00435925245348
0.00403692028901
0.00756218017136
)
;
    }
}


// ************************************************************************* //
