/*--------------------------------*- C++ -*----------------------------------*\
| =========                 |                                                 |
| \\      /  F ield         | OpenFOAM: The Open Source CFD Toolbox           |
|  \\    /   O peration     | Version:  2312                                  |
|   \\  /    A nd           | Website:  www.openfoam.com                      |
|    \\/     M anipulation  |                                                 |
\*---------------------------------------------------------------------------*/
FoamFile
{
    version     2.0;
    format      ascii;
    arch        "LSB;label=32;scalar=64";
    class       volScalarField;
    location    "0.42/water";
    object      p_rgh;
}
// * * * * * * * * * * * * * * * * * * * * * * * * * * * * * * * * * * * * * //

dimensions      [1 -1 -2 0 0 0 0];

internalField   nonuniform List<scalar> 
750
(
100620.670939
100751.174815
101389.251245
101667.580131
101649.260731
101278.9591
100946.872373
100983.97716
101627.603589
101877.842475
101396.179624
101562.160552
101637.512455
101677.749057
101654.194297
101335.803304
100951.415728
100933.09593
101051.003573
101103.077267
101164.009655
101239.816535
101297.328917
101330.184593
101351.050047
101362.472737
101352.554973
101232.854297
101060.471768
101013.152813
101569.451883
101647.163255
101668.796987
101693.138142
101695.580596
101571.790733
101137.946178
101015.379573
101195.036353
101267.001436
101321.728625
101393.127262
101450.168741
101466.538038
101461.468877
101457.681883
101464.68393
101431.679589
101327.368103
101011.331957
101658.411672
101688.182104
101685.791395
101690.833872
101693.633409
101650.075615
101327.106909
101121.208694
101315.972572
101407.375823
101437.492541
101460.385964
101474.771548
101481.762561
101489.898728
101500.575337
101522.980164
101531.326425
101567.786341
101148.635423
101663.524932
101666.260951
101666.334127
101666.757534
101665.889182
101604.645393
101265.487093
101158.909389
101338.842694
101407.125088
101406.884507
101394.792966
101387.01073
101419.965977
101496.431475
101539.599235
101554.538717
101552.761269
101553.824156
101429.232087
101623.986812
101623.239163
101622.39219
101621.889
101536.722994
101169.605824
100992.886743
101077.305783
101235.596113
101307.383125
101322.142636
101267.140769
101239.680837
101240.147848
101376.722556
101499.625403
101504.966113
101505.676309
101505.095607
101486.305756
101411.241739
101533.313457
101486.613164
101131.234459
100789.881851
100659.019672
100703.25164
100821.752727
100931.310071
101062.011599
101181.585588
101223.725291
101186.868434
101124.774043
101117.533279
101191.215464
101257.904074
101294.611237
101333.071393
101372.180312
101037.101892
101280.572269
100973.693698
100596.881702
100519.416034
100525.433644
100580.226831
100657.174358
100762.135398
100918.225314
101108.795711
101251.220933
101255.584246
101198.086479
101097.229287
100996.921061
100883.164208
100826.207062
100748.018007
100881.924224
100676.522688
100762.215985
100576.566072
100508.916238
100508.882354
100530.353234
100587.52996
100667.713241
100787.861031
100962.319999
101165.774833
101279.2226
101278.555954
101183.441629
100950.402807
100707.34304
100595.096902
100577.93762
100549.614784
100592.997873
100528.76519
100547.210555
100524.680258
100517.78279
100534.158346
100581.259675
100651.057163
100742.964143
100885.637194
101084.180813
101275.187393
101296.528927
101226.220482
100930.907771
100641.986981
100545.310074
100531.303563
100534.94965
100533.130279
100541.663383
100524.40175
100549.283146
100546.337464
100561.75782
100603.626111
100667.888793
100744.371754
100849.032709
101016.779983
101233.642392
101341.367323
101287.328
100983.582968
100637.159461
100532.856686
100528.450081
100528.518155
100529.847635
100531.970505
100531.889609
100559.715281
100598.755235
100612.450962
100637.239381
100681.731016
100741.320312
100816.328368
100936.311102
101129.000746
101344.698716
101358.958329
101203.998325
100768.925747
100545.565121
100529.120906
100529.239254
100529.160256
100529.286958
100534.717656
100532.6695
100632.042262
100655.298271
100676.504185
100701.418363
100733.601331
100779.604733
100850.088119
100972.24018
101165.5298
101364.340099
101370.183394
101125.391012
100683.446277
100532.156794
100529.708829
100529.575045
100529.706949
100529.704342
100549.039934
100558.411919
100713.241892
100666.122213
100701.906436
100737.684771
100765.92598
100807.391755
100880.997695
101011.42698
101210.449342
101373.950881
101303.846925
100947.151545
100591.848067
100529.652705
100529.526427
100529.662223
100529.560652
100529.673497
100581.48924
100714.690328
101040.494199
100717.771031
100733.161082
100756.295234
100785.510829
100838.96723
100942.436319
101097.432308
101214.974776
101146.804238
100886.241004
100624.438933
100531.971089
100528.971299
100529.12258
100528.990457
100529.157865
100534.264725
100617.84215
101169.405937
101569.305293
101221.755586
100911.36868
100785.956484
100785.209648
100825.533503
100863.545304
100870.022412
100793.808539
100641.83148
100566.288342
100530.29142
100528.339544
100528.466426
100528.361711
100528.510748
100533.763985
100585.709806
100854.850496
101470.487669
101700.179803
101685.997071
101505.468475
100940.083752
100653.86111
100688.869113
100638.255441
100593.092911
100554.04815
100530.339332
100528.760647
100528.668705
100528.804333
100528.731317
100528.842125
100536.3598
100586.98194
100770.042561
101250.494989
101572.793854
101639.987251
101787.949453
101782.079961
101441.531687
100600.432191
100574.903958
100550.116787
100536.940217
100529.682892
100529.694568
100529.64726
100529.705464
100529.662088
100531.134854
100546.4069
100596.320834
100753.64768
101161.35206
101525.236937
101672.81232
101516.449099
101812.756596
101833.324305
101744.321887
100638.590365
100559.730562
100557.304649
100557.762408
100552.324065
100547.394383
100544.955291
100546.838139
100553.750936
100574.391257
100629.926496
100762.01072
101099.583734
101484.765844
101691.536768
101791.606798
101613.988823
101848.659699
101857.862964
101767.433008
100712.014032
100564.175469
100576.46754
100599.28294
100614.288228
100617.290043
100615.173068
100622.761763
100646.650429
100706.457991
100831.308912
101078.117078
101401.211376
101666.087452
101814.027577
101814.734578
101820.519676
101875.990889
101877.077897
101825.21629
101057.777811
100579.574568
100586.082105
100617.156167
100665.053715
100720.250638
100759.052109
100769.499563
100829.514211
100950.598541
101138.131267
101352.203785
101560.600332
101794.3398
101834.893884
101834.71352
101886.06961
101889.70381
101890.975509
101884.69606
101712.478288
101024.438838
100593.658056
100592.311644
100653.758462
100763.487762
100933.195199
100924.116201
101028.209033
101177.144145
101356.901527
101513.555946
101652.258502
101827.66203
101848.777751
101848.506607
101900.370385
101900.527538
101900.650424
101900.406603
101892.860243
101755.332479
101029.235712
100540.064936
100610.845484
100723.158602
100927.521058
100985.171595
101125.152857
101318.67124
101508.863513
101648.666377
101756.947977
101853.481934
101857.909
101857.618304
101911.920521
101914.480673
101913.408422
101912.295376
101909.349494
101903.022778
101615.960086
100515.568007
100526.633578
100610.656599
100740.75471
100881.435934
101090.655558
101387.674994
101628.767308
101756.026599
101833.646399
101870.211748
101870.126284
101869.957465
101859.112699
101916.973359
101916.726587
101915.80422
101915.825637
101922.662503
101697.964514
100452.595322
100429.537927
100471.275491
100528.186211
100649.247917
100982.99692
101356.948893
101633.469742
101743.091071
101814.900082
101880.463405
101888.84317
101888.727406
101447.706323
101835.069958
101854.661373
101875.199683
101897.455549
101936.663371
101667.977185
100412.446264
100378.759955
100391.641468
100423.670234
100479.726666
100878.792783
101337.24399
101612.114077
101698.518892
101756.799927
101832.514325
101902.855795
101911.138391
100767.054278
101581.623843
101714.421231
101809.185135
101880.01026
101955.149718
101803.841023
100485.21823
100373.631628
100373.609665
100399.114333
100423.983935
100808.344656
101375.438826
101636.919366
101686.006363
101723.423847
101789.951182
101867.158853
101934.67264
100432.561509
101174.050185
101550.791317
101749.340537
101865.856862
101972.892381
101946.647129
100699.300086
100373.676845
100372.336961
100398.128406
100414.630245
100760.724635
101417.151034
101667.193723
101688.482527
101706.659793
101766.438563
101850.730779
101951.703585
100405.978504
100927.869526
101462.796976
101730.479837
101866.542951
101992.267061
101977.580695
100838.806435
100373.029644
100371.567511
100405.245207
100417.639436
100702.933524
101466.789781
101696.853225
101697.858463
101691.531298
101745.509676
101851.889219
101953.410366
100448.880216
100980.038022
101525.100886
101785.409198
101921.855566
102018.42935
101866.246656
100682.660657
100370.417376
100386.608861
100428.94207
100441.047404
100615.48429
101424.03869
101714.606478
101715.407541
101683.705678
101709.070519
101838.795937
101959.154412
100637.830201
101383.123002
101774.0426
101920.583742
101942.630718
101851.000139
100917.81323
100495.12766
100405.100104
100433.126878
100475.716113
100491.239048
100565.205454
101170.590314
101633.900636
101661.059426
101581.469634
101547.614892
101728.794199
101927.681485
101053.114821
101859.472055
101942.872552
101941.583883
101731.826317
100883.347065
100580.387235
100502.887617
100488.200809
100514.045626
100542.726454
100560.7386
100596.80217
100912.308953
101328.204637
101340.988449
101239.484765
101153.097582
101440.859799
101890.259796
101104.932818
101935.874013
101965.315273
101915.787492
100988.295864
100702.37647
100617.462699
100583.014413
100589.737072
100600.256207
100612.691914
100630.008391
100671.492419
100774.676962
100875.878496
100888.320636
100871.912883
100819.756032
101349.144617
101825.510038
101591.824792
101955.59377
101785.094071
101241.692945
100945.0992
100807.727971
100741.097685
100692.802134
100668.847663
100663.030735
100665.597202
100675.014322
100696.228849
100725.077242
100748.910724
100767.061076
100788.894336
100788.936515
101443.127996
101887.261783
101671.865067
101259.43096
101077.379831
101064.528568
101042.969008
101026.25585
100971.573853
100883.432701
100802.731287
100756.045266
100741.864438
100740.381144
100743.00767
100751.590022
100769.340172
100789.567601
100811.683353
100894.787715
101515.207372
101970.420647
101099.070797
100342.939551
100314.571513
100443.673547
100587.831801
100774.801942
101005.685772
101088.490121
101111.756326
101074.377755
101013.465067
100960.10536
100909.165445
100865.278258
100842.560692
100840.168914
100871.118936
101020.653318
101391.042841
101853.765916
100595.63624
100141.773628
100158.831912
100218.708261
100289.098601
100355.841773
100453.274968
100721.683517
101263.972952
101535.941368
101555.948511
101501.637876
101422.466103
101332.749304
101246.164104
101179.641585
101152.004444
101178.238644
101260.289713
101685.144291
100452.786167
100114.511698
100134.089702
100162.812514
100177.907156
100180.425321
100189.719973
100256.959211
100518.691005
101292.979533
101767.335836
101808.779244
101803.577515
101769.514294
101690.339608
101559.451233
101412.298934
101305.128216
101268.956493
101635.303486
)
;

boundaryField
{
    emptyPatch
    {
        type            empty;
    }
    minY
    {
        type            zeroGradient;
    }
    maxY
    {
        type            prghTotalPressure;
        U               U.gas;
        p0              uniform 100000;
        value           nonuniform List<scalar> 
20
(
100454.789569
100114.254003
100133.978218
100162.919026
100178.136422
100180.690432
100190.071456
100257.785835
100521.274576
101299.458131
101771.737738
101807.461184
101797.638144
101760.200652
101678.657193
101546.175067
101398.070175
101290.589755
101254.82954
101623.703558
)
;
    }
    maxX
    {
        type            fixedFluxPressure;
        gradient        uniform 0;
        value           nonuniform List<scalar> 
37
(
101013.152813
101011.331957
101148.635423
101429.232087
101486.305756
101372.180312
100881.924224
100592.997873
100541.663383
100531.889609
100532.6695
100558.411919
100714.690328
101169.405937
101470.487669
101572.793854
101672.81232
101791.606798
101814.734578
101834.71352
101848.506607
101857.618304
101869.957465
101888.727406
101911.138391
101934.67264
101951.703585
101953.410366
101959.154412
101927.681485
101890.259796
101825.510038
101887.261783
101970.420647
101853.765916
101685.144291
101635.303486
)
;
    }
    water_to_heater
    {
        type            fixedFluxPressure;
        gradient        nonuniform List<scalar> 0();
        value           nonuniform List<scalar> 0();
    }
    procBoundary2to1
    {
        type            processor;
        value           nonuniform List<scalar> 
20
(
101290.778495
101468.001688
101596.532275
101652.617011
101605.200507
101211.511833
100907.879949
100908.044215
100939.010962
100972.796072
101017.098484
101083.695345
101146.82686
101195.882202
101230.004316
101236.969152
101178.105552
101037.262235
101007.110863
101007.338652
)
;
    }
    procBoundary2to3
    {
        type            processor;
        value           nonuniform List<scalar> 
39
(
101152.530448
101421.299091
101648.292047
101663.947457
101580.480373
100915.932523
100728.996058
100594.934847
100515.739699
100506.806247
100535.555407
100535.555407
100625.035032
100758.247761
101456.476657
101667.324459
101556.528485
101027.227286
100666.207715
100718.526943
101479.770695
101870.082225
101900.082715
101900.082715
101903.114396
101530.359762
100705.137989
100394.547816
100380.554071
100405.891548
100463.181918
100499.675331
100517.552264
100641.706482
101078.368144
101669.510528
101390.366031
101217.953419
101312.998739
)
;
    }
}


// ************************************************************************* //
