/*--------------------------------*- C++ -*----------------------------------*\
| =========                 |                                                 |
| \\      /  F ield         | OpenFOAM: The Open Source CFD Toolbox           |
|  \\    /   O peration     | Version:  2312                                  |
|   \\  /    A nd           | Website:  www.openfoam.com                      |
|    \\/     M anipulation  |                                                 |
\*---------------------------------------------------------------------------*/
FoamFile
{
    version     2.0;
    format      ascii;
    arch        "LSB;label=32;scalar=64";
    class       volVectorField;
    location    "0.545/water";
    object      U.gas;
}
// * * * * * * * * * * * * * * * * * * * * * * * * * * * * * * * * * * * * * //

dimensions      [0 1 -1 0 0 0 0];

internalField   nonuniform List<vector> 
1497
(
(0.108296550201 1.24967268469 0)
(0.124528624057 1.2142126752 0)
(0.139374320171 1.18331275099 0)
(0.155498610811 1.15690168107 0)
(0.172789275463 1.13544827335 0)
(0.185530080124 1.11667380554 0)
(0.179663157625 1.08815214495 0)
(0.148874143804 1.03492745853 0)
(0.115066418544 0.960707249035 0)
(0.0982660053175 0.886013444656 0)
(0.0943460769941 0.823296165278 0)
(0.095158415776 0.770360865063 0)
(0.0972979668506 0.720687492312 0)
(0.0540501646834 1.72285560557 0)
(0.10697914229 1.57411954367 0)
(0.0946413067378 1.54138672931 0)
(0.0753795054071 1.53038540031 0)
(0.0640974458208 1.47417312502 0)
(0.0627588762278 1.38318922623 0)
(0.0705012887261 1.30042419747 0)
(0.0838879475635 1.24451115655 0)
(0.100616785071 1.20735085591 0)
(0.120898752373 1.17983653943 0)
(0.14417200529 1.16017358932 0)
(0.162246227173 1.1493802817 0)
(0.158636021275 1.13944633039 0)
(0.128972258992 1.1112989009 0)
(0.0946464299261 1.04803126634 0)
(0.0758020280004 0.961871125707 0)
(0.0704054663966 0.87844329176 0)
(0.0707773380156 0.8093646934 0)
(0.0742269920061 0.752231773105 0)
(0.0797222882998 0.70221381087 0)
(0.0571669378978 1.65572460632 0)
(0.107614031068 1.54337336057 0)
(0.0960704435347 1.52452053812 0)
(0.0883383378869 1.52208955793 0)
(0.0831686152657 1.47190827134 0)
(0.0787606076267 1.38459283918 0)
(0.0766054717165 1.2974544321 0)
(0.0801080202688 1.23022645307 0)
(0.0908126212412 1.18294495296 0)
(0.106957677391 1.15219591908 0)
(0.120350937931 1.13448081001 0)
(0.117502606884 1.12909590569 0)
(0.0979824553318 1.12170672871 0)
(0.0790709953419 1.09534301277 0)
(0.0698451247148 1.03367296224 0)
(0.065988323051 0.944260593728 0)
(0.064356657551 0.856574640254 0)
(0.0656325635851 0.783983688141 0)
(0.0703373312575 0.725126881969 0)
(0.0773572412063 0.676120882139 0)
(0.0735205174333 1.39921185671 0)
(0.145249039538 1.42288279426 0)
(0.143170730547 1.44586713769 0)
(0.142035722406 1.46507155106 0)
(0.137643203375 1.44274028505 0)
(0.127153040013 1.37773653686 0)
(0.11268855155 1.29519682464 0)
(0.100910196931 1.21858839414 0)
(0.0961678955545 1.15637134937 0)
(0.0959704277593 1.11656324854 0)
(0.0929004129824 1.09653758416 0)
(0.0841138813015 1.09210065275 0)
(0.0777191274007 1.08624289355 0)
(0.0787177969855 1.06311727045 0)
(0.0814775133263 1.00747519054 0)
(0.0813724263234 0.922431372626 0)
(0.0799836890592 0.834353033421 0)
(0.0808035173467 0.760287521772 0)
(0.0847690190375 0.701259011535 0)
(0.0907367233845 0.653071495611 0)
(0.0614802016638 1.05509197168 0)
(0.124480023562 1.28471369885 0)
(0.126865865227 1.36476152323 0)
(0.129381171795 1.40497085131 0)
(0.13112034271 1.4116117119 0)
(0.126062504586 1.3808291997 0)
(0.112358864219 1.31314981659 0)
(0.0994094700913 1.22105278801 0)
(0.0941415144459 1.14307128563 0)
(0.0934954881828 1.09394380329 0)
(0.0930216699514 1.07107902298 0)
(0.0923937946265 1.06769193154 0)
(0.0947140718363 1.06328323847 0)
(0.0984623341268 1.04133684563 0)
(0.100158074906 0.989443805398 0)
(0.0996615875575 0.909253256287 0)
(0.0994449505615 0.822306460752 0)
(0.101474941107 0.747726816646 0)
(0.105115606595 0.688374284565 0)
(0.10952282246 0.640455886482 0)
(0.0448232833222 0.86561381677 0)
(0.0902631818174 1.19680253334 0)
(0.0916433910876 1.30937825047 0)
(0.0935842534255 1.36089447479 0)
(0.0950329771373 1.38620516468 0)
(0.0931782190062 1.38727428156 0)
(0.0864158662969 1.34364333701 0)
(0.0829994718722 1.22320917831 0)
(0.0877248906033 1.13384173889 0)
(0.0947070095174 1.0800926622 0)
(0.10020119361 1.0556077284 0)
(0.10404648327 1.05313934509 0)
(0.107715350443 1.04967102128 0)
(0.110283329759 1.02800137311 0)
(0.110724258786 0.979208607805 0)
(0.11081658788 0.902660472177 0)
(0.112971427624 0.818000536636 0)
(0.116926303209 0.744300517638 0)
(0.121067626663 0.685208348318 0)
(0.124807131523 0.637811149048 0)
(0.0388139811048 0.808507627217 0)
(0.0754507577318 1.14674968014 0)
(0.0720094375261 1.27633236704 0)
(0.0703382188347 1.33775535303 0)
(0.0695265374658 1.37386061783 0)
(0.0684614565504 1.38864591777 0)
(0.0696222794085 1.35161485535 0)
(0.0767290280248 1.20767149092 0)
(0.087601288076 1.1181197836 0)
(0.0976281081261 1.06545809529 0)
(0.104553685569 1.04111120402 0)
(0.108869681578 1.03864710998 0)
(0.111896570834 1.03640761763 0)
(0.11348565101 1.01566950081 0)
(0.113702540913 0.968863410858 0)
(0.115147529628 0.895669025956 0)
(0.119772371984 0.815371597092 0)
(0.125784007231 0.744865815165 0)
(0.131166989943 0.687879585726 0)
(0.13527424143 0.642330881319 0)
(0.0356834091767 0.795511589179 0)
(0.0676249343326 1.1264504324 0)
(0.060027025103 1.26751444543 0)
(0.0530519215837 1.33562532046 0)
(0.0471252723896 1.37499252889 0)
(0.0431034018744 1.38754704972 0)
(0.0532410844276 1.30035911165 0)
(0.0722840744317 1.17507819482 0)
(0.0867514038984 1.09668786906 0)
(0.098406788113 1.04974422284 0)
(0.105853819443 1.02759782701 0)
(0.109453680504 1.02566410547 0)
(0.110633904872 1.02470537315 0)
(0.110641207531 1.00408659596 0)
(0.111171596956 0.957326319131 0)
(0.115081405535 0.887593431981 0)
(0.122694323101 0.813572918318 0)
(0.13109494086 0.748439119197 0)
(0.138029460773 0.695561439239 0)
(0.142560483274 0.652832318425 0)
(0.0347809871487 0.79936757947 0)
(0.0649721533402 1.12786697099 0)
(0.0536242171584 1.28733562891 0)
(0.0415141034457 1.35733544743 0)
(0.032408861527 1.39020932766 0)
(0.0345356745618 1.36190398914 0)
(0.0497432325178 1.22716428382 0)
(0.0678753661953 1.13883082285 0)
(0.0841226278679 1.07515020817 0)
(0.0965921610927 1.03627876844 0)
(0.103886191015 1.01787352773 0)
(0.106035029169 1.01714818689 0)
(0.105326840534 1.01651818242 0)
(0.104961841289 0.994795398367 0)
(0.107599148936 0.947477460665 0)
(0.114905810364 0.88206537027 0)
(0.125384958676 0.815039016738 0)
(0.135743061085 0.756525226299 0)
(0.143323107911 0.708773539309 0)
(0.146890515631 0.668321916228 0)
(0.0213429579966 0.886974200442 0)
(0.0379936376124 1.15853426195 0)
(0.026580795045 1.3315077467 0)
(0.015737204339 1.39007020408 0)
(0.0137151894367 1.38825389728 0)
(0.0281260209491 1.28897896492 0)
(0.048911490088 1.17966185817 0)
(0.0660758458438 1.10960825024 0)
(0.0817750056621 1.05853368364 0)
(0.0932504425611 1.02763455475 0)
(0.0992397714224 1.01333619848 0)
(0.099957704549 1.01373416062 0)
(0.0989873705998 1.01217425586 0)
(0.100538912528 0.988938040298 0)
(0.106510284201 0.942012306488 0)
(0.116943012216 0.881523144207 0)
(0.12944911515 0.821700064763 0)
(0.140255926237 0.770165726198 0)
(0.145970250422 0.72634967148 0)
(0.146202842832 0.6865020065 0)
(0.00581199639828 1.14117741535 0)
(0.00503339369239 1.22260828512 0)
(-0.00190082171271 1.36000476443 0)
(0.00329372239886 1.38252855182 0)
(0.0186665699651 1.33697262043 0)
(0.0353382104066 1.22657087889 0)
(0.0502812664252 1.14975868858 0)
(0.066157817868 1.09079472629 0)
(0.0798146905389 1.0497704258 0)
(0.0892641160234 1.02568913187 0)
(0.0937045184688 1.01488167992 0)
(0.0940185113513 1.01535267926 0)
(0.0945882422491 1.01131851076 0)
(0.0991285621188 0.986807079788 0)
(0.108194688027 0.941606344277 0)
(0.120787361388 0.886688078277 0)
(0.133587652288 0.834162330782 0)
(0.141456531898 0.787737579298 0)
(0.142144389669 0.745104807868 0)
(0.138429722295 0.704929802057 0)
(0.0139863812573 1.43479062331 0)
(0.019808232772 1.30673245607 0)
(0.0125244048127 1.35883936216 0)
(0.0172482036828 1.34658696396 0)
(0.0262129937526 1.2860763099 0)
(0.0381826828609 1.20212839093 0)
(0.0524488880631 1.13332466311 0)
(0.0665702952373 1.08356034818 0)
(0.0780568328245 1.05111119214 0)
(0.0855721494905 1.03232040901 0)
(0.0889344441508 1.02342800721 0)
(0.0899658780162 1.02210911554 0)
(0.0928828922158 1.01419678397 0)
(0.0999323667477 0.988566343883 0)
(0.110770292552 0.946130708559 0)
(0.12340716095 0.89722202665 0)
(0.132564987596 0.850126663454 0)
(0.134118145489 0.80530789375 0)
(0.130191783999 0.762655123267 0)
(0.124518434819 0.722339601072 0)
(0.0271474111801 1.62577027813 0)
(0.0470597833077 1.39727632261 0)
(0.035793572659 1.3737393127 0)
(0.0315252182705 1.34318442381 0)
(0.0344789537191 1.27693902305 0)
(0.0435801220462 1.19389098146 0)
(0.0561176644096 1.13065170232 0)
(0.0684377135958 1.0892351143 0)
(0.0775980766233 1.06430280203 0)
(0.0826558901043 1.04885433914 0)
(0.084815702875 1.03946738314 0)
(0.0869380994553 1.03409526743 0)
(0.0917900207383 1.02128069833 0)
(0.0997689669258 0.99420008418 0)
(0.109842601472 0.954434665745 0)
(0.118413600796 0.909905268543 0)
(0.120895965694 0.864752218855 0)
(0.117782768767 0.820121030903 0)
(0.11245363817 0.777727179434 0)
(0.106390960499 0.737429766864 0)
(0.0404377219025 1.71555814695 0)
(0.0753816796802 1.48640520639 0)
(0.0608375962626 1.42745101709 0)
(0.0471770542891 1.37993416604 0)
(0.0431484289861 1.29547065728 0)
(0.0485706015002 1.20369582451 0)
(0.0590781207074 1.14096544294 0)
(0.0685987247008 1.10662856982 0)
(0.074397644597 1.08693759589 0)
(0.0775749582962 1.07272937923 0)
(0.0797103692521 1.06075932326 0)
(0.0824370340524 1.04916444522 0)
(0.0870908825148 1.03039417237 0)
(0.0932944979384 1.00076840194 0)
(0.0992181476662 0.962056554896 0)
(0.101896898371 0.919168031226 0)
(0.10046817239 0.874636749879 0)
(0.0966676577573 0.830581243652 0)
(0.0918658226306 0.788455345659 0)
(0.086435665846 0.748181975534 0)
(0.0468541252619 1.7515904975 0)
(0.0887918614148 1.56830347424 0)
(0.0718845697756 1.50488927349 0)
(0.0520656063224 1.44649122599 0)
(0.0425217649475 1.33659189165 0)
(0.043969362526 1.22770479272 0)
(0.0508364517122 1.16049317539 0)
(0.0568835538898 1.13015715889 0)
(0.0611650431394 1.11255176489 0)
(0.0648889461729 1.09759823275 0)
(0.0681986614554 1.08176897288 0)
(0.0712367643293 1.06306050942 0)
(0.0741811451593 1.0374139271 0)
(0.0770088782648 1.00398114706 0)
(0.0790614879779 0.964769729338 0)
(0.0792506862267 0.922462621398 0)
(0.0776351068244 0.878788859116 0)
(0.0748968776496 0.835211736579 0)
(0.0714933095827 0.793181019327 0)
(0.0672073151416 0.752864736298 0)
(0.0497631763044 1.78005480542 0)
(0.0926158083142 1.63984000103 0)
(0.0717252591671 1.59323455579 0)
(0.0477079147854 1.52911125334 0)
(0.0332519726444 1.39362180136 0)
(0.0288860121318 1.26556144456 0)
(0.0303809122441 1.18926273268 0)
(0.0338816238343 1.15670308099 0)
(0.0387890453468 1.1377204636 0)
(0.0443140227833 1.12005017531 0)
(0.048847097262 1.09925383744 0)
(0.051590234778 1.07310968857 0)
(0.0530066814838 1.0398332471 0)
(0.0543054604256 1.00166309159 0)
(0.0555914317857 0.961295397144 0)
(0.0562084300058 0.919440939445 0)
(0.0561236176295 0.876443964491 0)
(0.0554342553731 0.833212229475 0)
(0.0539905434758 0.791257617916 0)
(0.0508767107846 0.75087584703 0)
(0.0516981609615 1.78712838038 0)
(0.0925772197563 1.6857576564 0)
(0.0701892201293 1.665285316 0)
(0.0506012473369 1.5970709618 0)
(0.0365765678606 1.44898239262 0)
(0.0263565724259 1.31069149361 0)
(0.0198718558868 1.22435312773 0)
(0.0176565681566 1.18235218635 0)
(0.0196561405213 1.1575321839 0)
(0.0236732786603 1.13512211857 0)
(0.0268345017083 1.10860692209 0)
(0.0282745587607 1.07497284734 0)
(0.0293378180084 1.0339833363 0)
(0.0314155015471 0.990353586573 0)
(0.0341636439525 0.948754282501 0)
(0.0369663571437 0.907938849039 0)
(0.0397528662105 0.866395160186 0)
(0.0419403505069 0.824315021224 0)
(0.0425944539112 0.783093549401 0)
(0.0404406441513 0.743154781474 0)
(0.0582990837474 1.69184606402 0)
(0.106648367761 1.67235729935 0)
(0.093505044457 1.67356720584 0)
(0.0875965570447 1.61167389016 0)
(0.0792354807777 1.47660605366 0)
(0.0656050921149 1.34424007198 0)
(0.0498230200874 1.25217426634 0)
(0.036496472567 1.19776793987 0)
(0.0279307540116 1.1631848272 0)
(0.023136381662 1.13420759814 0)
(0.020261681236 1.10208823673 0)
(0.0190033531181 1.06268609107 0)
(0.0199128914528 1.01635925821 0)
(0.0226571613005 0.968413039248 0)
(0.0264985953101 0.925480207115 0)
(0.0312548901679 0.88741079955 0)
(0.036485534553 0.849251523451 0)
(0.0407732541509 0.810034055139 0)
(0.0424723976302 0.770901894691 0)
(0.0403490008838 0.732349413313 0)
(0.071254378719 1.39571484146 0)
(0.145455129943 1.56908610721 0)
(0.153295219279 1.60310617958 0)
(0.157228548488 1.58365253067 0)
(0.148786862646 1.49169135563 0)
(0.129669548744 1.37879457453 0)
(0.105781244823 1.28404121214 0)
(0.0838384637108 1.21362141772 0)
(0.0669349343001 1.16561097869 0)
(0.054598886865 1.12740306413 0)
(0.0463693852824 1.08873286992 0)
(0.0421077763471 1.04456735871 0)
(0.0411775434078 0.995195647154 0)
(0.0424935376468 0.945022819875 0)
(0.0453645885624 0.900355132176 0)
(0.0495430952557 0.864864829649 0)
(0.0543295375002 0.830884239118 0)
(0.0578913445369 0.795536529358 0)
(0.0580935354561 0.759401412774 0)
(0.0537385245435 0.722656419231 0)
(0.053702090866 1.06598939555 0)
(0.125938648784 1.35976334746 0)
(0.151245100652 1.48856941848 0)
(0.162597462141 1.52407038189 0)
(0.165946944601 1.49493015801 0)
(0.155402635446 1.43013486315 0)
(0.131330781276 1.35531831881 0)
(0.108582625289 1.24724777313 0)
(0.0953214469772 1.18129135656 0)
(0.0866342875865 1.13203829896 0)
(0.0814212437304 1.08583183076 0)
(0.0790948095711 1.03683505256 0)
(0.0789385046105 0.984853677483 0)
(0.080522379215 0.933144594479 0)
(0.0836117834521 0.886746061856 0)
(0.0875309840586 0.851588229202 0)
(0.0908735787058 0.820156726005 0)
(0.0917892978104 0.787766730951 0)
(0.0881807825318 0.754131615224 0)
(0.0790600358117 0.71845568472 0)
(0.0420760643246 0.891993000488 0)
(0.0898955057516 1.19066656048 0)
(0.101639908662 1.37854623429 0)
(0.106633293129 1.47682912339 0)
(0.102604085678 1.49501427352 0)
(0.096610822603 1.46864886505 0)
(0.0985505441873 1.38577438168 0)
(0.104386127438 1.26814247977 0)
(0.105533114775 1.19568445527 0)
(0.10626150291 1.14105733109 0)
(0.107786148299 1.09081230988 0)
(0.110275671696 1.03944388491 0)
(0.113669758782 0.986494475395 0)
(0.118182397956 0.934378708769 0)
(0.124057497041 0.887402751331 0)
(0.130306747513 0.851971803049 0)
(0.134236630516 0.821272306632 0)
(0.133476401527 0.790278745577 0)
(0.125554910394 0.757629793792 0)
(0.110505019202 0.721220669454 0)
(0.0128012351854 0.955479947722 0)
(0.0278841246936 1.15598919134 0)
(0.0335351346347 1.30603951637 0)
(0.0414325899269 1.44615376203 0)
(0.0494080656678 1.48492025477 0)
(0.063901767441 1.43457299624 0)
(0.0837251108182 1.33843635509 0)
(0.0984651601387 1.25305342516 0)
(0.108953651538 1.19079055011 0)
(0.117390338158 1.13992486572 0)
(0.125027673838 1.09185041644 0)
(0.132520558638 1.04264692599 0)
(0.140386249316 0.992110985932 0)
(0.149411112029 0.942404131103 0)
(0.160282651194 0.897816070079 0)
(0.171022437059 0.863505156409 0)
(0.1772582375 0.832685200622 0)
(0.175518027907 0.801666347565 0)
(0.162235748568 0.767000029455 0)
(0.142001210085 0.727377432849 0)
(0.00329025851857 1.23101038295 0)
(0.0028256048302 1.18444965014 0)
(0.00187291142263 1.26919754578 0)
(0.0131751680925 1.387388242 0)
(0.0315423888217 1.42905151786 0)
(0.0501610634804 1.36463205751 0)
(0.0681962476018 1.28945362225 0)
(0.0861407502539 1.22328708655 0)
(0.102628932189 1.17184412464 0)
(0.117674446455 1.12852737089 0)
(0.131797372187 1.08693100259 0)
(0.145644560858 1.04387554879 0)
(0.160118889166 0.999306740274 0)
(0.176408565656 0.955480071749 0)
(0.194115492822 0.915988644079 0)
(0.208802919038 0.882345523695 0)
(0.215719015016 0.849812613654 0)
(0.209316976392 0.814926021174 0)
(0.189971955592 0.773870581868 0)
(0.171367640381 0.729460568299 0)
(0.0151394964467 1.47564851664 0)
(0.0227702269439 1.2517794515 0)
(0.0136544624162 1.26179985422 0)
(0.0170208406124 1.3386502987 0)
(0.0287207338543 1.37328429759 0)
(0.0432862441083 1.32392368317 0)
(0.0601330096814 1.25531198056 0)
(0.078639202942 1.19634399012 0)
(0.0977936674259 1.15174689809 0)
(0.117247024414 1.11594953015 0)
(0.13712956193 1.08250944226 0)
(0.157827853662 1.04769002223 0)
(0.179883755546 1.01065672195 0)
(0.20256697725 0.973077181717 0)
(0.222402725202 0.93652806577 0)
(0.235853307554 0.900628532278 0)
(0.236859875975 0.862194026156 0)
(0.222386502108 0.817842199782 0)
(0.205885976084 0.76861716445 0)
(0.200823732167 0.719604529562 0)
(0.029271309968 1.58831637852 0)
(0.0534206844378 1.32991922143 0)
(0.0425765279745 1.28692978325 0)
(0.0378038068901 1.3272158981 0)
(0.0427551219585 1.35171574689 0)
(0.0529030318711 1.30293878107 0)
(0.0669251510802 1.23480141879 0)
(0.0841040130644 1.17801300918 0)
(0.103979850754 1.1379649038 0)
(0.1260844474 1.10919904131 0)
(0.149722160697 1.08281013087 0)
(0.17391910226 1.05431387132 0)
(0.196892719866 1.02207112753 0)
(0.216863341888 0.986939311175 0)
(0.232331984763 0.948903111997 0)
(0.236713907212 0.906323836631 0)
(0.227068434122 0.857808012898 0)
(0.215846629375 0.803680060133 0)
(0.215626456391 0.747757317929 0)
(0.229467145083 0.696683320442 0)
(0.0407421437325 1.62028944294 0)
(0.0814360489575 1.39862460224 0)
(0.073343027461 1.33652061714 0)
(0.0625433683276 1.35040695841 0)
(0.0612895288598 1.35599659023 0)
(0.0683258600664 1.29690970767 0)
(0.0816033280179 1.22459535718 0)
(0.0987092756088 1.16771870422 0)
(0.118514044734 1.13106670785 0)
(0.139458304118 1.10697488793 0)
(0.159575570057 1.08405422298 0)
(0.178119919611 1.05790128665 0)
(0.195277568378 1.02669726561 0)
(0.208345637103 0.98967771708 0)
(0.210815499297 0.945309732247 0)
(0.204339352366 0.894027764085 0)
(0.199994042318 0.837008326299 0)
(0.204236138932 0.776375232559 0)
(0.22072936496 0.717867621593 0)
(0.25239814939 0.668197368857 0)
(0.0453753998765 1.63279528419 0)
(0.0930570457373 1.46477762508 0)
(0.0856719682892 1.4064642476 0)
(0.070011160162 1.40806452399 0)
(0.0649575737399 1.38097472164 0)
(0.0725041121132 1.29863335961 0)
(0.0875034337945 1.21994367449 0)
(0.104132208186 1.16311364036 0)
(0.120200154101 1.12914358215 0)
(0.134976684618 1.10652102879 0)
(0.148246219252 1.08375825341 0)
(0.159386634079 1.05679067583 0)
(0.16554347033 1.02254006875 0)
(0.164806772472 0.979784429438 0)
(0.162358350049 0.927627128728 0)
(0.165016140051 0.869642141169 0)
(0.173544641691 0.807418760387 0)
(0.191352189006 0.745150792953 0)
(0.223711279419 0.688391343612 0)
(0.26441543641 0.63835350667 0)
(0.0447156029131 1.68036610645 0)
(0.0886152963653 1.55527040707 0)
(0.0751439854369 1.51101305103 0)
(0.0527711258557 1.50496863062 0)
(0.0442045434938 1.42125951642 0)
(0.052202297098 1.30530930313 0)
(0.0659513446253 1.21806072942 0)
(0.0785793809295 1.16094319237 0)
(0.0890831438174 1.12791732642 0)
(0.0969985456641 1.10446754771 0)
(0.101398522172 1.07908092578 0)
(0.102607068053 1.04891533484 0)
(0.103010249889 1.00967653578 0)
(0.106403955999 0.960031390975 0)
(0.115247261745 0.901371652518 0)
(0.128958874344 0.839280320494 0)
(0.149569974447 0.776460870572 0)
(0.181261592534 0.716042168736 0)
(0.219306404674 0.659097118994 0)
(0.257364337845 0.605764061843 0)
(0.0512722184802 1.76941445492 0)
(0.0893929563111 1.68264467897 0)
(0.0533378593805 1.6699576734 0)
(0.0142470587334 1.64360191812 0)
(-0.00444239113963 1.47814745272 0)
(-0.00467876698762 1.32382890733 0)
(0.00053325354656 1.22232515842 0)
(0.00646252239493 1.1586259614 0)
(0.0118982720476 1.12112730152 0)
(0.0164945016086 1.09355567359 0)
(0.0214944599145 1.06408128822 0)
(0.0286945957349 1.02972689466 0)
(0.0393194493883 0.986466079063 0)
(0.0539541990833 0.931966665029 0)
(0.0733456934296 0.869577804122 0)
(0.0986867652574 0.807609441999 0)
(0.129809870658 0.746206318033 0)
(0.163038655695 0.684792526264 0)
(0.19562104341 0.625620623439 0)
(0.205956078355 0.568746311249 0)
(0.0566949632876 1.80590560733 0)
(0.0812268874634 1.8284615346 0)
(0.0218575370715 1.85256172421 0)
(-0.0241068285357 1.78273088395 0)
(-0.0538824250893 1.54498526829 0)
(-0.0735459621875 1.36068449118 0)
(-0.0870911037332 1.23993360234 0)
(-0.0912337543402 1.15682462862 0)
(-0.0850249070034 1.10325399238 0)
(-0.0716133816115 1.06621225647 0)
(-0.0543969475435 1.03153729287 0)
(-0.0349812581472 0.994044929708 0)
(-0.0134505045316 0.94970594636 0)
(0.0115211927724 0.895227247337 0)
(0.040326704028 0.83369001108 0)
(0.0703704789893 0.773408475194 0)
(0.0988609577027 0.710941055425 0)
(0.126456393756 0.648671953515 0)
(0.14001064944 0.589115151342 0)
(0.107775456659 0.536204364777 0)
(0.0589018738276 1.65080565429 0)
(0.0955923679023 1.91007502676 0)
(0.0586372602482 1.95630947977 0)
(0.0241947833531 1.88669049179 0)
(-0.0177679159403 1.62738348923 0)
(-0.063052369952 1.42633680397 0)
(-0.10507879885 1.28033350485 0)
(-0.132777739553 1.16316457204 0)
(-0.137250179354 1.07584279113 0)
(-0.122196727237 1.02179218757 0)
(-0.0987420810348 0.980207899772 0)
(-0.0727975788596 0.942958213751 0)
(-0.0454955510631 0.901736654762 0)
(-0.0174073579034 0.851098255293 0)
(0.00952833860725 0.792902068598 0)
(0.0339468892745 0.734318379776 0)
(0.0575197799904 0.67330513409 0)
(0.0744365337707 0.614935383015 0)
(0.0578460147609 0.561541780516 0)
(0.00930988955071 0.533026639739 0)
(0.0370350484209 1.38102910455 0)
(0.081996224849 1.82337348295 0)
(0.0960575747275 1.90177861208 0)
(0.10589939418 1.8748441196 0)
(0.0950862156884 1.70056464722 0)
(0.0525362648601 1.54545156008 0)
(-0.0111218666913 1.40438462121 0)
(-0.0722140888285 1.21889263527 0)
(-0.107049965662 1.06477594481 0)
(-0.112601990787 0.980599600797 0)
(-0.0995173376313 0.926847888619 0)
(-0.079455543352 0.888902053544 0)
(-0.0575435971879 0.85162745781 0)
(-0.0362179238185 0.80600024784 0)
(-0.0166332343358 0.754105587321 0)
(0.00225316509555 0.700621464693 0)
(0.0195504391641 0.645291378667 0)
(0.0175172912567 0.594452373321 0)
(-0.0151736135901 0.55927888313 0)
(-0.0567079813166 0.563738083933 0)
(0.0281797534651 1.16960880823 0)
(0.0648655918947 1.65646214462 0)
(0.0809457025678 1.77375619191 0)
(0.0936746855695 1.77942398985 0)
(0.0977305813374 1.71552993691 0)
(0.0889999852837 1.63898994587 0)
(0.0656479423503 1.54575460207 0)
(0.0176220546822 1.36676798682 0)
(-0.0357661384391 1.11296280242 0)
(-0.0643101823645 0.972520309757 0)
(-0.0698879366421 0.894524670011 0)
(-0.0631407012969 0.848818811501 0)
(-0.0524405379556 0.813505944096 0)
(-0.0400405809846 0.773582908754 0)
(-0.0268798599523 0.729383594435 0)
(-0.0140858223923 0.683099915514 0)
(-0.00787869432575 0.635255723637 0)
(-0.0235644992552 0.594414316026 0)
(-0.059219226631 0.584166092052 0)
(-0.0943558243481 0.60791767698 0)
(0.0213237727569 1.04082224499 0)
(0.0482028686243 1.53135590122 0)
(0.0602516472725 1.66982961454 0)
(0.0730324164201 1.7030247665 0)
(0.0827139316126 1.68723777107 0)
(0.0857031144317 1.65528412121 0)
(0.080225013858 1.6078891681 0)
(0.0650534528441 1.4993755259 0)
(0.0265859273886 1.24801867123 0)
(-0.0140124265025 1.00655033013 0)
(-0.030391546664 0.894748986249 0)
(-0.0346476991866 0.834587158242 0)
(-0.0332777197103 0.796924090887 0)
(-0.0285748624571 0.760972830744 0)
(-0.0216780877343 0.723097707367 0)
(-0.0155464788435 0.683374067826 0)
(-0.0188783744243 0.643128203599 0)
(-0.0406064218354 0.612409441507 0)
(-0.0750576277439 0.625976216777 0)
(-0.108935617796 0.654655085489 0)
(0.0179914423209 0.968246122637 0)
(0.039400550556 1.44006221106 0)
(0.047367538582 1.58761168533 0)
(0.0563394688845 1.63746002649 0)
(0.0637612203196 1.65022488956 0)
(0.0676288429904 1.64807735959 0)
(0.0668183134219 1.63087405657 0)
(0.0594304452342 1.55513657095 0)
(0.043591156828 1.37490773004 0)
(0.0228088956989 1.06601230397 0)
(0.00645536110283 0.922024043823 0)
(-0.00173948065252 0.844925733203 0)
(-0.00549979270081 0.800354558406 0)
(-0.00633131435392 0.765511438446 0)
(-0.0046642163642 0.731882148633 0)
(-0.00365864834801 0.697302372253 0)
(-0.0125315494413 0.663659449356 0)
(-0.0366212704326 0.640323324684 0)
(-0.069383029044 0.672850956541 0)
(-0.102148212732 0.701385897573 0)
(0.0162104345915 0.922690407718 0)
(0.0352204742491 1.36877145871 0)
(0.0419270304539 1.52020383025 0)
(0.049017810697 1.58511908876 0)
(0.0543817028817 1.6164604544 0)
(0.0575971318781 1.63294366322 0)
(0.0586081541104 1.63404148574 0)
(0.0578838344023 1.58033273015 0)
(0.0543081097063 1.425103378 0)
(0.0455315680103 1.12454914777 0)
(0.0353560360056 0.961821753684 0)
(0.02889328257 0.871154650763 0)
(0.0253097724048 0.817933084206 0)
(0.0228529896993 0.781961603924 0)
(0.0213170372973 0.750418164289 0)
(0.0191549850504 0.719226671129 0)
(0.00777092805731 0.690438381611 0)
(-0.0174943223388 0.671044925784 0)
(-0.0489121241623 0.714813091867 0)
(-0.0781128396529 0.74201775831 0)
(0.0147183343824 0.894100882486 0)
(0.031894275848 1.30924817014 0)
(0.0383178483336 1.46038733151 0)
(0.0452115618325 1.54097971745 0)
(0.0492747293069 1.58920158656 0)
(0.0509110541467 1.61705905176 0)
(0.0523035876688 1.62490631733 0)
(0.055709305773 1.5753523116 0)
(0.0604729243508 1.43633144059 0)
(0.0612546077364 1.16409944966 0)
(0.0579841650788 1.00122552053 0)
(0.0554633379283 0.904164758763 0)
(0.054743081914 0.844150622042 0)
(0.0538268344995 0.806139149944 0)
(0.0515960822931 0.774901872016 0)
(0.047873672721 0.745275399372 0)
(0.0355066032999 0.719164539946 0)
(0.00901858401916 0.701380552242 0)
(-0.0219940664577 0.746933698415 0)
(-0.0467196366617 0.770904305729 0)
(0.0125056920377 0.88596415542 0)
(0.0260396108906 1.26637937666 0)
(0.030221450663 1.41179179018 0)
(0.0361799209964 1.50550448927 0)
(0.0393459563257 1.57209239258 0)
(0.0396770183125 1.60679980918 0)
(0.0416947159481 1.61028916158 0)
(0.0491415756527 1.55225244243 0)
(0.0629841121312 1.41120959427 0)
(0.0737714639599 1.18107713257 0)
(0.0766791325627 1.03335506293 0)
(0.0782555576902 0.937439483741 0)
(0.0808571104145 0.874528140333 0)
(0.0825139897258 0.835083560879 0)
(0.0812865401111 0.803427978324 0)
(0.0773161613977 0.774036132493 0)
(0.06420423943 0.74892431299 0)
(0.0357264581514 0.731270688227 0)
(0.00397056818778 0.769779207859 0)
(-0.0170556706522 0.787576432538 0)
(0.100240907239 0.672562223338 0)
(0.104407270875 0.630628000243 0)
(0.110301454356 0.598528589657 0)
(0.118611230775 0.568094161016 0)
(0.129793222897 0.52974807548 0)
(0.142119976329 0.481460009547 0)
(0.150846209844 0.431324023416 0)
(0.153186132183 0.38042023226 0)
(0.152556573874 0.3243328615 0)
(0.15082055711 0.263775253148 0)
(0.135970116363 0.206105526696 0)
(0.100579412508 0.154270931132 0)
(0.06637177654 0.120697599708 0)
(0.0494121235734 0.0893969829959 0)
(0.041977132453 0.0511402251555 0)
(0.0377822599515 0.0142803742879 0)
(0.0316562080355 -0.0170725164643 0)
(0.0183182446599 -0.0320012457813 0)
(-0.00625202374241 -0.0819880893522 0)
(-0.0110397083408 -0.16928007389 0)
(0.0865934660247 0.655452727032 0)
(0.0942880076006 0.613167176875 0)
(0.102772245197 0.576560794742 0)
(0.113051697478 0.541535543882 0)
(0.126054487429 0.501613123039 0)
(0.141127761483 0.455872828064 0)
(0.153198027235 0.411887432408 0)
(0.155900993173 0.372716959768 0)
(0.149764567484 0.329122926856 0)
(0.137075781336 0.279854722754 0)
(0.116906279297 0.231807789238 0)
(0.094049398653 0.189982322606 0)
(0.0759695130113 0.151350451387 0)
(0.0645880031624 0.108209169196 0)
(0.0577043298129 0.0566682708364 0)
(0.0500643594227 0.00758509537683 0)
(0.038046795016 -0.0224628563857 0)
(0.0219681905575 -0.0230638446084 0)
(-0.00660744976131 -0.0581027461448 0)
(-0.0131423905305 -0.141628237409 0)
(0.0856118866212 0.632422445104 0)
(0.0943968350436 0.592411962694 0)
(0.103339600338 0.555310275485 0)
(0.113251246935 0.518667985823 0)
(0.125591335009 0.479021592039 0)
(0.140316112536 0.435722898787 0)
(0.15214346122 0.394616400764 0)
(0.152047077278 0.364523356842 0)
(0.139867262236 0.334807382948 0)
(0.123577423715 0.299323438755 0)
(0.106988652874 0.262623177171 0)
(0.0909632872282 0.226592046244 0)
(0.0775891762123 0.186692407041 0)
(0.0691444682759 0.135956474075 0)
(0.0640702544095 0.0751389025639 0)
(0.0562354235095 0.0184112663013 0)
(0.0405954892127 -0.0162722244672 0)
(0.0205837514826 -0.0159623614591 0)
(-0.0114262725404 -0.0314403288906 0)
(-0.01677858828 -0.109921236715 0)
(0.0977207116691 0.61199780736 0)
(0.105248470012 0.574565140327 0)
(0.112720639751 0.53862695877 0)
(0.1203199296 0.502398747062 0)
(0.129485954787 0.464169782029 0)
(0.141999017866 0.423711635185 0)
(0.154236801961 0.385623657756 0)
(0.152802991096 0.361288495915 0)
(0.134739893703 0.343908704154 0)
(0.114369009632 0.320409014569 0)
(0.0982311319948 0.291696621229 0)
(0.0839257832442 0.260300899962 0)
(0.073152251749 0.219832020191 0)
(0.0687551809618 0.162566811217 0)
(0.0676682707672 0.0952465643063 0)
(0.0626777067268 0.0362696907518 0)
(0.0458953519687 0.0014010350534 0)
(0.0187245344558 -0.00751045802729 0)
(-0.0195088388597 -0.01268575731 0)
(-0.0215025658265 -0.0777368142024 0)
(0.114498599658 0.600742483541 0)
(0.119873635413 0.564963469623 0)
(0.12501286933 0.530207250634 0)
(0.1300927926 0.494975217817 0)
(0.136295287146 0.458675679525 0)
(0.146235729198 0.421451302799 0)
(0.158074075449 0.386326205577 0)
(0.155208928042 0.365590972444 0)
(0.131881061355 0.357723664993 0)
(0.107112108703 0.343210596232 0)
(0.08923150902 0.320498991788 0)
(0.0745737568306 0.292439424715 0)
(0.0662929130814 0.249362086078 0)
(0.0669765957696 0.184626797801 0)
(0.0705751235705 0.113213571985 0)
(0.0682274761481 0.0566614895341 0)
(0.0505070467692 0.025744585612 0)
(0.0167969416672 0.0112488360396 0)
(-0.0284576537785 -0.00178569490622 0)
(-0.0271101087502 -0.0456047285115 0)