/*--------------------------------*- C++ -*----------------------------------*\
| =========                 |                                                 |
| \\      /  F ield         | OpenFOAM: The Open Source CFD Toolbox           |
|  \\    /   O peration     | Version:  2312                                  |
|   \\  /    A nd           | Website:  www.openfoam.com                      |
|    \\/     M anipulation  |                                                 |
\*---------------------------------------------------------------------------*/
FoamFile
{
    version     2.0;
    format      ascii;
    arch        "LSB;label=32;scalar=64";
    class       volVectorField;
    location    "72";
    object      U.waterMean;
}
// * * * * * * * * * * * * * * * * * * * * * * * * * * * * * * * * * * * * * //

dimensions      [0 1 -1 0 0 0 0];

internalField   nonuniform List<vector> 
1875
(
(0.0701067 -0.188539 0)
(0.134934 -0.178946 0)
(0.224993 -0.157675 0)
(0.27494 -0.137152 0)
(0.313781 -0.119359 0)
(0.339901 -0.104616 0)
(0.356136 -0.0923701 0)
(0.36409 -0.0817409 0)
(0.364705 -0.0708824 0)
(0.357132 -0.0618092 0)
(0.34274 -0.05264 0)
(0.321324 -0.0449797 0)
(0.294201 -0.0376953 0)
(0.261792 -0.0314752 0)
(0.223074 -0.0246185 0)
(0.18037 -0.0205061 0)
(0.135389 -0.0177436 0)
(0.0901906 -0.0181194 0)
(0.0465473 -0.0210988 0)
(0.00673862 -0.0289573 0)
(-0.0257045 -0.0413875 0)
(-0.0468559 -0.057418 0)
(-0.0570823 -0.0752658 0)
(-0.0386502 -0.100555 0)
(-0.0286098 -0.120959 0)
(0.039772 -0.295776 0)
(0.0874364 -0.235129 0)
(0.129219 -0.153136 0)
(0.154047 -0.0882322 0)
(0.17398 -0.0415731 0)
(0.190069 -0.00564466 0)
(0.203102 0.0232769 0)
(0.212834 0.0472873 0)
(0.219786 0.0715675 0)
(0.221749 0.0928141 0)
(0.219662 0.111822 0)
(0.213688 0.128956 0)
(0.204082 0.142184 0)
(0.190636 0.158638 0)
(0.172803 0.171254 0)
(0.151373 0.179373 0)
(0.126674 0.181194 0)
(0.101594 0.176262 0)
(0.0756482 0.167662 0)
(0.0501389 0.151036 0)
(0.0263615 0.125091 0)
(0.00745766 0.0894557 0)
(-0.00700472 0.0393785 0)
(-0.0105363 -0.0230843 0)
(-0.00814609 -0.0748636 0)
(0.0186052 -0.420531 0)
(0.0381005 -0.328508 0)
(0.0481909 -0.241784 0)
(0.0576952 -0.182348 0)
(0.0653197 -0.143511 0)
(0.0732825 -0.111159 0)
(0.0808043 -0.0817499 0)
(0.0865554 -0.0552296 0)
(0.0898414 -0.026397 0)
(0.0922409 0.0028951 0)
(0.0915955 0.0286675 0)
(0.090371 0.0516216 0)
(0.0843899 0.0758402 0)
(0.0770899 0.100719 0)
(0.0697969 0.12549 0)
(0.0614547 0.144309 0)
(0.0526145 0.15182 0)
(0.0436205 0.1477 0)
(0.0344563 0.139026 0)
(0.0276039 0.120492 0)
(0.0206335 0.0910264 0)
(0.0150518 0.0546058 0)
(0.00846569 0.00855384 0)
(-4.19668e-05 -0.0537733 0)
(-0.00368215 -0.129939 0)
(0.000698077 -0.435729 0)
(-0.00096889 -0.316239 0)
(-0.00570411 -0.224693 0)
(-0.00793239 -0.16077 0)
(-0.00984131 -0.112495 0)
(-0.0111433 -0.0726722 0)
(-0.0139186 -0.0358873 0)
(-0.0174669 -0.000331822 0)
(-0.0223571 0.0325998 0)
(-0.0264136 0.0637198 0)
(-0.0308236 0.0932339 0)
(-0.0349826 0.123493 0)
(-0.0404598 0.15141 0)
(-0.0451833 0.173283 0)
(-0.0467911 0.191648 0)
(-0.0463451 0.204926 0)
(-0.0428683 0.20598 0)
(-0.03825 0.19813 0)
(-0.0318366 0.17957 0)
(-0.023295 0.152658 0)
(-0.0156803 0.11913 0)
(-0.00916243 0.0821048 0)
(-0.00646744 0.0394563 0)
(-0.00494768 -0.0227719 0)
(-0.00356364 -0.117744 0)
(-0.00795102 -0.422416 0)
(-0.0196867 -0.313853 0)
(-0.0419013 -0.231431 0)
(-0.0588644 -0.175892 0)
(-0.0726633 -0.134046 0)
(-0.0832492 -0.094713 0)
(-0.0922585 -0.0585009 0)
(-0.0992538 -0.0228472 0)
(-0.104532 0.0110044 0)
(-0.108878 0.0440239 0)
(-0.113357 0.0738573 0)
(-0.116366 0.102913 0)
(-0.116762 0.129654 0)
(-0.114687 0.147348 0)
(-0.110302 0.161252 0)
(-0.102296 0.1673 0)
(-0.0908611 0.163232 0)
(-0.076899 0.149447 0)
(-0.0611687 0.127874 0)
(-0.045813 0.100081 0)
(-0.0336227 0.0725196 0)
(-0.0244272 0.0416625 0)
(-0.018234 0.00648474 0)
(-0.0107437 -0.0541906 0)
(-0.00401918 -0.145352 0)
(-0.00992221 -0.390862 0)
(-0.026018 -0.259973 0)
(-0.0524758 -0.166006 0)
(-0.0788793 -0.110538 0)
(-0.101285 -0.074013 0)
(-0.120307 -0.0437997 0)
(-0.134739 -0.0131828 0)
(-0.146018 0.0154007 0)
(-0.153719 0.0457281 0)
(-0.160224 0.077168 0)
(-0.163178 0.105625 0)
(-0.16421 0.128613 0)
(-0.160296 0.145836 0)
(-0.153821 0.157363 0)
(-0.144089 0.162006 0)
(-0.13066 0.158592 0)
(-0.114868 0.145879 0)
(-0.0965223 0.127422 0)
(-0.0778552 0.105109 0)
(-0.0613956 0.0837258 0)
(-0.0479392 0.0611672 0)
(-0.0374237 0.0358442 0)
(-0.0281067 -0.00320212 0)
(-0.015471 -0.0702946 0)
(-0.00722496 -0.163287 0)
(-0.0142099 -0.355353 0)
(-0.0283263 -0.227865 0)
(-0.0542131 -0.134978 0)
(-0.0804987 -0.0764238 0)
(-0.106964 -0.0417151 0)
(-0.130909 -0.0159819 0)
(-0.150787 0.00691811 0)
(-0.165984 0.0299279 0)
(-0.177253 0.0554606 0)
(-0.183869 0.0803299 0)
(-0.185633 0.100196 0)
(-0.182203 0.115104 0)
(-0.175194 0.123808 0)
(-0.16456 0.128843 0)
(-0.150619 0.126639 0)
(-0.134444 0.118346 0)
(-0.116774 0.101463 0)
(-0.0986128 0.0795635 0)
(-0.0807324 0.0604565 0)
(-0.0649087 0.0424805 0)
(-0.05164 0.0248338 0)
(-0.0406836 -0.00185437 0)
(-0.0295111 -0.0445016 0)
(-0.0174122 -0.108895 0)
(-0.00804447 -0.196619 0)
(-0.0123184 -0.316481 0)
(-0.0236809 -0.180667 0)
(-0.045001 -0.0773925 0)
(-0.0718585 -0.0138534 0)
(-0.0987768 0.0265981 0)
(-0.125339 0.0482214 0)
(-0.146631 0.0623964 0)
(-0.163714 0.0755814 0)
(-0.175135 0.0888542 0)
(-0.18068 0.100235 0)
(-0.179947 0.106791 0)
(-0.173803 0.110102 0)
(-0.164625 0.111384 0)
(-0.151878 0.107925 0)
(-0.136682 0.10046 0)
(-0.119847 0.0880439 0)
(-0.102383 0.0702893 0)
(-0.085796 0.0509258 0)
(-0.0710981 0.0339366 0)
(-0.0581506 0.0220898 0)
(-0.0482305 0.00805304 0)
(-0.0391287 -0.0184414 0)
(-0.0295912 -0.0642651 0)
(-0.0179985 -0.134204 0)
(-0.00863525 -0.223086 0)
(-0.0112488 -0.289819 0)
(-0.0180543 -0.156139 0)
(-0.0322318 -0.045978 0)
(-0.0514662 0.0303161 0)
(-0.0754333 0.0744087 0)
(-0.0990374 0.0932992 0)
(-0.12025 0.1004 0)
(-0.136656 0.103463 0)
(-0.147357 0.1049 0)
(-0.152475 0.102395 0)
(-0.151407 0.0962748 0)
(-0.1462 0.0910489 0)
(-0.136963 0.084269 0)
(-0.124889 0.0757215 0)
(-0.11144 0.0647425 0)
(-0.0973413 0.0515296 0)
(-0.0837282 0.0352874 0)
(-0.0716047 0.0195702 0)
(-0.0615053 0.00703447 0)
(-0.0531458 -0.000774114 0)
(-0.0459258 -0.012307 0)
(-0.0386178 -0.0427639 0)
(-0.0299133 -0.0945393 0)
(-0.0168074 -0.168302 0)
(-0.00845017 -0.253059 0)
(-0.00819566 -0.268798 0)
(-0.011128 -0.135869 0)
(-0.0193731 -0.0203883 0)
(-0.0295569 0.0686521 0)
(-0.0440091 0.124772 0)
(-0.0617956 0.147942 0)
(-0.0809431 0.148235 0)
(-0.0963353 0.140453 0)
(-0.107425 0.129819 0)
(-0.113358 0.114992 0)
(-0.114137 0.0975657 0)
(-0.110905 0.0821039 0)
(-0.104529 0.0678817 0)
(-0.0954207 0.0549313 0)
(-0.0851514 0.0428233 0)
(-0.0749544 0.0303678 0)
(-0.0663028 0.0173047 0)
(-0.0585999 0.00545314 0)
(-0.0524747 -0.00261261 0)
(-0.0475988 -0.00852272 0)
(-0.0424555 -0.0216071 0)
(-0.0367647 -0.0562582 0)
(-0.0272747 -0.118447 0)
(-0.015935 -0.195682 0)
(-0.00853831 -0.278584 0)
(-0.00571856 -0.260505 0)
(-0.00511321 -0.129659 0)
(-0.00812515 -0.0133429 0)
(-0.0109844 0.0806855 0)
(-0.0161536 0.14547 0)
(-0.0240067 0.178285 0)
(-0.0362615 0.181316 0)
(-0.0491667 0.168861 0)
(-0.0589616 0.150464 0)
(-0.0652999 0.124725 0)
(-0.0685233 0.098268 0)
(-0.0693456 0.0758457 0)
(-0.0671998 0.0555276 0)
(-0.0630712 0.0382431 0)
(-0.0576519 0.0250289 0)
(-0.0520649 0.0141408 0)
(-0.0472955 0.00292534 0)
(-0.0436759 -0.00780988 0)
(-0.0406331 -0.0135376 0)
(-0.0389391 -0.0178329 0)
(-0.0363635 -0.0330129 0)
(-0.0304247 -0.0766269 0)
(-0.0227786 -0.143292 0)
(-0.0138512 -0.221709 0)
(-0.00769484 -0.306099 0)
(-0.00296351 -0.258449 0)
(-8.92406e-05 -0.129655 0)
(0.00181822 -0.0123617 0)
(0.00453441 0.0829696 0)
(0.0054954 0.153221 0)
(0.00517299 0.194985 0)
(0.000149876 0.205209 0)
(-0.00673596 0.193102 0)
(-0.0137493 0.169475 0)
(-0.0188584 0.140633 0)
(-0.0234888 0.111005 0)
(-0.0272597 0.0830717 0)
(-0.0287569 0.0574618 0)
(-0.0290299 0.0367171 0)
(-0.0280941 0.0212163 0)
(-0.0270571 0.00942874 0)
(-0.0255799 -0.000272611 0)
(-0.0265992 -0.0089627 0)
(-0.027661 -0.0127981 0)
(-0.0292838 -0.017104 0)
(-0.028301 -0.0387338 0)
(-0.0231005 -0.0887785 0)
(-0.0172621 -0.159017 0)
(-0.0107287 -0.240349 0)
(-0.00597198 -0.327608 0)
(-0.000375914 -0.264271 0)
(0.00318423 -0.138368 0)
(0.00815988 -0.023978 0)
(0.0139647 0.0719506 0)
(0.0195663 0.145174 0)
(0.0242687 0.192508 0)
(0.0262534 0.210345 0)
(0.0248102 0.20274 0)
(0.0211279 0.181755 0)
(0.0165395 0.150534 0)
(0.0119366 0.12055 0)
(0.00716025 0.0908819 0)
(0.00262113 0.0623727 0)
(-0.00127899 0.0394173 0)
(-0.00411884 0.0232946 0)
(-0.00644057 0.0113998 0)
(-0.00837999 0.00436253 0)
(-0.0113144 -0.00241678 0)
(-0.0148735 -0.00640446 0)
(-0.0173023 -0.0163351 0)
(-0.0173405 -0.0453346 0)
(-0.0137177 -0.102139 0)
(-0.0111318 -0.172907 0)
(-0.0079606 -0.254575 0)
(-0.00384488 -0.344489 0)
(0.00163055 -0.273345 0)
(0.00537779 -0.147697 0)
(0.0103554 -0.0368202 0)
(0.0170689 0.0569289 0)
(0.0251008 0.131639 0)
(0.0330034 0.18231 0)
(0.0388084 0.206265 0)
(0.0413791 0.206495 0)
(0.0412903 0.19062 0)
(0.0393615 0.164286 0)
(0.0349892 0.135377 0)
(0.0300729 0.106096 0)
(0.0236589 0.0781942 0)
(0.0173035 0.0533411 0)
(0.0114956 0.0334975 0)
(0.00768311 0.0201402 0)
(0.00321747 0.0114314 0)
(0.000300583 0.00552335 0)
(-0.00374289 0.0016492 0)
(-0.00632004 -0.0125796 0)
(-0.00664794 -0.0451501 0)
(-0.00510509 -0.103204 0)
(-0.00565637 -0.174866 0)
(-0.00453581 -0.261848 0)
(-0.00197315 -0.355072 0)
(0.00250051 -0.285661 0)
(0.00614318 -0.158304 0)
(0.00984783 -0.0508566 0)
(0.0157248 0.0395286 0)
(0.023481 0.110928 0)
(0.0326226 0.164426 0)
(0.0404811 0.193831 0)
(0.0463236 0.200064 0)
(0.0493177 0.188569 0)
(0.0501564 0.168498 0)
(0.048113 0.144575 0)
(0.0444347 0.118655 0)
(0.038442 0.0928243 0)
(0.0317225 0.0681092 0)
(0.0244502 0.0458228 0)
(0.0182353 0.0308203 0)
(0.012646 0.0214463 0)
(0.00757301 0.0138582 0)
(0.00288264 0.00902785 0)
(0.000941688 -0.00870456 0)
(0.00088788 -0.0466937 0)
(0.00190103 -0.10425 0)
(0.000359187 -0.176038 0)
(-0.000310774 -0.265585 0)
(-0.000199206 -0.360385 0)
(0.00186869 -0.29678 0)
(0.00441702 -0.167307 0)
(0.006712 -0.0599648 0)
(0.010637 0.02719 0)
(0.0164389 0.0950796 0)
(0.0245376 0.145979 0)
(0.0330918 0.177516 0)
(0.0415253 0.188422 0)
(0.048025 0.183998 0)
(0.0514133 0.169739 0)
(0.051875 0.150345 0)
(0.0498735 0.128806 0)
(0.0467046 0.106331 0)
(0.0418012 0.0838622 0)
(0.0355089 0.0621897 0)
(0.0285513 0.0459381 0)
(0.0225523 0.0346982 0)
(0.0165341 0.0269247 0)
(0.0125752 0.0171901 0)
(0.0110849 -0.00528733 0)
(0.0107541 -0.0452334 0)
(0.00962306 -0.100434 0)
(0.00635042 -0.172682 0)
(0.00324941 -0.263016 0)
(0.00136914 -0.360127 0)
(0.000364145 -0.303351 0)
(0.00118369 -0.173468 0)
(0.00155583 -0.0655786 0)
(0.00269671 0.0187611 0)
(0.00626263 0.083507 0)
(0.0117615 0.129991 0)
(0.0197581 0.158987 0)
(0.0282704 0.169661 0)
(0.0376565 0.169209 0)
(0.0442892 0.163118 0)
(0.0473918 0.149647 0)
(0.04847 0.131128 0)
(0.0475034 0.111395 0)
(0.0445168 0.0926709 0)
(0.0394765 0.0744579 0)
(0.0333833 0.0591137 0)
(0.0278884 0.0476915 0)
(0.0232021 0.0369581 0)
(0.0203603 0.0227942 0)
(0.0180031 -0.00136586 0)
(0.017183 -0.0418903 0)
(0.013695 -0.0926591 0)
(0.0104002 -0.166347 0)
(0.00549836 -0.257075 0)
(0.00264477 -0.356123 0)
(-0.00140706 -0.305148 0)
(-0.00182389 -0.175258 0)
(-0.00354115 -0.066639 0)
(-0.00373348 0.0162395 0)
(-0.00230884 0.0775545 0)
(0.000861553 0.117541 0)
(0.00707206 0.142469 0)
(0.0146925 0.149734 0)
(0.0237701 0.150015 0)
(0.0314512 0.150061 0)
(0.0374337 0.141641 0)
(0.040181 0.127705 0)
(0.0409645 0.113343 0)
(0.0400443 0.0994894 0)
(0.036824 0.0852313 0)
(0.0319338 0.0720702 0)
(0.0278265 0.0587278 0)
(0.0246469 0.0441479 0)
(0.0223588 0.0293283 0)
(0.0195678 0.00451275 0)
(0.0177937 -0.034488 0)
(0.0143748 -0.0854852 0)
(0.0117087 -0.15884 0)
(0.0070356 -0.24748 0)
(0.0035442 -0.348355 0)
(-0.00348091 -0.302901 0)
(-0.00456073 -0.173865 0)
(-0.00662635 -0.0659286 0)
(-0.00751176 0.0136555 0)
(-0.0057014 0.0738584 0)
(-0.00343067 0.109729 0)
(0.00113046 0.129856 0)
(0.00703701 0.133747 0)
(0.0133363 0.133556 0)
(0.0192813 0.134081 0)
(0.0247558 0.130532 0)
(0.0274263 0.121637 0)
(0.0291511 0.109955 0)
(0.0294979 0.100204 0)
(0.0291236 0.0905677 0)
(0.0270948 0.0784313 0)
(0.0246582 0.0640618 0)
(0.0213491 0.0489666 0)
(0.0176459 0.0344507 0)
(0.0154843 0.00969075 0)
(0.0133488 -0.0290381 0)
(0.0116669 -0.0803718 0)
(0.00986776 -0.152342 0)
(0.00631511 -0.238244 0)
(0.00369407 -0.339252 0)
(-0.00346888 -0.296411 0)
(-0.00588583 -0.172098 0)
(-0.00701248 -0.064416 0)
(-0.00763271 0.0122085 0)
(-0.00508047 0.0687557 0)
(-0.00293725 0.102759 0)
(0.000763337 0.120455 0)
(0.00469452 0.123401 0)
(0.00854662 0.123882 0)
(0.011336 0.125668 0)
(0.0147458 0.123901 0)
(0.0170516 0.116963 0)
(0.0188966 0.106871 0)
(0.0190752 0.0977481 0)
(0.0196621 0.0892463 0)
(0.0195525 0.0801417 0)
(0.0177416 0.0703823 0)
(0.0145977 0.0582682 0)
(0.0110998 0.0424981 0)
(0.00992067 0.0142954 0)
(0.00847911 -0.02601 0)
(0.00772741 -0.0781193 0)
(0.00693822 -0.148986 0)
(0.00461598 -0.232468 0)
(0.00255517 -0.333423 0)
(-0.00251043 -0.289229 0)
(-0.00666608 -0.169185 0)
(-0.00793015 -0.0663279 0)
(-0.00766418 0.00887842 0)
(-0.0044738 0.064886 0)
(-0.00146746 0.0977184 0)
(0.00231694 0.11411 0)
(0.00580683 0.119181 0)
(0.00728291 0.121475 0)
(0.00948486 0.122942 0)
(0.0112867 0.120261 0)
(0.0126898 0.112713 0)
(0.0130362 0.104383 0)
(0.0127072 0.0962142 0)
(0.0118985 0.0873104 0)
(0.0109435 0.0804075 0)
(0.0090737 0.0736897 0)
(0.00730169 0.0623072 0)
(0.00587533 0.0446557 0)
(0.00640121 0.0159168 0)
(0.00591676 -0.0243739 0)
(0.00616078 -0.0779977 0)
(0.00570414 -0.146644 0)
(0.00335524 -0.22738 0)
(0.00199526 -0.330617 0)
(-0.00269711 -0.280209 0)
(-0.00690486 -0.162835 0)
(-0.0100899 -0.0674311 0)
(-0.00925465 0.00561034 0)
(-0.00583505 0.0579864 0)
(-0.00161738 0.0910308 0)
(0.0026733 0.107778 0)
(0.00565256 0.116419 0)
(0.00774512 0.119667 0)
(0.00894126 0.121365 0)
(0.0104132 0.119492 0)
(0.0107016 0.113395 0)
(0.0100821 0.106248 0)
(0.00886392 0.0988664 0)
(0.0074338 0.091349 0)
(0.00555159 0.084533 0)
(0.00452773 0.0778018 0)
(0.0039991 0.0644862 0)
(0.00428674 0.0441103 0)
(0.00585482 0.0138288 0)
(0.00667579 -0.0256238 0)
(0.00703744 -0.078172 0)
(0.00570682 -0.143324 0)
(0.00270533 -0.223151 0)
(0.00237481 -0.329335 0)
(-0.00240715 -0.271747 0)
(-0.00626028 -0.155769 0)
(-0.0109918 -0.0666985 0)
(-0.0107729 0.00110543 0)
(-0.00786726 0.0493966 0)
(-0.00254762 0.0830381 0)
(0.000937098 0.101989 0)
(0.00386645 0.112807 0)
(0.00564548 0.118261 0)
(0.00640507 0.12027 0)
(0.00708917 0.118341 0)
(0.00667818 0.113743 0)
(0.00622562 0.108718 0)
(0.00503709 0.101971 0)
(0.00396121 0.093829 0)
(0.00277171 0.0855501 0)
(0.00413248 0.0762737 0)
(0.00567329 0.0621456 0)
(0.00785568 0.0404779 0)
(0.00874585 0.0103329 0)
(0.00962478 -0.0275761 0)
(0.00855988 -0.0761549 0)
(0.00585683 -0.137628 0)
(0.00286147 -0.21916 0)
(0.00251502 -0.32691 0)
(-0.00188781 -0.264831 0)
(-0.00478588 -0.147757 0)
(-0.00934005 -0.061516 0)
(-0.010014 -6.02826e-05 0)
(-0.00890021 0.0432251 0)
(-0.00482678 0.0765346 0)
(-0.00166424 0.0981601 0)
(0.000912534 0.110469 0)
(0.00269841 0.117765 0)
(0.00386395 0.120825 0)
(0.00419416 0.120817 0)
(0.00395947 0.116485 0)
(0.00392957 0.110116 0)
(0.00449675 0.103475 0)
(0.00501466 0.0949724 0)
(0.0058138 0.0836896 0)
(0.00793538 0.0706183 0)
(0.00999514 0.0554436 0)
(0.0113984 0.0355291 0)
(0.0108759 0.00847414 0)
(0.00956966 -0.0267512 0)
(0.00763094 -0.0717187 0)
(0.00491498 -0.132015 0)
(0.00275094 -0.215569 0)
(0.00244439 -0.324486 0)
(-0.000933563 -0.260757 0)
(-0.00220579 -0.142991 0)
(-0.00463146 -0.0587525 0)
(-0.00571837 0.000857558 0)
(-0.0050007 0.0415718 0)
(-0.00261764 0.0714579 0)
(0.000138751 0.0936462 0)
(0.00282036 0.106614 0)
(0.0046697 0.115401 0)
(0.00565725 0.120412 0)
(0.00649438 0.121355 0)
(0.00701591 0.116357 0)
(0.00779612 0.10887 0)
(0.00813244 0.0999168 0)
(0.00925073 0.0903398 0)
(0.0109088 0.0787164 0)
(0.0129353 0.0661333 0)
(0.0136517 0.0535785 0)
(0.0128684 0.0365901 0)
(0.0109642 0.0124379 0)
(0.00893998 -0.0224108 0)
(0.00674107 -0.0677071 0)
(0.00463003 -0.127773 0)
(0.00307205 -0.213211 0)
(0.00256054 -0.321396 0)
(-0.000199628 -0.260498 0)
(0.000490689 -0.142587 0)
(-4.04896e-05 -0.0576188 0)
(-0.000576173 0.000946553 0)
(0.00108533 0.0387336 0)
(0.0031376 0.0674979 0)
(0.00584546 0.0895773 0)
(0.00802649 0.103152 0)
(0.0100305 0.114207 0)
(0.0107458 0.12019 0)
(0.0116629 0.120412 0)
(0.0121951 0.115581 0)
(0.0128728 0.108315 0)
(0.0130359 0.100022 0)
(0.0134051 0.0884114 0)
(0.0142636 0.0753649 0)
(0.0151203 0.063901 0)
(0.0150711 0.0543486 0)
(0.0137274 0.0399681 0)
(0.0117431 0.0158764 0)
(0.00921309 -0.0186503 0)
(0.00717967 -0.0642065 0)
(0.00524629 -0.124596 0)
(0.00355685 -0.210076 0)
(0.00248405 -0.317382 0)
(0.000105875 -0.262884 0)
(0.00165612 -0.1453 0)
(0.00282212 -0.0600052 0)
(0.00412766 -0.00325478 0)
(0.00728864 0.0341247 0)
(0.00986474 0.0614626 0)
(0.0130371 0.0834681 0)
(0.0148487 0.0991826 0)
(0.0160444 0.112251 0)
(0.0167259 0.119931 0)
(0.0175612 0.120344 0)
(0.0177278 0.115624 0)
(0.0181357 0.107989 0)
(0.0181759 0.0989747 0)
(0.0183945 0.087236 0)
(0.0178093 0.0742091 0)
(0.0174809 0.0635589 0)
(0.0161365 0.0557671 0)
(0.0148025 0.0435215 0)
(0.0124723 0.0217211 0)
(0.0103628 -0.0142292 0)
(0.00830128 -0.0603786 0)
(0.00648506 -0.121001 0)
(0.0044958 -0.206238 0)
(0.0025754 -0.31312 0)
(-3.56694e-05 -0.265853 0)
(0.00125741 -0.149638 0)
(0.00405379 -0.0655988 0)
(0.00628797 -0.0110892 0)
(0.0108051 0.0254876 0)
(0.0139586 0.0546295 0)
(0.0168913 0.0786984 0)
(0.0188097 0.0971197 0)
(0.0194316 0.110926 0)
(0.0199981 0.118358 0)
(0.0205826 0.119695 0)
(0.020657 0.115497 0)
(0.020618 0.10823 0)
(0.0207748 0.0992581 0)
(0.0206888 0.0883607 0)
(0.0198811 0.0766473 0)
(0.0185395 0.0675504 0)
(0.0163827 0.0608149 0)
(0.0148496 0.0484711 0)
(0.0129758 0.026167 0)
(0.0121147 -0.0105166 0)
(0.00993938 -0.0566669 0)
(0.00862197 -0.117777 0)
(0.00583233 -0.200194 0)
(0.00321249 -0.30656 0)
(-0.000407358 -0.268312 0)
(0.000709542 -0.154227 0)
(0.00315954 -0.0725579 0)
(0.00634052 -0.0198594 0)
(0.0105444 0.0170765 0)
(0.0127376 0.0482971 0)
(0.0149169 0.0729194 0)
(0.0168337 0.0941309 0)
(0.0179912 0.110209 0)
(0.0185268 0.118692 0)
(0.0182828 0.119943 0)
(0.0181435 0.116086 0)
(0.0176273 0.108398 0)
(0.0175535 0.0988529 0)
(0.0179569 0.0891651 0)
(0.0178351 0.0794265 0)
(0.0167328 0.0720114 0)
(0.0153922 0.0651988 0)
(0.0143448 0.0521842 0)
(0.0137328 0.028386 0)
(0.0132745 -0.00752014 0)
(0.011109 -0.0527814 0)
(0.00934497 -0.114001 0)
(0.00652262 -0.193106 0)
(0.0032475 -0.297628 0)
(-0.000443267 -0.269939 0)
(0.000128577 -0.15765 0)
(0.00150435 -0.0784674 0)
(0.00396001 -0.0274716 0)
(0.00711269 0.0108132 0)
(0.00890923 0.0455453 0)
(0.00976255 0.0715178 0)
(0.00985397 0.0923519 0)
(0.0103207 0.10884 0)
(0.0106919 0.119236 0)
(0.0111031 0.121824 0)
(0.0111389 0.117436 0)
(0.0115697 0.109278 0)
(0.0117228 0.0980774 0)
(0.0120838 0.0877574 0)
(0.0125207 0.0798175 0)
(0.01212 0.0739839 0)
(0.011678 0.0667313 0)
(0.0115604 0.0529542 0)
(0.0119006 0.028581 0)
(0.0112531 -0.00466638 0)
(0.00988614 -0.048801 0)
(0.00865934 -0.110004 0)
(0.00589813 -0.186506 0)
(0.00249321 -0.288832 0)
(-9.1067e-05 -0.271298 0)
(-0.000596693 -0.160149 0)
(-0.000109478 -0.0815476 0)
(0.000814933 -0.0331329 0)
(0.0026924 0.0070074 0)
(0.00328359 0.0431931 0)
(0.00436242 0.0728239 0)
(0.00407991 0.0945399 0)
(0.00380568 0.109882 0)
(0.00393975 0.118365 0)
(0.00481441 0.120563 0)
(0.00584936 0.11674 0)
(0.00646183 0.107862 0)
(0.00706016 0.0977323 0)
(0.0070549 0.0876434 0)
(0.00698874 0.0796631 0)
(0.00616484 0.0742379 0)
(0.006349 0.0669831 0)
(0.00765589 0.0522883 0)
(0.00818174 0.0298783 0)
(0.00848153 -0.00299379 0)
(0.00807515 -0.0477991 0)
(0.00712102 -0.106483 0)
(0.00446232 -0.179585 0)
(0.00180501 -0.28217 0)
(-0.00045814 -0.272587 0)
(-0.00161892 -0.159675 0)
(-0.00179823 -0.0817413 0)
(-0.00285266 -0.0348379 0)
(-0.00310989 0.00612056 0)
(-0.00325717 0.0421752 0)
(-0.00279919 0.071347 0)
(-0.00226134 0.0949497 0)
(-0.00134602 0.110604 0)
(-0.000333949 0.118469 0)
(0.000776202 0.119887 0)
(0.00199159 0.115991 0)
(0.00298712 0.107537 0)
(0.0033237 0.0975417 0)
(0.00278874 0.0879817 0)
(0.00169096 0.0816818 0)
(0.000772558 0.0750914 0)
(0.00153577 0.0639514 0)
(0.00306902 0.0490808 0)
(0.00440358 0.0272314 0)
(0.00569072 -0.00399784 0)
(0.00567924 -0.0457455 0)
(0.00503178 -0.102467 0)
(0.00318581 -0.174599 0)
(0.00138743 -0.277317 0)
(-0.00178764 -0.271723 0)
(-0.00300942 -0.157177 0)
(-0.00437831 -0.0800019 0)
(-0.00639044 -0.0310444 0)
(-0.00883632 0.00768235 0)
(-0.00976617 0.0426429 0)
(-0.0107539 0.0710623 0)
(-0.00993099 0.0931132 0)
(-0.00887894 0.107441 0)
(-0.00674986 0.115554 0)
(-0.0051822 0.117405 0)
(-0.00326302 0.113812 0)
(-0.00167508 0.106382 0)
(-0.000430727 0.0988093 0)
(-0.00061636 0.091389 0)
(-0.00127207 0.084473 0)
(-0.00134823 0.0748915 0)
(-0.00127291 0.0617414 0)
(-0.000122068 0.0460684 0)
(0.00109304 0.0241735 0)
(0.00226498 -0.00551033 0)
(0.00331385 -0.0459192 0)
(0.0032474 -0.100691 0)
(0.00268705 -0.171929 0)
(0.000993289 -0.273926 0)
(-0.00319392 -0.268276 0)
(-0.00470967 -0.152738 0)
(-0.00775285 -0.0764822 0)
(-0.0100059 -0.0256374 0)
(-0.0134236 0.0125383 0)
(-0.0149924 0.0462926 0)
(-0.0161798 0.0718234 0)
(-0.0155514 0.0917911 0)
(-0.0144783 0.104808 0)
(-0.0125774 0.111672 0)
(-0.0108981 0.113416 0)
(-0.00876075 0.109493 0)
(-0.00667163 0.102201 0)
(-0.00480912 0.0958199 0)
(-0.00372323 0.0899135 0)
(-0.00309142 0.0833508 0)
(-0.00236114 0.0747043 0)
(-0.00271747 0.0617953 0)
(-0.00217213 0.0441864 0)
(-0.0010195 0.0217631 0)
(0.000918313 -0.00809094 0)
(0.0023375 -0.0475481 0)
(0.00343874 -0.10084 0)
(0.00242276 -0.169483 0)
(0.00103786 -0.270925 0)
(-0.0040464 -0.261764 0)
(-0.00611118 -0.146184 0)
(-0.0104886 -0.0709749 0)
(-0.0126534 -0.0195365 0)
(-0.0157551 0.0172749 0)
(-0.0166086 0.0481382 0)
(-0.0169615 0.072603 0)
(-0.015713 0.0905752 0)
(-0.0146365 0.102595 0)
(-0.0133917 0.109058 0)
(-0.0124414 0.110155 0)
(-0.0115441 0.105394 0)
(-0.0102654 0.0979163 0)
(-0.0088001 0.0921389 0)
(-0.00733511 0.0871663 0)
(-0.0060157 0.0814314 0)
(-0.00504853 0.0742222 0)
(-0.00446596 0.0615458 0)
(-0.00339567 0.0425618 0)
(-0.00154957 0.0175414 0)
(0.000812739 -0.0125099 0)
(0.00317219 -0.0504283 0)
(0.00407699 -0.100743 0)
(0.00253319 -0.166325 0)
(0.00123796 -0.267845 0)
(-0.00436765 -0.253702 0)
(-0.00646561 -0.137845 0)
(-0.0113206 -0.0651589 0)
(-0.0133412 -0.0152488 0)
(-0.015711 0.0197843 0)
(-0.0163158 0.048737 0)
(-0.0157611 0.0706077 0)
(-0.0142398 0.0882369 0)
(-0.013076 0.101946 0)
(-0.0122629 0.109312 0)
(-0.0117429 0.111392 0)
(-0.0120289 0.1059 0)
(-0.0118924 0.0969091 0)
(-0.0116679 0.0895131 0)
(-0.0109462 0.0838708 0)
(-0.00970891 0.0783511 0)
(-0.00818642 0.071202 0)
(-0.00663679 0.0575284 0)
(-0.00482982 0.0377808 0)
(-0.00233411 0.011715 0)
(-6.43029e-07 -0.018206 0)
(0.00294568 -0.0548688 0)
(0.00309926 -0.0992054 0)
(0.00208809 -0.163562 0)
(0.00119331 -0.264638 0)
(-0.00411923 -0.245418 0)
(-0.00574182 -0.131076 0)
(-0.00967083 -0.0590027 0)
(-0.0119769 -0.0115245 0)
(-0.0139324 0.0228386 0)
(-0.0145201 0.0480325 0)
(-0.0144763 0.0688585 0)
(-0.0140298 0.0861695 0)
(-0.0135518 0.0999082 0)
(-0.0130209 0.109004 0)
(-0.0125489 0.111633 0)
(-0.0124682 0.107151 0)
(-0.0131266 0.0978193 0)
(-0.0136226 0.0898187 0)
(-0.0139411 0.0823807 0)
(-0.0130025 0.074683 0)
(-0.0118524 0.0668963 0)
(-0.00982754 0.0530542 0)
(-0.00775717 0.0321925 0)
(-0.00493311 0.00612001 0)
(-0.00169219 -0.0241486 0)
(0.000828172 -0.0580318 0)
(0.00103983 -0.0990876 0)
(0.00112649 -0.162808 0)
(0.000940856 -0.262616 0)
(-0.00403824 -0.238621 0)
(-0.00589996 -0.125874 0)
(-0.00957867 -0.0541357 0)
(-0.0121382 -0.00682705 0)
(-0.0143047 0.025252 0)
(-0.0145611 0.0505796 0)
(-0.01519 0.0704966 0)
(-0.0149944 0.0881849 0)
(-0.0156029 0.101927 0)
(-0.0154575 0.109687 0)
(-0.0149465 0.112287 0)
(-0.0140761 0.108794 0)
(-0.0131282 0.0999922 0)
(-0.0129396 0.0917832 0)
(-0.0126231 0.0825893 0)
(-0.0128385 0.0738005 0)
(-0.0121946 0.063577 0)
(-0.0104479 0.0478389 0)
(-0.00820975 0.0257806 0)
(-0.0059023 -0.00136913 0)
(-0.00238939 -0.032159 0)
(-0.000978489 -0.0612439 0)
(-0.000282409 -0.100857 0)
(0.000297571 -0.164277 0)
(0.00083572 -0.262137 0)
(-0.00424551 -0.22918 0)
(-0.00647853 -0.11831 0)
(-0.0102259 -0.0482589 0)
(-0.012994 -0.00218461 0)
(-0.015889 0.0288248 0)
(-0.0174965 0.0520042 0)
(-0.0176843 0.0718887 0)
(-0.0175247 0.0888732 0)
(-0.0166017 0.102875 0)
(-0.015698 0.109799 0)
(-0.0141605 0.110133 0)
(-0.0119575 0.104991 0)
(-0.00983671 0.096848 0)
(-0.00839797 0.0897901 0)
(-0.00711806 0.0826464 0)
(-0.00653988 0.0740743 0)
(-0.00541279 0.0616756 0)
(-0.00387071 0.0442716 0)
(-0.00200045 0.022373 0)
(-0.000395361 -0.00565197 0)
(0.00102407 -0.0350485 0)
(0.000542808 -0.0626724 0)
(0.000673307 -0.102446 0)
(0.000830179 -0.166278 0)
(0.000784034 -0.261776 0)
(-0.00377931 -0.220349 0)
(-0.00602986 -0.112392 0)
(-0.00899945 -0.0421064 0)
(-0.0119696 0.00450925 0)
(-0.0152185 0.0354647 0)
(-0.0179477 0.0554552 0)
(-0.0193872 0.0724248 0)
(-0.0191223 0.087772 0)
(-0.0179294 0.100412 0)
(-0.0155685 0.106128 0)
(-0.0132676 0.105287 0)
(-0.0108042 0.100094 0)
(-0.0087266 0.0928862 0)
(-0.00679467 0.0860999 0)
(-0.00425181 0.0791224 0)
(-0.001674 0.0704748 0)
(0.00114735 0.0585542 0)
(0.00300453 0.0412475 0)
(0.00490602 0.0190398 0)
(0.00605634 -0.00798892 0)
(0.00562814 -0.0337667 0)
(0.00442454 -0.0613111 0)
(0.00304992 -0.101238 0)
(0.00188087 -0.165888 0)
(0.00093868 -0.260472 0)
(-0.00338641 -0.211931 0)
(-0.00537824 -0.106853 0)
(-0.0080677 -0.0367378 0)
(-0.00972717 0.0104767 0)
(-0.0119001 0.0420052 0)
(-0.0142554 0.0620868 0)
(-0.0168131 0.0762331 0)
(-0.0179887 0.0876096 0)
(-0.0179202 0.0966395 0)
(-0.015955 0.101112 0)
(-0.0138039 0.100279 0)
(-0.0117823 0.0955307 0)
(-0.00933596 0.0883567 0)
(-0.00640644 0.0802354 0)
(-0.00262458 0.0714811 0)
(0.00115529 0.0627019 0)
(0.00481395 0.0522547 0)
(0.00758574 0.0365955 0)
(0.00926504 0.0160902 0)
(0.0100793 -0.00756307 0)
(0.00873873 -0.0316044 0)
(0.00720648 -0.0581334 0)
(0.00455606 -0.0970375 0)
(0.00252312 -0.162651 0)
(0.00116957 -0.257934 0)
(-0.00255011 -0.20446 0)
(-0.00407911 -0.102363 0)
(-0.00591897 -0.0337147 0)
(-0.00711589 0.012893 0)
(-0.00791885 0.0455322 0)
(-0.00904911 0.0672992 0)
(-0.0112703 0.0812866 0)
(-0.013471 0.0915188 0)
(-0.0148256 0.0974306 0)
(-0.0146196 0.0983593 0)
(-0.0135773 0.096509 0)
(-0.0115537 0.0905333 0)
(-0.00887553 0.0815077 0)
(-0.00558755 0.071763 0)
(-0.00207614 0.0626398 0)
(0.0012709 0.0544572 0)
(0.00438437 0.0447919 0)
(0.00715436 0.0310783 0)
(0.00879834 0.013372 0)
(0.00946069 -0.00696581 0)
(0.00851495 -0.0282408 0)
(0.00690822 -0.0534796 0)
(0.00421126 -0.0918815 0)
(0.00257078 -0.159499 0)
(0.00135102 -0.254994 0)
(-0.00146159 -0.200091 0)
(-0.0021689 -0.0998591 0)
(-0.00269503 -0.030951 0)
(-0.00345743 0.0151376 0)
(-0.00438751 0.0472043 0)
(-0.00507005 0.0706211 0)
(-0.00646397 0.0871056 0)
(-0.00785791 0.0964326 0)
(-0.00888172 0.100131 0)
(-0.00866818 0.0992092 0)
(-0.00839653 0.0947903 0)
(-0.00737196 0.085742 0)
(-0.00601023 0.0754456 0)
(-0.0039934 0.0653034 0)
(-0.00244089 0.056393 0)
(-0.000910422 0.0485423 0)
(0.00116493 0.03941 0)
(0.00323199 0.027157 0)
(0.00482715 0.0113457 0)
(0.00574611 -0.00689639 0)
(0.00553901 -0.0265102 0)
(0.00457144 -0.0495376 0)
(0.00339711 -0.0888714 0)
(0.0028416 -0.157566 0)
(0.00148416 -0.251874 0)
(-0.000974778 -0.19885 0)
(-0.00120444 -0.0999157 0)
(-0.00130329 -0.0321864 0)
(-0.000474394 0.0165402 0)
(-0.00116367 0.0498377 0)
(-0.00166214 0.0729968 0)
(-0.00199639 0.0883244 0)
(-0.0021563 0.0975868 0)
(-0.00198153 0.100194 0)
(-0.00159297 0.0982986 0)
(-0.00158654 0.0942266 0)
(-0.00119931 0.0859618 0)
(-0.00150443 0.0748876 0)
(-0.00111319 0.0641904 0)
(-0.00150406 0.0558817 0)
(-0.00134704 0.0467581 0)
(-0.000995232 0.0363335 0)
(2.76706e-05 0.0233701 0)
(0.00124271 0.00813632 0)
(0.00240295 -0.00845254 0)
(0.00264926 -0.0261679 0)
(0.00253972 -0.0490569 0)
(0.00293886 -0.0891695 0)
(0.00286251 -0.156237 0)
(0.00158471 -0.248478 0)
(-0.00121141 -0.19777 0)
(-0.000925409 -0.0994226 0)
(-0.00214579 -0.0338163 0)
(-0.000877489 0.0153557 0)
(-0.00089421 0.0501521 0)
(-0.00101331 0.0731713 0)
(-0.00115463 0.0889836 0)
(-0.00102143 0.0975778 0)
(-8.96839e-05 0.0995214 0)
(0.000785338 0.09818 0)
(0.00138223 0.0943156 0)
(0.00185546 0.0863341 0)
(0.00199494 0.0755033 0)
(0.00188293 0.0656466 0)
(0.0014457 0.0571602 0)
(0.00100625 0.0477669 0)
(0.000497701 0.0363342 0)
(0.000578958 0.0219933 0)
(0.00118067 0.00595036 0)
(0.00171341 -0.0102592 0)
(0.00207382 -0.0266446 0)
(0.00245648 -0.0504102 0)
(0.00372255 -0.0909013 0)
(0.00287793 -0.154922 0)
(0.00187922 -0.245552 0)
(-0.00106825 -0.196634 0)
(-0.000802356 -0.0984032 0)
(-0.00195691 -0.0331647 0)
(-0.00195394 0.0134954 0)
(-0.00162983 0.0501363 0)
(-0.00136804 0.0735354 0)
(-0.00116807 0.0886566 0)
(-0.000341961 0.0953228 0)
(0.000878076 0.09648 0)
(0.00222376 0.0958197 0)
(0.00336623 0.0925768 0)
(0.00438785 0.0845312 0)
(0.00527209 0.0746186 0)
(0.00548468 0.0656723 0)
(0.00524502 0.057956 0)
(0.00525567 0.0491975 0)
(0.00498195 0.0375833 0)
(0.00496399 0.0224614 0)
(0.00475364 0.00594554 0)
(0.00429875 -0.0101652 0)
(0.00395603 -0.0279486 0)
(0.00505589 -0.0525081 0)
(0.00552017 -0.0909484 0)
(0.00395267 -0.151772 0)
(0.00248041 -0.241352 0)
(-0.000998895 -0.195808 0)
(-0.000686324 -0.0985347 0)
(-0.00100881 -0.0314692 0)
(-0.00228392 0.0136628 0)
(-0.00174354 0.0487953 0)
(-0.00162187 0.07161 0)
(-0.000943832 0.0870348 0)
(-0.000219195 0.0931317 0)
(0.00124893 0.0942217 0)
(0.00258169 0.0926063 0)
(0.00441835 0.0893836 0)
(0.00592299 0.081861 0)
(0.00711442 0.0725957 0)
(0.0075849 0.0653391 0)
(0.00781035 0.0576556 0)
(0.00848929 0.0489068 0)
(0.00943816 0.0376256 0)
(0.00985924 0.0233041 0)
(0.00949102 0.00805476 0)
(0.00844693 -0.00801563 0)
(0.00777941 -0.0280182 0)
(0.00811797 -0.0541625 0)