/*--------------------------------*- C++ -*----------------------------------*\
| =========                 |                                                 |
| \\      /  F ield         | OpenFOAM: The Open Source CFD Toolbox           |
|  \\    /   O peration     | Version:  2312                                  |
|   \\  /    A nd           | Website:  www.openfoam.com                      |
|    \\/     M anipulation  |                                                 |
\*---------------------------------------------------------------------------*/
FoamFile
{
    version     2.0;
    format      ascii;
    arch        "LSB;label=32;scalar=64";
    class       volVectorField;
    location    "0.885/water";
    object      U.gas;
}
// * * * * * * * * * * * * * * * * * * * * * * * * * * * * * * * * * * * * * //

dimensions      [0 1 -1 0 0 0 0];

internalField   nonuniform List<vector> 
1504
(
(0.0398374776593 1.48119350918 0)
(0.0506464054209 1.52682223673 0)
(0.00500773785445 1.7463230893 0)
(-0.0236062910205 1.97451129307 0)
(-0.0374590247938 1.56977307343 0)
(-0.0360233220893 1.17848373092 0)
(-0.0280392058222 0.994671984533 0)
(-0.0184093382721 0.888693217217 0)
(-0.00887932833022 0.814468001052 0)
(0.000274785378534 0.770563329506 0)
(0.00975059967949 0.738764211702 0)
(0.0189803856606 0.705705538464 0)
(0.0260734903389 0.669994385103 0)
(0.0299393280492 0.637588117403 0)
(0.0314089325519 0.624101151631 0)
(0.0310621759571 0.608193638857 0)
(0.0279660479243 0.57522814981 0)
(0.0218470358562 0.521788485825 0)
(0.0126843443666 0.47233573402 0)
(7.08676800921e-05 0.452579191246 0)
(0.00452593072994 1.79654064536 0)
(-0.0245947217273 1.76679928834 0)
(-0.0629773465167 1.85231915231 0)
(-0.0647758956743 2.01634401757 0)
(-0.0563076176281 1.54869366546 0)
(-0.044524704389 1.13907948915 0)
(-0.0317437718307 0.960088284407 0)
(-0.0189937006411 0.860439142453 0)
(-0.00736783087623 0.794083043667 0)
(0.00323967445586 0.75643124665 0)
(0.0137479958411 0.726673468029 0)
(0.0235353819803 0.695255195344 0)
(0.0308537765413 0.660984063408 0)
(0.0348171178355 0.629560945416 0)
(0.0363909763559 0.614756030972 0)
(0.0361953316327 0.600171664697 0)
(0.0333539518845 0.569334880343 0)
(0.027711941212 0.521332453775 0)
(0.0196878725912 0.468656556004 0)
(0.00827271878573 0.445438985601 0)
(0.0103456899213 2.14721043166 0)
(-0.0324418957619 2.17397367115 0)
(-0.0847343664363 1.88372501332 0)
(-0.0728967441735 1.95446865016 0)
(-0.0533944803416 1.47885462795 0)
(-0.0389577181924 1.08817869449 0)
(-0.0260941584582 0.920732761872 0)
(-0.0123263972919 0.830620764398 0)
(0.000384444799687 0.77458614895 0)
(0.0119133010619 0.742323512431 0)
(0.0230256555456 0.714736017557 0)
(0.0329091553257 0.685221199396 0)
(0.0400058021954 0.652854202858 0)
(0.043643552131 0.62280516701 0)
(0.044829350724 0.606349588892 0)
(0.044501147973 0.592575341294 0)
(0.0419561635823 0.564053972884 0)
(0.0365207280698 0.521343168154 0)
(0.0287168198507 0.467462718951 0)
(0.0179429433179 0.440075309022 0)
(0.0303603670182 2.2235693695 0)
(0.0535256896897 2.44285362674 0)
(0.0141516621899 2.03379700572 0)
(-0.0155433929654 1.89068052729 0)
(-0.0109457655036 1.42186969255 0)
(-0.00798175766573 1.05930923489 0)
(-0.00295025306043 0.894649359871 0)
(0.00668003616514 0.809256375142 0)
(0.0176598624898 0.760506005599 0)
(0.0287542118747 0.731264941935 0)
(0.0395034095107 0.705323026307 0)
(0.0486755844608 0.677494723029 0)
(0.0547400804506 0.647041182262 0)
(0.057194497737 0.618387862485 0)
(0.0572041546846 0.60023977887 0)
(0.0564223677407 0.586053865328 0)
(0.0541631248968 0.560389237181 0)
(0.0485591851389 0.522988311416 0)
(0.0400940814798 0.470206712114 0)
(0.0292546394348 0.437270647022 0)
(0.0415463202545 2.09482338497 0)
(0.0843263998108 2.42123757715 0)
(0.0760737837981 2.20720882555 0)
(0.0549206138975 1.92278967756 0)
(0.0390430354085 1.42012399297 0)
(0.0314625193035 1.06812839573 0)
(0.0290118488672 0.892699498557 0)
(0.0335491934047 0.802983236126 0)
(0.0420049894848 0.755138988194 0)
(0.0519566551739 0.726229699867 0)
(0.0616822704174 0.700881881603 0)
(0.0696140951956 0.67415063278 0)
(0.0740026754632 0.645220372059 0)
(0.0743938267737 0.617649390773 0)
(0.0727118123655 0.597845217561 0)
(0.0714535019965 0.581997299046 0)
(0.069387679591 0.559502179237 0)
(0.0630941232494 0.527728633442 0)
(0.0530738500327 0.477964175564 0)
(0.0415411232658 0.438193875994 0)
(0.0394410833784 1.90509652681 0)
(0.0859625798906 2.32661266707 0)
(0.0927229782176 2.21499809029 0)
(0.0867296568035 1.98646317849 0)
(0.0758265601103 1.45132395313 0)
(0.0662610054326 1.09853431841 0)
(0.0612806271106 0.909222364622 0)
(0.0631326091679 0.810374470642 0)
(0.0698246136398 0.758906917361 0)
(0.0785399230715 0.728379463852 0)
(0.0870384996714 0.702569796089 0)
(0.0935143040618 0.676278546313 0)
(0.0956477111656 0.648322452059 0)
(0.0932698868142 0.621433006965 0)
(0.0899093504299 0.600148722352 0)
(0.0885221427393 0.582228577597 0)
(0.0865563250551 0.562591124199 0)
(0.0789562953766 0.536881704876 0)
(0.0665411817991 0.490813455132 0)
(0.0538035603392 0.44388090555 0)
(0.0350640919467 1.74203261613 0)
(0.0766849552192 2.20609755826 0)
(0.0873043287833 2.16077411458 0)
(0.093915563729 1.98414418886 0)
(0.0948562432427 1.47384943114 0)
(0.0908489891386 1.12873474081 0)
(0.0883026707931 0.93302595116 0)
(0.09069894564 0.82653649699 0)
(0.097334551265 0.770441331687 0)
(0.105497428383 0.737426399922 0)
(0.113002326489 0.710422101289 0)
(0.117917836997 0.683985017833 0)
(0.117282703768 0.656389242867 0)
(0.111965067575 0.629904167767 0)
(0.107475668587 0.607754182439 0)
(0.106552511522 0.588292861861 0)
(0.104578171974 0.570906225565 0)
(0.0947561505095 0.551093174837 0)
(0.0791444931574 0.508490830267 0)
(0.0649500919891 0.454888817302 0)
(0.0320270452741 1.61964614565 0)
(0.0693305971091 2.09783489514 0)
(0.0800611261823 2.08289457935 0)
(0.0923389272634 1.92661499245 0)
(0.10282695351 1.4608450475 0)
(0.107192100823 1.14461933579 0)
(0.109453890966 0.954881696193 0)
(0.114542346584 0.846223866157 0)
(0.122604260829 0.78735084406 0)
(0.130944531002 0.752107565036 0)
(0.137696174496 0.723649119696 0)
(0.14088417129 0.696712872122 0)
(0.137412819269 0.669025576689 0)
(0.129831486708 0.642872000523 0)
(0.124839648992 0.620704478569 0)
(0.12447968348 0.600858006869 0)
(0.121916548579 0.58521893057 0)
(0.108959295488 0.570260369587 0)
(0.0899853417695 0.530681464289 0)
(0.0745086459953 0.471378426456 0)
(0.0267668182615 1.546338874 0)
(0.0554563181405 2.01922496394 0)
(0.0619314586175 2.00812410752 0)
(0.0823083316513 1.81202878057 0)
(0.106214286869 1.41039426524 0)
(0.118212209083 1.14237206542 0)
(0.125954446815 0.970110495325 0)
(0.13500591692 0.865974587577 0)
(0.145560509377 0.807710728911 0)
(0.154404228535 0.771088084299 0)
(0.160343066398 0.741279364831 0)
(0.161693598111 0.71367432054 0)
(0.155660334367 0.68571408277 0)
(0.146595911824 0.659996411438 0)
(0.141651333895 0.638537954857 0)
(0.141486403683 0.619397993092 0)
(0.137081584996 0.605431004301 0)
(0.120562493104 0.594177870037 0)
(0.0989948083644 0.557383548744 0)
(0.0825570707464 0.493386764013 0)
(0.0212344284851 1.53538798812 0)
(0.0416990343824 1.98291143114 0)
(0.0490354572083 1.93198202353 0)
(0.0786141431954 1.63703309119 0)
(0.110024333952 1.34247064589 0)
(0.12673216785 1.12702318988 0)
(0.139967761438 0.978906642059 0)
(0.153681072309 0.885121285246 0)
(0.166689465987 0.83056362119 0)
(0.17537942421 0.793263269231 0)
(0.180084046623 0.762414092528 0)
(0.179576238336 0.734128026146 0)
(0.171647443215 0.705966099577 0)
(0.162046561668 0.680947853695 0)
(0.15724504709 0.660607438082 0)
(0.156189438011 0.642674272051 0)
(0.148899488015 0.630818220327 0)
(0.129280131288 0.622568560297 0)
(0.106111241548 0.588574692239 0)
(0.0887841064812 0.520744406683 0)
(0.0172178930531 1.58018210951 0)
(0.0335091199859 1.97608158276 0)
(0.0575632896767 1.76863942667 0)
(0.0953346590362 1.4880796249 0)
(0.118474374534 1.2786361737 0)
(0.137665717469 1.10754561915 0)
(0.155442299135 0.985065841733 0)
(0.172858389863 0.905330206292 0)
(0.186248873547 0.855348853724 0)
(0.193365191442 0.817798438259 0)
(0.19658887712 0.786343628646 0)
(0.194353928372 0.757497167 0)
(0.185288570159 0.72939339419 0)
(0.175698553781 0.705280646013 0)
(0.170505075291 0.685874578824 0)
(0.167291292766 0.669257638302 0)
(0.156441759463 0.660084822398 0)
(0.13432485631 0.654282275311 0)
(0.110737548686 0.623256786042 0)
(0.093052323935 0.553461685204 0)
(0.012382948944 1.68016983038 0)
(0.0478144414381 1.8655352811 0)
(0.0838169807022 1.59317183164 0)
(0.108792759158 1.39724536753 0)
(0.131546130851 1.22781570187 0)
(0.152906973416 1.0922488056 0)
(0.174170432898 0.994271088698 0)
(0.192323862318 0.928337476583 0)
(0.202791075038 0.881668677663 0)
(0.207350300382 0.844440470428 0)
(0.209151846999 0.812718678643 0)
(0.20559247086 0.783394944142 0)
(0.196104160461 0.755505356957 0)
(0.186275778818 0.732082933016 0)
(0.17964977048 0.712947349373 0)
(0.172966650543 0.697384179114 0)
(0.158066643076 0.69137217452 0)
(0.135192508053 0.68808743642 0)
(0.113380172861 0.65990775914 0)
(0.095495855074 0.591169312954 0)
(0.0237955226103 1.74169510663 0)
(0.0654927452751 1.68233171228 0)
(0.0964904830064 1.48962383063 0)
(0.122143613541 1.32605680723 0)
(0.146786952884 1.19178904964 0)
(0.171134714443 1.08682758189 0)
(0.193065440422 1.00990589214 0)
(0.207109239792 0.953639052288 0)
(0.213210083982 0.909383111537 0)
(0.215790791739 0.872978197562 0)
(0.216112840313 0.841131037734 0)
(0.211684300948 0.811293103378 0)
(0.202152764778 0.783464345245 0)
(0.191549636777 0.760040575272 0)
(0.182092226242 0.740179835437 0)
(0.170865226005 0.725068333381 0)
(0.153567998408 0.72277535611 0)
(0.132858692597 0.722541030175 0)
(0.113782814638 0.696569166277 0)
(0.0950293883689 0.631639021004 0)
(0.0245887336758 1.72134827789 0)
(0.0698074494162 1.55604748329 0)
(0.104548901702 1.40117446374 0)
(0.133797329531 1.27265812387 0)
(0.162583160878 1.17175107719 0)
(0.187365975401 1.09222862935 0)
(0.204172679809 1.03016307534 0)
(0.212118547717 0.979875475993 0)
(0.215654684155 0.938091180455 0)
(0.216830866906 0.902499121778 0)
(0.215356849873 0.870594128798 0)
(0.210294212103 0.840398360466 0)
(0.200884757065 0.812146446968 0)
(0.188517853016 0.787638778599 0)
(0.175192095387 0.766083196247 0)
(0.160637393826 0.750992397353 0)
(0.143720386986 0.752575664635 0)
(0.126357155755 0.755646277973 0)
(0.109379949015 0.731265281041 0)
(0.0900934367549 0.671695263619 0)
(0.0212456406983 1.68519931441 0)
(0.0690573691124 1.45505336113 0)
(0.111681110849 1.33231912285 0)
(0.14492337701 1.23908977391 0)
(0.173701200032 1.16622194443 0)
(0.191988560754 1.10487704169 0)
(0.202165280569 1.05250279062 0)
(0.207875706692 1.00681817551 0)
(0.210467780699 0.966955465642 0)
(0.209646169125 0.93194357735 0)
(0.20599698422 0.900139437056 0)
(0.199591273332 0.869821965242 0)
(0.189304563239 0.840704070937 0)
(0.174895932609 0.814129176676 0)
(0.15888965056 0.790331133921 0)
(0.143222445574 0.774343031302 0)
(0.128012293103 0.778739414782 0)
(0.11383431501 0.785631199828 0)
(0.0992799232051 0.763490945765 0)
(0.082067847807 0.709001282963 0)
(0.0218030522513 1.60368132247 0)
(0.079584213268 1.38030210597 0)
(0.127801793585 1.29407198978 0)
(0.1538519271 1.22916307808 0)
(0.174380518501 1.17499866253 0)
(0.186479398623 1.12583745534 0)
(0.195493412764 1.07965933003 0)
(0.200056629249 1.03617408125 0)
(0.199517415049 0.996736990797 0)
(0.194933372743 0.961997638785 0)
(0.187724120894 0.93040602981 0)
(0.178595767662 0.899832602396 0)
(0.166162818202 0.869347944162 0)
(0.150214265318 0.840106124577 0)
(0.133763129471 0.813621737693 0)
(0.118888302849 0.794903365728 0)
(0.106415836649 0.798756769949 0)
(0.0964413108213 0.809732436943 0)
(0.0858308763851 0.79205970505 0)
(0.0720981929197 0.741576446371 0)
(0.021499232709 1.53035474667 0)
(0.0880922435971 1.35685785805 0)
(0.138142968169 1.29963062844 0)
(0.152941586156 1.25043658574 0)
(0.16937338961 1.20718750088 0)
(0.181106497707 1.1635971951 0)
(0.187758637828 1.11754585741 0)
(0.187189000526 1.07177220681 0)
(0.180370121094 1.03091315577 0)
(0.169637304282 0.995805807219 0)
(0.157307098262 0.963908711555 0)
(0.144202915278 0.932199093803 0)
(0.129393184521 0.899379306733 0)
(0.113539872964 0.86679746513 0)
(0.0991930897103 0.836778813488 0)
(0.0871136377381 0.813397459761 0)
(0.0785530005284 0.810550304021 0)
(0.0741606496727 0.823160720762 0)
(0.0693240261498 0.812970059675 0)
(0.0606133221616 0.766356586648 0)
(0.022207334775 1.61303131614 0)
(0.0940627932452 1.42095884942 0)
(0.144293371964 1.36832084803 0)
(0.152419929535 1.3222187321 0)
(0.1643275622 1.2788242458 0)
(0.169718738915 1.22924531325 0)
(0.167363347389 1.17272231767 0)
(0.156894449063 1.11857934731 0)
(0.140901856732 1.07333184803 0)
(0.123161519323 1.03564308683 0)
(0.106222664081 1.00103070424 0)
(0.0906441451493 0.965928138614 0)
(0.0758396573367 0.929124034817 0)
(0.0627034545364 0.892240093 0)
(0.0525972158683 0.857620180905 0)
(0.0452576409039 0.828416767957 0)
(0.0422803490147 0.814191799619 0)
(0.0450535459282 0.820932252555 0)
(0.0482891445664 0.820146752653 0)
(0.0459443138803 0.780028405442 0)
(0.0331864117251 1.8440842275 0)
(0.105255265803 1.60214615119 0)
(0.137168670289 1.52659189686 0)
(0.127863872861 1.46791533594 0)
(0.12138758631 1.40629270032 0)
(0.110661976326 1.32909733926 0)
(0.0946963372613 1.24342727335 0)
(0.0747126105194 1.16998364767 0)
(0.0544073696775 1.11452231012 0)
(0.0366843302238 1.06999953391 0)
(0.022607098183 1.02950967915 0)
(0.0118006821198 0.989071007465 0)
(0.00343900795111 0.947571133173 0)
(-0.00246385728384 0.906417741277 0)
(-0.00574149928108 0.867642558933 0)
(-0.00594393674421 0.833753175693 0)
(-0.00118652911644 0.80968376967 0)
(0.00980069362675 0.803295977591 0)
(0.0225534738893 0.80754294109 0)
(0.0282129788768 0.780894587719 0)
(0.0520040235805 2.06636082414 0)
(0.100555545579 1.83804934882 0)
(0.0727747417469 1.7370949367 0)
(0.0273683863373 1.65349973283 0)
(-0.0101969255855 1.55511076867 0)
(-0.0398879852677 1.42952406863 0)
(-0.0626804172065 1.29387384369 0)
(-0.0775613944052 1.18750269272 0)
(-0.0852236554354 1.11774396597 0)
(-0.087805327132 1.06686883921 0)
(-0.0867493431135 1.02293584229 0)
(-0.0831792326382 0.98038535489 0)
(-0.0779466502941 0.937683855514 0)
(-0.0718118768722 0.895623051419 0)
(-0.0648547522851 0.856149621458 0)
(-0.05608471879 0.82135239058 0)
(-0.0434583021051 0.79303363545 0)
(-0.0246921662445 0.775164137841 0)
(-0.00265386113799 0.774336778952 0)
(0.011999011826 0.766871152518 0)
(0.0662964615171 2.06929103763 0)
(0.0847505351263 2.0134952479 0)
(0.00210771561198 1.90372997863 0)
(-0.0636022650764 1.789246707 0)
(-0.119813759177 1.65483707073 0)
(-0.164400596201 1.48481498412 0)
(-0.194543915708 1.29600729809 0)
(-0.206874149524 1.14714129001 0)
(-0.203633450479 1.06075608386 0)
(-0.191024976928 1.00693284033 0)
(-0.174077999057 0.967222674784 0)
(-0.155689435316 0.930305018987 0)
(-0.137258862338 0.892938198851 0)
(-0.119767635368 0.855708314625 0)
(-0.103315654822 0.820477966682 0)
(-0.0868064583322 0.789239685353 0)
(-0.0686404013223 0.762073281804 0)
(-0.0460820736579 0.739783232209 0)
(-0.0192465843576 0.729630903414 0)
(0.00248279464225 0.736546971894 0)
(0.0493336551944 1.81778601917 0)
(0.0702594908904 2.09954425276 0)
(0.0162912870258 2.01772182365 0)
(-0.0353186471285 1.8863635604 0)
(-0.0894936829854 1.74412655725 0)
(-0.141968500718 1.53565684638 0)
(-0.182327253721 1.28354365919 0)
(-0.204181762338 1.07826594824 0)
(-0.209377324709 0.976111384877 0)
(-0.202609012941 0.918134489396 0)
(-0.186980906026 0.88373487207 0)
(-0.166399254663 0.857144009454 0)
(-0.14433064563 0.828928574762 0)
(-0.123371443739 0.799838581512 0)
(-0.104219858808 0.77158233024 0)
(-0.0858081061442 0.746339339438 0)
(-0.0665681386571 0.72340617661 0)
(-0.0452238341101 0.701536713656 0)
(-0.0197038144926 0.685879426997 0)
(0.00433744774401 0.695084726685 0)
(0.0107627634399 1.6189558377 0)
(0.0168672219019 2.1280800316 0)
(0.00598212689457 2.08744014178 0)
(-0.00669854661187 1.9576472909 0)
(-0.021416652808 1.82644508447 0)
(-0.0476344997854 1.63146891648 0)
(-0.0899917974248 1.35408259836 0)
(-0.120077112312 1.03097740814 0)
(-0.12905360792 0.913218789573 0)
(-0.132645624285 0.848047411619 0)
(-0.12975397715 0.811512075528 0)
(-0.119313351126 0.791922713119 0)
(-0.103211692459 0.77121202219 0)
(-0.0862858858693 0.74884806648 0)
(-0.0708900012648 0.726411164135 0)
(-0.0561968173225 0.706334089533 0)
(-0.0405429436255 0.687685276211 0)
(-0.0227692325626 0.667960535525 0)
(-0.00244415382595 0.650416641184 0)
(0.0173982566829 0.653077262781 0)
(0.00394616976992 1.59703622225 0)
(0.00492903430871 2.14896399372 0)
(-0.000327464346749 2.1176837228 0)
(-0.00416355434234 1.98870805623 0)
(-0.00820550782389 1.86626847871 0)
(-0.0160546380829 1.71566995876 0)
(-0.0280912385835 1.45157009121 0)
(-0.0387972577067 1.02884111468 0)
(-0.0451303341572 0.893323461204 0)
(-0.0484680521483 0.818544199041 0)
(-0.0497255659668 0.774335814894 0)
(-0.0473116350485 0.753796345249 0)
(-0.0394801809254 0.735597775581 0)
(-0.0293648855102 0.716002842363 0)
(-0.0201237780623 0.696186565362 0)
(-0.0113766479127 0.678539829667 0)
(-0.00145865410838 0.662287637724 0)
(0.0110497182742 0.644520560235 0)
(0.025262680684 0.626363257779 0)
(0.0388467282587 0.620528859535 0)
(-0.0025426421779 1.65416686238 0)
(-0.00858202360243 2.19654640128 0)
(-0.0134351173931 2.15091529308 0)
(-0.0154709107466 2.01852388923 0)
(-0.0175866507947 1.90123477507 0)
(-0.0177880333762 1.74529818624 0)
(0.00137003884477 1.40891806929 0)
(0.0185569217734 1.04750302624 0)
(0.0172784825609 0.903290805349 0)
(0.0171003266652 0.820605345156 0)
(0.0180999341328 0.769478891779 0)
(0.0200044842303 0.743685023564 0)
(0.0236395494538 0.72351273439 0)
(0.0282620177657 0.703154741472 0)
(0.0321914580538 0.683083289433 0)
(0.0355252071359 0.665288303284 0)
(0.0398186996856 0.649298013704 0)
(0.0467619158394 0.632389763589 0)
(0.0563311197093 0.613967016003 0)
(0.0649371100074 0.601666213059 0)
(-0.00641438202967 1.77400992665 0)
(-0.0134793249294 2.26194987595 0)
(-0.0145834369016 2.19898957325 0)
(-0.0161559521466 2.06469239137 0)
(-0.0169204686526 1.93725523682 0)
(0.00759437693068 1.66104421945 0)
(0.0418794045869 1.31382789597 0)
(0.0548929239003 1.059800845 0)
(0.0596061097351 0.920968825951 0)
(0.0637488881045 0.836186051633 0)
(0.0686306732295 0.782327870154 0)
(0.0728467965044 0.752086174291 0)
(0.0755130978246 0.728140600346 0)
(0.0772069633617 0.705254512124 0)
(0.0778463538653 0.68337926796 0)
(0.0775178560376 0.663995636081 0)
(0.077635126189 0.646872710152 0)
(0.0800854838658 0.629704508595 0)
(0.0859567544071 0.610974826002 0)
(0.0907811412372 0.594541850904 0)
(-0.000638424053086 1.87033096266 0)
(0.00524267796069 2.30137702649 0)
(0.0141184613751 2.24708267015 0)
(0.0156785033278 2.12057863305 0)
(0.0289211210537 1.90804692688 0)
(0.0524400363835 1.54607644891 0)
(0.0695622112771 1.27174918463 0)
(0.0816894514299 1.06544771929 0)
(0.0902330072393 0.937333341208 0)
(0.0988218853123 0.855140154585 0)
(0.107490557945 0.802746792831 0)
(0.113345272501 0.769502527258 0)
(0.115475905014 0.741771808876 0)
(0.11576817168 0.716064942524 0)
(0.1146609732 0.691991012838 0)
(0.112190938912 0.670616279016 0)
(0.109606080555 0.651825095704 0)
(0.108800776348 0.6337311808 0)
(0.111395222454 0.614434532516 0)
(0.113193039614 0.595429138739 0)
(0.0204419559005 1.83825279463 0)
(0.051792507892 2.27388354605 0)
(0.0681985426154 2.25761367469 0)
(0.0744758084318 2.15310163317 0)
(0.0796942551303 1.84579889781 0)
(0.0887636196003 1.50711233412 0)
(0.0980996146317 1.25332297741 0)
(0.107517096466 1.07161285771 0)
(0.117709011653 0.952328371587 0)
(0.129310835473 0.874746290701 0)
(0.139581454297 0.825319059229 0)
(0.144779773657 0.789597610002 0)
(0.146115788062 0.758971335414 0)
(0.145943667995 0.730978301683 0)
(0.143993808738 0.7049907702 0)
(0.140309573745 0.68180421361 0)
(0.135995190962 0.661363551544 0)
(0.132845532935 0.642120185268 0)
(0.132490964269 0.622141270438 0)
(0.13161203471 0.601321850862 0)
(0.0284509155463 1.84082695191 0)
(0.0712540792097 2.1648334353 0)
(0.0938934735069 2.20155448443 0)
(0.107118066202 2.12916235848 0)
(0.114807520424 1.81396403282 0)
(0.119770106979 1.4902295152 0)
(0.125481328649 1.2502188552 0)
(0.133833416596 1.08051915292 0)
(0.145031475735 0.967337687232 0)
(0.15759142949 0.894653781332 0)
(0.166715273099 0.846868213348 0)
(0.170317561406 0.809301206051 0)
(0.171237006882 0.776954874318 0)
(0.170756796311 0.747444692033 0)
(0.168213597486 0.720079911812 0)
(0.163683171092 0.695488221627 0)
(0.158132871944 0.673631708197 0)
(0.153162879588 0.653238528835 0)
(0.150208372747 0.632506536424 0)
(0.146997689772 0.610346165132 0)
(0.0489903642757 1.89132024837 0)
(0.0979201200012 2.04563889308 0)
(0.105754234107 2.09128159152 0)
(0.121228602608 2.04754641932 0)
(0.133550077501 1.77000335575 0)
(0.141432069911 1.47797083334 0)
(0.148657463981 1.2522566845 0)
(0.158362424841 1.09135039502 0)
(0.170899226209 0.983174861768 0)
(0.183226610575 0.914710888822 0)
(0.190412835996 0.867137844327 0)
(0.192791735218 0.828525541918 0)
(0.193358694458 0.795181792917 0)
(0.192306083814 0.764722721279 0)
(0.189071395135 0.736426891651 0)
(0.183699111408 0.710772386199 0)
(0.177084921652 0.687719858158 0)
(0.170628132313 0.66617108625 0)
(0.165600448379 0.644502444173 0)
(0.160400013271 0.621317984765 0)
(0.0504662044354 1.87327358599 0)
(0.0997230519402 1.95966637951 0)
(0.104742367214 1.96710892756 0)
(0.122991905042 1.92016679406 0)
(0.142816967763 1.70299919481 0)
(0.156076235255 1.4581126554 0)
(0.167367562633 1.25316526413 0)
(0.180166044108 1.10255809967 0)
(0.194523357085 1.00024636696 0)
(0.206542349188 0.935161673996 0)
(0.212273722899 0.887416395765 0)
(0.213670516967 0.848145906401 0)
(0.213526062898 0.814136125635 0)
(0.211590084394 0.78302987363 0)
(0.207384473592 0.75403300908 0)
(0.201032962212 0.727484684661 0)
(0.193361744044 0.703310056362 0)
(0.185639635747 0.680520133201 0)
(0.179027389844 0.65762868831 0)
(0.172659606305 0.63335173298 0)
(0.0522477053538 1.83734632457 0)
(0.105953123803 1.86710986464 0)
(0.112174165751 1.85381262884 0)
(0.128832439555 1.77449810133 0)
(0.149961015258 1.62387696461 0)
(0.167174312588 1.42906053339 0)
(0.183158762638 1.25014912112 0)
(0.199831510331 1.11314073363 0)
(0.216473501425 1.01887742012 0)
(0.228381426056 0.956823571162 0)
(0.232852806578 0.908943163548 0)
(0.233235038595 0.869214409879 0)
(0.232000480392 0.834700344378 0)
(0.228754826014 0.803044132015 0)
(0.223239913185 0.773374440948 0)
(0.215643595015 0.745885277771 0)
(0.206830228623 0.72047307663 0)
(0.198002718824 0.696189093939 0)
(0.190351353413 0.671646610755 0)
(0.183432884923 0.645601573656 0)
(0.0531135434409 1.76435351403 0)
(0.114481993399 1.76553198157 0)
(0.128674881122 1.74825254597 0)
(0.14228794712 1.66250047469 0)
(0.159556499392 1.55028278288 0)
(0.17892825439 1.39577197252 0)
(0.198735594038 1.24466121576 0)
(0.219226845739 1.12420504144 0)
(0.237973030337 1.04021075312 0)
(0.249092289052 0.981059777129 0)
(0.251894211053 0.93322767392 0)
(0.250891987001 0.893177257082 0)
(0.247937740863 0.858133909615 0)
(0.242851384115 0.825802237812 0)
(0.235570345721 0.795236523562 0)
(0.226469591483 0.766508419211 0)
(0.216427703204 0.739478212847 0)
(0.206589866385 0.713115503016 0)
(0.197829094297 0.685890154366 0)
(0.190374564415 0.656906784146 0)
(0.0491848746404 1.67483164529 0)
(0.113249619051 1.66434310762 0)
(0.134763967278 1.6485410803 0)
(0.150541876573 1.5847030681 0)
(0.169796423974 1.49036737216 0)
(0.191149563559 1.36645172239 0)
(0.214416787545 1.24173011707 0)
(0.238473499791 1.13968100838 0)
(0.257944872292 1.06647379233 0)
(0.26655467919 1.00971421227 0)
(0.266814843813 0.962040454716 0)
(0.2637782848 0.921523516397 0)
(0.258410671795 0.885636538452 0)
(0.250943962745 0.852220449577 0)
(0.241652127447 0.820275559726 0)
(0.23099994529 0.789731984597 0)
(0.219599782155 0.760084237069 0)
(0.207946305454 0.730082135968 0)
(0.197676356743 0.698961232774 0)
(0.190825316357 0.666537077292 0)
(0.0359623973557 1.62443746006 0)
(0.0944996442713 1.57569870483 0)
(0.126324350023 1.56187329632 0)
(0.147884666393 1.51706361279 0)
(0.172537368404 1.44342327838 0)
(0.198439122497 1.3459659256 0)
(0.226468437948 1.24640025235 0)
(0.253123709017 1.16347885179 0)
(0.269964381502 1.09885464381 0)
(0.274090899023 1.04356929452 0)
(0.271466154642 0.995836093728 0)
(0.265824364779 0.95437022084 0)
(0.257750032588 0.917108072059 0)
(0.248004345398 0.882051429121 0)
(0.237081576645 0.848004150487 0)
(0.224640552768 0.814142451416 0)
(0.21045393552 0.779967921837 0)
(0.197048252279 0.745416030769 0)
(0.187964799065 0.710476052851 0)
(0.183656750059 0.674393933332 0)
(0.0227427236275 1.65153746608 0)
(0.0750130068602 1.50851150022 0)
(0.114619008695 1.49369743219 0)
(0.1397488374 1.46356950115 0)
(0.169621204577 1.41058794999 0)
(0.200424987046 1.33854767864 0)
(0.23160266215 1.26275873805 0)
(0.255143642897 1.19569349261 0)
(0.26435576819 1.13577879966 0)
(0.263651167556 1.08111490248 0)
(0.258554323868 1.0324592116 0)
(0.250205627568 0.989350192223 0)
(0.239861156258 0.950170491818 0)
(0.228450624429 0.912642279314 0)
(0.215410096736 0.874876253314 0)
(0.200280381719 0.836089888204 0)
(0.185756048996 0.797148242864 0)
(0.175085671559 0.758605528982 0)
(0.169160657859 0.719858676101 0)
(0.167027860388 0.679465430467 0)
(0.0159714499691 1.74038878224 0)
(0.0650451515569 1.47874457215 0)
(0.106586283626 1.45622543138 0)
(0.130914564614 1.43433925178 0)
(0.162737514863 1.39822561629 0)
(0.194247417599 1.34765966608 0)
(0.219706536529 1.29065672719 0)
(0.232360806274 1.23275699273 0)
(0.234763133826 1.17443523403 0)
(0.23142985675 1.11825713896 0)
(0.223401455632 1.06676479953 0)
(0.212161840043 1.02084653158 0)
(0.199359240997 0.978858471245 0)
(0.185867511342 0.937968501784 0)
(0.172270672095 0.895967868017 0)
(0.159935365883 0.852833196839 0)
(0.15009080286 0.809827450697 0)
(0.143502764313 0.76717110605 0)
(0.140791716344 0.724195463657 0)
(0.141241675452 0.679501085694 0)
(0.0206455244509 1.86529391043 0)
(0.0738622451823 1.5126071313 0)
(0.109762041381 1.46709913741 0)
(0.125207622836 1.44421754532 0)
(0.149557491772 1.41710140482 0)
(0.170870301468 1.37981829187 0)
(0.183653732384 1.33319820986 0)
(-0.0635845392811 0.485903606536 0)
(-0.0579199505525 0.484065344564 0)
(-0.0530321719076 0.481787687175 0)
(-0.0485692585314 0.478497366319 0)
(-0.0442199515176 0.473334169792 0)
(-0.0397712659719 0.465391993707 0)
(-0.0351773836026 0.454317937971 0)
(-0.0305572754812 0.440661128497 0)
(-0.0260648103399 0.425379514622 0)
(-0.0217914997872 0.40922129074 0)
(-0.0177760063582 0.392601759486 0)
(-0.0140336137981 0.375697582185 0)
(-0.0105872682355 0.358527047852 0)
(-0.00750930050238 0.340973525361 0)
(-0.00490935729203 0.322804087867 0)
(-0.00231215585826 0.304092290845 0)
(-0.000440794504271 0.286612539047 0)
(-0.0128734251204 0.446948059544 0)
(-0.036933574075 0.454602476352 0)
(-0.0659657177259 0.477555176369 0)
(-0.0729437548915 0.474944492685 0)
(-0.0661063009984 0.473645010378 0)
(-0.0602249591909 0.471639522183 0)
(-0.0548290425963 0.468308311853 0)
(-0.0496024565497 0.462790835472 0)
(-0.0443588143794 0.454332828017 0)
(-0.0390875280037 0.442859764396 0)
(-0.033909299021 0.429085891939 0)
(-0.0289449026097 0.413926454126 0)
(-0.0242551417163 0.398031603173 0)
(-0.0198605277823 0.381752605219 0)
(-0.0157653115092 0.365234881087 0)
(-0.0119832200744 0.348488366321 0)
(-0.00858085235192 0.331405475361 0)
(-0.00567689802581 0.313758179712 0)
(-0.00284272458735 0.295557901736 0)
(-0.000659769995284 0.278538245927 0)
(-0.00397342597866 0.438141653344 0)
(-0.0176953620278 0.438396773224 0)
(-0.0553809113712 0.466182269249 0)
(-0.0804117550203 0.462484651752 0)
(-0.072521569568 0.461858021177 0)
(-0.06579161269 0.460176317749 0)
(-0.0595973676953 0.456827953047 0)
(-0.05363203549 0.450992227642 0)
(-0.047741301736 0.442114753193 0)
(-0.0419419034877 0.430385094115 0)
(-0.036343573457 0.416620120424 0)
(-0.0310322532278 0.401668515673 0)
(-0.0260417728619 0.386093887354 0)
(-0.021377417256 0.370195082895 0)
(-0.0170337805299 0.354093005397 0)
(-0.0130158164902 0.33779243723 0)
(-0.00938217938002 0.321198014366 0)
(-0.00625650680961 0.304093988117 0)
(-0.00327367066158 0.286429343897 0)
(-0.000854097118276 0.269839435304 0)
(0.00654041659401 0.430610019622 0)
(-0.00307364310224 0.428164041447 0)
(-0.0482893379129 0.448321652519 0)
(-0.0846854837958 0.449320768867 0)
(-0.0766028565779 0.449083678474 0)
(-0.0692091372528 0.447771855841 0)
(-0.0623916124861 0.4444217402 0)
(-0.0558736608715 0.438307579667 0)
(-0.0495308846153 0.42911163113 0)
(-0.0433948041916 0.417255716445 0)
(-0.0375532672594 0.403604066798 0)
(-0.0320577553428 0.388928730153 0)
(-0.0269191170008 0.373719028134 0)
(-0.022129519105 0.358231483566 0)
(-0.0176756408207 0.342567891115 0)
(-0.0135544068224 0.326730521308 0)
(-0.00981406674646 0.310638445341 0)
(-0.00657889021023 0.294095289146 0)
(-0.00356682346092 0.276991936875 0)
(-0.0010130406688 0.260805912552 0)
(0.0179114533263 0.424812921337 0)
(0.00918945049327 0.421312407524 0)
(-0.0318922969107 0.4261798955 0)
(-0.0757013143226 0.436852264527 0)
(-0.0777271816319 0.435907484063 0)
(-0.069810829051 0.434984886212 0)
(-0.062636624212 0.431620203545 0)
(-0.0558311208571 0.425253991035 0)
(-0.0492977519424 0.415826347349 0)
(-0.043070993311 0.403946559215 0)
(-0.0372104547645 0.39048268654 0)
(-0.0317367164633 0.376128945721 0)
(-0.0266420396028 0.361311958723 0)
(-0.0219087333455 0.34625404541 0)
(-0.0175174083075 0.331042272521 0)
(-0.0134581353232 0.315678160012 0)
(-0.0097685029284 0.300096513678 0)
(-0.00656795819285 0.28412694484 0)
(-0.00367113488195 0.267611119805 0)
(-0.00111592893667 0.251811196383 0)
(0.0302512844447 0.421763077073 0)
(0.0215839173089 0.417465017901 0)
(-0.00367699261237 0.41256224377 0)
(-0.0524804960466 0.425461139761 0)