/*--------------------------------*- C++ -*----------------------------------*\
| =========                 |                                                 |
| \\      /  F ield         | OpenFOAM: The Open Source CFD Toolbox           |
|  \\    /   O peration     | Version:  2312                                  |
|   \\  /    A nd           | Website:  www.openfoam.com                      |
|    \\/     M anipulation  |                                                 |
\*---------------------------------------------------------------------------*/
FoamFile
{
    version     2.0;
    format      ascii;
    arch        "LSB;label=32;scalar=64";
    class       volScalarField;
    location    "0.09/water";
    object      Tf.gasAndLiquid;
}
// * * * * * * * * * * * * * * * * * * * * * * * * * * * * * * * * * * * * * //

dimensions      [0 0 0 1 0 0 0];

internalField   nonuniform List<scalar> 
750
(
301.590570277
300.599245415
300.227729846
300.08619973
300.032724363
300.012431373
300.004726769
300.001829873
300.000734765
300.000269096
300.000075817
300.000014364
300.000001527
300.000000074
300
300
300
300
300
301.418734554
300.470965582
300.157346476
300.052336039
300.017385653
300.005781659
300.001928517
300.000648555
300.000220703
300.000076406
300.00002683
300.000009241
300.000002947
300.000000617
300
300
300
300
300
301.015282604
300.317970412
300.098209657
300.030279674
300.009340878
300.002860613
300.000862354
300.000254719
300.000074422
300.000022955
300.000007004
300.000001948
300.000000329
300
300
300
300
300.000000012
300.000000004
300.869074938
300.260610639
300.075460979
300.022014737
300.006500676
300.001876972
300.000519212
300.000133874
300.000035109
300.000009341
300.000002273
300.000000332
300
300
300
300
300
300.000000082
300.000000024
301.662705519
300.564879757
300.181216753
300.054412167
300.015267824
300.004037735
300.001010818
300.000238406
300.000057131
300.000013323
300.000002866
300.00000041
300
300
300
300
300.000000014
300.000000111
300
301.568253789
300.535875127
300.180103962
300.059854433
300.01928389
300.005780198
300.001583889
300.000402432
300.000098898
300.000023363
300.000005282
300.000001058
300.000000108
300
300
300.000000013
300.000000048
300.000000103
300
300.955390626
300.338445215
300.117513078
300.040350637
300.013768816
300.004563158
300.001429199
300.000420101
300.000116243
300.000030296
300.00000759
300.000001846
300.000000425
300.000000093
300.000000042
300.000000071
300.000000095
300.000000116
300
300.460967335
300.147856347
300.051891827
300.019014696
300.006762026
300.002328138
300.00077186
300.000248817
300.000077312
300.000022731
300.000006409
300.000001785
300.000000523
300.00000019
300.000000118
300.000000125
300.000000131
300.000000129
300
300.242218292
300.061027277
300.019579934
300.007552025
300.002816974
300.000999111
300.000339946
300.000116346
300.000038977
300.000012695
300.000004114
300.000001373
300.000000518
300.000000247
300.000000168
300.000000156
300.000000143
300.000000116
300
300.182846772
300.037650217
300.00860112
300.003025685
300.001164904
300.000423846
300.000146406
300.00005346
300.000019189
300.000006873
300.000002612
300.000001097
300.00000051
300.000000278
300.000000208
300.00000019
300.000000143
300.000000078
300
300.607366507
300.179368178
300.036865467
300.006420404
300.001522148
300.000522717
300.000185466
300.000062981
300.000024378
300.000009458
300.0000038
300.000001637
300.00000074
300.000000314
300.000000174
300.000000186
300.000000192
300.000000102
300.000000005
300
300.662313196
300.191633124
300.042251713
300.007349325
300.001337732
300.000339297
300.000100094
300.000029166
300.000011621
300.000004915
300.000002263
300.000001028
300.000000248
300
300
300.000000063
300.000000111
300.000000008
300
300
300.872529363
300.238913852
300.05538313
300.010293562
300.002125722
300.000495061
300.000110725
300.000022766
300.00000735
300.00000318
300.000001588
300.000000659
300
300
300
300
300
300
300
300
301.613378001
300.403731827
300.127680237
300.036357059
300.009234613
300.002311468
300.000618515
300.000152146
300.000025879
300.000006162
300.000002358
300.000000898
300
300
300
300
300
300
300
300
303.543511451
300.901278872
300.279125534
300.09856903
300.027668885
300.006945721
300.002129873
300.000695428
300.000177356
300.000030785
300.000006706
300.000002093
300.000000638
300
300
300
300
300
300
300.000000414
303.827547914
301.213672574
300.435007641
300.166224799
300.049784221
300.012091998
300.004114687
300.001607403
300.000500036
300.000095475
300.000013864
300.000003717
300.000000957
300.000000155
300
300
300
300
300
300.000001142
303.325266337
301.210042542
300.490849092
300.19033125
300.058399683
300.015661084
300.005947317
300.002597063
300.000927039
300.00019807
300.000023075
300.000004531
300.000000872
300.000000061
300
300
300
300
300.000000129
300.000000215
303.578322238
301.198610735
300.476900107
300.167616449
300.05162122
300.016714169
300.007109104
300.003290367
300.001336955
300.000317933
300.000039665
300.000005952
300.00000107
300.000000081
300.000000641
300
300
300
300
300
305.354701238
301.662791475
300.601885241
300.210304723
300.052531387
300.017185687
300.007557836
300.003589784
300.001654032
300.000507256
300.00008802
300.000013986
300.000002302
300.000000281
300.000000105
300.00000061
300
300
300
300
305.675558698
301.9127302
300.657047812
300.244372856
300.058209661
300.01626662
300.006921682
300.003365927
300.001578145
300.000564713
300.000113705
300.000020372
300.000003523
300.0000006
300.000000054
300.000000956
300
300
300
300
305.05580381
301.930988427
300.706796576
300.271206185
300.08082575
300.01632737
300.00633983
300.003003029
300.001379789
300.000531362
300.000116228
300.00002207
300.000004416
300.000000926
300.000000039
300.000000172
300.00000102
300
300
300.000000006
303.920371335
301.626642002
300.682109557
300.291800322
300.107038983
300.022574755
300.006247222
300.002756684
300.001250194
300.000480195
300.000127891
300.000027905
300.000006583
300.000001725
300.000000312
300.000000117
300.000001703
300
300
300
303.068381279
301.208471239
300.546558583
300.259896468
300.103976697
300.022977731
300.005530871
300.002333034
300.001041241
300.000408517
300.000112651
300.000027142
300.000007205
300.000002058
300.000000467
300.000000029
300.000000661
300.000001107
300
300
303.160242399
301.030915431
300.453414512
300.216716204
300.085218918
300.017345975
300.0044468
300.001853832
300.000819291
300.000325859
300.000091546
300.000023702
300.000006899
300.000002068
300.000000537
300.000000046
300.000000393
300.000003636
300
300
303.671332626
301.169395682
300.434782286
300.189403267
300.067164599
300.011727488
300.00340203
300.001424436
300.000631578
300.000255113
300.000074772
300.000020076
300.000005979
300.000001871
300.000000555
300.000000075
300.000000129
300.000002336
300.000000414
300
303.8630178
301.382037199
300.502733919
300.187731684
300.060244967
300.009417176
300.002765852
300.001155487
300.000516476
300.000215387
300.000070294
300.000021137
300.000005612
300.000001842
300.000000561
300.000000083
300.000000058
300.000001796
300.000009112
300
303.00362361
301.231254221
300.513352404
300.195982187
300.063809344
300.013079423
300.002584423
300.001055939
300.000473079
300.000207519
300.000079263
300.000029589
300.000009601
300.000002431
300.000000823
300.000000222
300.000000026
300.000000856
300.000006159
300
302.102422098
300.912406821
300.403198583
300.175758666
300.064779879
300.01689737
300.002846971
300.001042627
300.000468929
300.000217327
300.00009722
300.000044723
300.000019671
300.000006867
300.000001519
300.000000552
300.000000282
300.000002331
300.000013782
300.000000062
302.022633313
300.875855383
300.385457598
300.163470655
300.065679402
300.020886852
300.004784466
300.00113884
300.000505909
300.000242755
300.000122903
300.000065939
300.000035369
300.000016846
300.000006164
300.00000143
300.00000088
300.000005921
300.000026597
300.000000196
303.594653535
301.389454394
300.513184369
300.190978988
300.072576153
300.023076057
300.005292961
300.001303063
300.000554729
300.00027205
300.000149043
300.000088371
300.000053141
300.000029471
300.000013811
300.000005084
300.000001826
300.000009386
300.000035797
300.000000611
304.126600171
301.977284481
300.941442095
300.412904441
300.165398412
300.052406668
300.012168037
300.00284535
300.000945781
300.000396315
300.000204334
300.000121581
300.000076596
300.000046524
300.000025453
300.000012364
300.000005868
300.000011141
300.000040161
300.000001695
302.992647743
301.279359048
300.689899539
300.354324183
300.162497291
300.062132359
300.018002447
300.004741512
300.001484639
300.000581758
300.000283547
300.000163559
300.000103993
300.000066296
300.000039681
300.000022446
300.000013191
300.000015507
300.000046745
300.000005312
301.70561278
300.771683984
300.408246394
300.23533952
300.123426621
300.054823495
300.020049177
300.00642151
300.002250856
300.000917813
300.000428857
300.000233433
300.000142801
300.000091079
300.000056805
300.000034905
300.000022924
300.000020648
300.000048158
300.000012226
301.127702879
300.547962698
300.268397446
300.159594715
300.096769531
300.049890034
300.022071066
300.00856558
300.00340381
300.00154004
300.000732093
300.00037074
300.000208667
300.000126648
300.000078594
300.000049939
300.000034713
300.00002886
300.00003642
300.000025704
305.485126165
302.371967767
300.513497928
300.194662145
300.100426391
300.053001787
300.025804624
300.011427815
300.004943452
300.002381625
300.001212956
300.00060964
300.000320495
300.00018163
300.000108957
300.000069321
300.000049214
300.000041884
300.000052968
300.000046136
306.744268758
302.593133986
300.80723133
300.27297478
300.126938828
300.06638031
300.033589296
300.016127935
300.007501855
300.003598228
300.001897542
300.000998092
300.000506532
300.000271401
300.0001568
300.000098424
300.000069292
300.000055743
300.000056683
300.000057839
304.878562492
301.602367614
300.652006378
300.272887289
300.140853628
300.07784118
300.041179006
300.021087994
300.010513648
300.005121544
300.00262177
300.001434425
300.000733028
300.000379142
300.000214405
300.000133424
300.00009316
300.000073335
300.000063116
300.000061926
302.58486955
300.945024737
300.49131512
300.252405434
300.146691423
300.085868179
300.047114019
300.025356801
300.013200052
300.006609713
300.003290745
300.001795908
300.000935364
300.000474722
300.000267732
300.000167465
300.000117291
300.000092043
300.000076423
300.000069582
)
;

boundaryField
{
    emptyPatch
    {
        type            empty;
    }
    minY
    {
        type            calculated;
        value           nonuniform List<scalar> 
19
(
300
300
300
300
300
300
300
300
300
300
300
300
300
300
300
300
300
300
300
)
;
    }
    maxY
    {
        type            calculated;
        value           nonuniform List<scalar> 0();
    }
    maxX
    {
        type            calculated;
        value           nonuniform List<scalar> 
38
(
300
300
300
300
300
300
300
300
300
300
300
300
300
300
300
300
300
300
300
300
300
300
300
300
300
300
300
300
300
300
300
300
300
300
300
300
300
300
)
;
    }
    water_to_heater
    {
        type            calculated;
        value           nonuniform List<scalar> 0();
    }
    procBoundary1to0
    {
        type            processor;
        value           nonuniform List<scalar> 
38
(
302.467553865
302.740598245
303.957482546
307.032013266
309.615609907
309.608504533
308.628090205
310.004908529
313.861636493
313.408067949
311.210620597
308.668282921
308.440871806
309.457775253
310.023659681
309.570806393
306.857305804
304.940182477
305.064013397
308.205864555
310.491858037
307.077571958
304.211858767
303.780523694
309.766793334
313.263122009
309.862873341
304.407543178
304.056518992
303.118916477
302.729377343
304.469575359
304.714936285
302.811329793
301.322138635
300.735275851
300.593526149
300.593526149
)
;
    }
    procBoundary1to2
    {
        type            processor;
        value           nonuniform List<scalar> 
20
(
301.331982865
300.657402337
300.370577142
300.22505206
300.145041422
300.088484125
300.049514173
300.027333309
300.014487524
300.007366396
300.003646806
300.001987002
300.001041249
300.00053554
300.000306917
300.000196518
300.000140186
300.000110457
300.000091584
300.000082175
)
;
    }
    procBoundary1to3
    {
        type            processor;
        value           uniform 305.555319035;
    }
}


// ************************************************************************* //
