/*--------------------------------*- C++ -*----------------------------------*\
| =========                 |                                                 |
| \\      /  F ield         | OpenFOAM: The Open Source CFD Toolbox           |
|  \\    /   O peration     | Version:  2312                                  |
|   \\  /    A nd           | Website:  www.openfoam.com                      |
|    \\/     M anipulation  |                                                 |
\*---------------------------------------------------------------------------*/
FoamFile
{
    version     2.0;
    format      ascii;
    arch        "LSB;label=32;scalar=64";
    class       volScalarField;
    location    "0.695/water";
    object      k.gas;
}
// * * * * * * * * * * * * * * * * * * * * * * * * * * * * * * * * * * * * * //

dimensions      [0 2 -2 0 0 0 0];

internalField   nonuniform List<scalar> 
1503
(
0.0343868937811
0.00808267775531
0.00220682435794
0.000855334270303
0.000966960386446
0.00117784433768
0.00124890631564
0.00126730394971
0.00127232842189
0.00127163908487
0.00126786928931
0.00126258078969
0.00125701889009
0.00125192295492
0.00124764032272
0.00124425454456
0.00124170157068
0.00123985409759
0.00123857483227
0.00123774491933
0.474029576213
0.147424187448
0.0406192102698
0.0132639151852
0.00365549110274
0.00168065075337
0.00117923565601
0.00122656295431
0.00127330404519
0.00128241519197
0.0012809445516
0.00127623741472
0.00127002528815
0.00126331821701
0.00125684714685
0.00125109569308
0.00124631173571
0.00124255502399
0.00123976643993
0.00123783425996
0.669350795984
0.251156655573
0.0900737027424
0.0305993060111
0.0108808934061
0.00353997144984
0.00158145067458
0.00117931986419
0.0012485745825
0.00128529914342
0.00129026699971
0.00128821348266
0.00128347254873
0.00127724586542
0.00127033031161
0.00126340513138
0.00125702028645
0.00125154524805
0.00124716198595
0.00124390590477
0.824681020656
0.328699520423
0.13050627547
0.0498625097187
0.0211639328419
0.00667716800461
0.00248072698527
0.00129675926684
0.00120628012293
0.00127684875339
0.00129392984888
0.00129521219902
0.00129270158887
0.00128802969478
0.00128195600761
0.001275110301
0.00126812680591
0.00126158564771
0.00125592601413
0.00125140952527
0.901699640414
0.378369190889
0.159639622511
0.0667617964372
0.0260911432997
0.0116841729763
0.00352500087384
0.00156179976226
0.00117651037659
0.0012555543734
0.00129353365943
0.00129881151614
0.00129869710342
0.00129594768372
0.00129131077701
0.00128531452179
0.00127853118645
0.00127159937319
0.00126512781422
0.00125959407865
0.909678778003
0.402389626935
0.179370248851
0.0798708962643
0.034298856184
0.0132668943592
0.00571130592757
0.00179352354694
0.00114464890502
0.00121351564685
0.00128952099352
0.00130081761753
0.00130270454795
0.00130178222066
0.00129864094461
0.00129372644184
0.00128751505297
0.00128060901717
0.0012736856788
0.00126737759691
0.894075826019
0.408632093991
0.189744148132
0.0886784528528
0.0407140914563
0.0175670613011
0.00658384859565
0.00258551290563
0.00101931126386
0.00109486861469
0.00127452774699
0.00130291627967
0.00130599293944
0.00130646688856
0.0013045757542
0.00130063044776
0.00129502613352
0.00128829968761
0.0012811287393
0.00127423144805
0.89489685493
0.409742050685
0.193907777675
0.0937340377153
0.0452967536289
0.0211469704379
0.00893228628948
0.00333754770557
0.00115709636337
0.000812097237054
0.00119915195908
0.00130421522111
0.0013094308303
0.00131045927577
0.00130939559195
0.00130614423144
0.00130101079211
0.00129446732231
0.00128715599522
0.00127982119438
0.893148041097
0.408956355259
0.194910460724
0.0964017001873
0.0485029903815
0.0240492750705
0.0111226299591
0.00440233911496
0.00173637717265
0.000640633302136
0.000940915998714
0.00128866966225
0.00131370745126
0.00131395948013
0.00131309951236
0.0013101869757
0.00130533200741
0.00129892972654
0.00129156321693
0.00128397869223
0.88600011109
0.404388053002
0.193616577943
0.0976694693622
0.0507862379356
0.0262787313823
0.0129278088862
0.00570450551394
0.00206187749044
0.00085153817065
0.000594944966903
0.00118440010985
0.00131766370811
0.00131722587634
0.0013156436216
0.00131266151103
0.00130790060851
0.00130162871321
0.00129434283785
0.00128670491614
0.870718243793
0.396115722376
0.191707256402
0.0987106181598
0.0525974995387
0.0279069443963
0.0142781072363
0.00680895807741
0.002827822481
0.00102112424756
0.000509841514446
0.000902936194973
0.00131049561061
0.00132082068399
0.00131719982992
0.00131370348336
0.00130891714651
0.00130281431387
0.00129574083947
0.00128823878023
0.852006600318
0.390530280353
0.192345186153
0.100636658937
0.0541918654331
0.0289995707637
0.0151855371924
0.00771879745514
0.00359053883867
0.00137390080397
0.000678616487722
0.000604306020604
0.00125645368137
0.00132611833223
0.00131864755539
0.00131401579174
0.00130905824652
0.00130313460636
0.00129635210372
0.00128909338407
0.856459606543
0.398600672552
0.198684294117
0.104060452514
0.0556113317261
0.0296785407616
0.0158735631141
0.00855744512726
0.00436901955314
0.00191475060929
0.000804391768795
0.000513060054486
0.00109209398721
0.00133405752246
0.00132211273651
0.00131502418493
0.00130955299551
0.00130366541659
0.00129708047312
0.00128998725136
0.900774542527
0.427158700388
0.211988962475
0.108527118326
0.0566724661901
0.0302159422518
0.0166271448038
0.00944541063115
0.00525921212984
0.00258698217444
0.00106375384544
0.000645225571107
0.000784165031066
0.00132497329221
0.00133125852431
0.00131876791794
0.0013119424127
0.00130565736217
0.0012989099086
0.00129165147208
1.01115513201
0.47565961949
0.22787606431
0.112209137559
0.0575927381273
0.0310551082129
0.0176380971217
0.010479275523
0.00626866350718
0.00337352821453
0.00148437919075
0.000722847036582
0.000560703221839
0.00115782183884
0.00134674767406
0.00132733727861
0.00131750150056
0.00131008501468
0.00130257512493
0.00129460013439
1.17030252425
0.520111842422
0.240542783029
0.116462354511
0.0596716304208
0.0325592682666
0.018908368434
0.0115977883462
0.00727801761034
0.00423654472832
0.00197668780443
0.000954248142313
0.000706930136841
0.000680477332684
0.00131930678426
0.00134193090237
0.00132675432158
0.00131730941353
0.00130835250979
0.00129901777696
1.23040045806
0.546299025502
0.252218601141
0.121883003451
0.0625176093049
0.0343251768992
0.0201915460021
0.0126487894285
0.00819894927575
0.00502743614661
0.00248995091726
0.00121902485291
0.000752605042861
0.000523773752926
0.00101856529382
0.00135548713324
0.00133950991628
0.00132710358759
0.00131610857218
0.00130483127036
1.24791024273
0.556802638248
0.258514939462
0.125578221305
0.0647212584949
0.0357283306895
0.0212026002988
0.0134895340353
0.0089688392405
0.00569554170751
0.00291830471704
0.00143198681301
0.000952039003119
0.000632160320713
0.000540807783657
0.0013108358144
0.00135485766669
0.00133898204842
0.00132552539739
0.00131187763673
1.25698968329
0.561425034449
0.261250189136
0.12734707297
0.0658918506771
0.0365409279004
0.0218448842892
0.0141018552921
0.00960247526748
0.00625275494129
0.00324270291146
0.00157872692431
0.0010841842215
0.00072287858778
0.000432496825
0.00108045624171
0.0013687296459
0.00135245983844
0.00133625981007
0.00131999995283
1.26311639304
0.564543265231
0.262558290599
0.127863244468
0.0662337148045
0.0368860776902
0.0222493281882
0.0146250045057
0.0101746784831
0.0067099125377
0.00349502958653
0.00167237944376
0.00117114466951
0.000850752849012
0.000530726375424
0.000748311158032
0.0013702960041
0.00136683755869
0.00134785584078
0.00132897159555
1.27591114413
0.569485392742
0.264386272042
0.128373216577
0.0664859975092
0.0371918632114
0.0227010329051
0.0152171002009
0.0106965808218
0.00708713102158
0.00373486555138
0.0017746975917
0.00124952660291
0.000942556299373
0.00059002569318
0.00054944451869
0.00135315736005
0.00138134590879
0.00135962252435
0.00133835135419
1.29474035087
0.577432585976
0.267554170833
0.129727998925
0.0672539079919
0.0378280631775
0.0233951074464
0.0158401755742
0.0111408607974
0.00745525736933
0.00404169320813
0.00192929364994
0.00134804179729
0.00103667819086
0.000623527272416
0.000491090144541
0.00132539336591
0.00139538831343
0.00137057095137
0.00134738263339
1.3228836064
0.587460131698
0.271841289302
0.131959819703
0.0686265059603
0.0388490638901
0.024213541688
0.0163876422872
0.0115477997878
0.00785741694539
0.00445222373575
0.00215541473817
0.00148197144284
0.00116298239645
0.000732906411909
0.00051895796847
0.00128252200934
0.00140965783366
0.00137982301855
0.00135513965325
1.35430358365
0.598847819774
0.276357513189
0.134520174598
0.0703547621738
0.0400720279777
0.0249870932693
0.0168469051943
0.0119148996694
0.0082652219056
0.00489852770606
0.00240922496569
0.00161928797409
0.00133889710572
0.000927018202342
0.00063013568442
0.0011786139487
0.00142789537678
0.00138753280319
0.00136097325298
1.37662417228
0.60547618034
0.279212681013
0.136773716375
0.0721950714613
0.0413077841569
0.0256286543014
0.0171746103107
0.0121605145306
0.00853878541492
0.00518633941622
0.00263869583044
0.00173683992685
0.00153623606311
0.00117246702583
0.000844426246269
0.000929093959671
0.00145054057293
0.00139524048393
0.00136490603872
1.36998838222
0.600410060772
0.279597978844
0.139233762897
0.0744574988117
0.0425756236644
0.0260587781498
0.0172411633224
0.0121357906426
0.00847864172452
0.0053201673333
0.00281759088448
0.00181029559685
0.00163446625592
0.0014096765535
0.000883697985253
0.00067122124323
0.00143994145907
0.00140571217152
0.00136774981698
1.32373102298
0.588817189069
0.281045583897
0.143237429042
0.0772586393328
0.0435304893338
0.0259789327201
0.0168560624512
0.0117276337231
0.00824500402597
0.00537769771885
0.00292977198585
0.00183002161326
0.00166429086095
0.00152696920424
0.00111910045152
0.000726041597732
0.00124962247539
0.00142090705682
0.00137082190165
1.28574652927
0.587289465005
0.287796138718
0.149038110212
0.0796185801118
0.043428887111
0.0253411286553
0.0162683080852
0.0112734450478
0.00802405431598
0.00538635357304
0.00299574413871
0.00181208979573
0.0016433754153
0.00154057351166
0.00127142974074
0.000777436803383
0.000820601555319
0.00142884135151
0.00137542727404
1.2859286109
0.6040378546
0.300925557025
0.15576264755
0.0807840978337
0.0433393356142
0.0250427048094
0.0159155404136
0.0110060791366
0.007914759816
0.0054329974874
0.00306514322962
0.00177673724868
0.00158541994753
0.00151572984358
0.00134220657079
0.0008842256382
0.000577485321483
0.001362252668
0.00138239451142
1.32248546577
0.634092138697
0.317753679477
0.16298972265
0.0831912595403
0.0444192518768
0.0254054711542
0.0159758868629
0.0110011414953
0.00798636034344
0.00559524755591
0.00319233265356
0.00175177347036
0.00151207718498
0.0014794813611
0.00136606562396
0.00101935925537
0.000650389354322
0.00110777278897
0.00139016452236
1.37753683751
0.66822197701
0.33582829707
0.17254330781
0.0881434696391
0.0467290784252
0.0264044848107
0.0164060529492
0.0112406765617
0.0082382071318
0.00588608549358
0.00341426582966
0.00176861264341
0.00144737176014
0.0014480437321
0.00137932683739
0.00112631595085
0.000698308532513
0.000727613542815
0.00138849344598
1.44480720462
0.702324172759
0.354517626406
0.184405369602
0.0949892502397
0.0497499807852
0.0277470761018
0.017069898501
0.0116615181103
0.00862114991318
0.00626538218257
0.00372218284884
0.00184570889317
0.00140881366363
0.00143270981295
0.00141324403319
0.00122342614658
0.000773812885229
0.000505594897705
0.00133644436048
1.52312817816
0.738058365335
0.373440199049
0.196009380176
0.101711736055
0.0526859684826
0.029108126873
0.0178260780116
0.0121899045394
0.0090752793557
0.00667941227562
0.00406888126095
0.00197571163312
0.00140301422045
0.00143785026483
0.00145769462765
0.00130129866771
0.000919585974132
0.000529606830805
0.00114031768556
1.59884727751
0.778257090716
0.393756178302
0.206761192886
0.107005829875
0.0550367779438
0.0303018179069
0.0185852305239
0.0127684780471
0.00954406053639
0.00707090521709
0.00439978078266
0.00213157984592
0.00142613208195
0.00145560463756
0.0014936140552
0.00134738781588
0.00104293683502
0.00063667711686
0.000777637907802
1.66982824383
0.821867358953
0.415413129135
0.217024824827
0.110348839087
0.0561375716677
0.0309896262546
0.0191832986166
0.0133050763044
0.00996757514778
0.00738547355914
0.00466093318681
0.00228945678004
0.00146937539589
0.00147907262729
0.00152206654133
0.00138570566103
0.00113434794049
0.000653686723933
0.000493979304188
1.76635185132
0.87386574302
0.437405456025
0.224313409983
0.110715764998
0.0558625426981
0.0311198922381
0.0195702684686
0.0137492680048
0.0103154136514
0.00761476658022
0.00482919273411
0.00241520790434
0.00152262455735
0.00150482655879
0.00154604591743
0.00141955412854
0.00119805238372
0.00077851557597
0.000426049791367
1.96616666889
0.944148323483
0.452495069291
0.22653865715
0.10845788484
0.0548022044093
0.0309882568151
0.019840490428
0.0141064410254
0.0105776974576
0.00776220983308
0.00492609643819
0.00251023682239
0.0015771346255
0.00152949767125
0.00156679983087
0.00145452701998
0.00124206134298
0.000877058199901
0.000491537736338
2.53508693716
1.00493350889
0.457194357954
0.223229239342
0.10585079787
0.054053571344
0.0310427146388
0.0201614901687
0.0144246523214
0.0107771875065
0.00785375990528
0.00498795255724
0.00259886608526
0.00163509647202
0.00155100595677
0.00158692366831
0.0014961530339
0.00129151050835
0.000963648992066
0.000586630918256
0.00123728288602
0.00123711142027
0.00123715877928
0.00123738629559
0.00123778210921
0.00123835060069
0.00123910431019
0.00124005536524
0.00124120383095
0.00124252099026
0.00124392700669
0.00124526554972
0.00124628424223
0.00124663826553
0.00124594443528
0.00124400089311
0.00124305063488
0.00129207181886
0.00262387472257
0.0232982035552
0.00123666426092
0.00123613127126
0.00123608802861
0.00123643586212
0.00123712284765
0.00123812071571
0.00123940358277
0.0012409284755
0.00124261726142
0.00124434206483
0.00124591809783
0.00124710556297
0.00124761039772
0.0012470479587
0.00124485537953
0.00124128606481
0.00126056931815
0.00172056934964
0.00713741381638
0.0433752468541
0.00124177446727
0.00124065844354
0.00124034613615
0.00124065619409
0.00124146179313
0.00124266071249
0.00124414604464
0.00124578454749
0.00124740483749
0.00124879636445
0.00124971453842
0.00124987494021
0.00124889950327
0.00124616346031
0.00124077380958
0.00123702771456
0.00133304274674
0.00268784715531
0.0129869373369
0.0557889887482
0.00124821923251
0.00124634463601
0.00124555474462
0.00124559158956
0.0012462427654
0.00124731652459
0.00124861653964
0.00124992849198
0.0012510193155
0.00125164213183
0.00125152984073
0.00125034795861
0.00124756395531
0.00124224030061
0.00123392413032
0.00124207522971
0.00154238262437
0.00444350275786
0.019470668656
0.0625665800506
0.00125540356811
0.00125270731277
0.00125130442967
0.00125088220461
0.00125115166918
0.00125183774384
0.00125266831864
0.0012533720145
0.00125368180878
0.00125333073317
0.00125201771393
0.00124931420276
0.00124448657374
0.00123646387717
0.00122772262323
0.00127677653177
0.00199257238014
0.00699136809537
0.0252998452628
0.0658123413598
0.00126229464367
0.00125878208898
0.00125669650045
0.00125569842188
0.00125543949599
0.00125557772476
0.00125578464718
0.00125575143256
0.00125518846858
0.00125380338169
0.00125123783371
0.00124694211232
0.00124002260218
0.00122988599917
0.00122733207663
0.00137172694543
0.00278258294456
0.0100503143113
0.029746468859
0.0670974407834
0.00126837860192
0.00126410021571
0.0012613197083
0.00125969386187
0.0012588335963
0.00125834825587
0.00125786980979
0.00125706275606
0.00125561478162
0.0012531963837
0.00124937606187
0.00124349068916
0.0012346587452
0.00122407986952
0.0012407955608
0.00156739491662
0.003955755084
0.0131598198324
0.0327467242909
0.067296694347
0.00127335556248
0.00126840499736
0.00126497274372
0.00126272505068
0.00126124978082
0.00126012497105
0.00125895617343
0.00125738656321
0.00125507769286
0.00125165463146
0.00124661231149
0.0012392287666
0.00122900084771
0.00122133605298
0.0012798214054
0.00190842425718
0.00546100406043
0.0159223460625
0.034601824062
0.0668621449939
0.00127708365253
0.00127160409221
0.0012676129283
0.0012647955421
0.00126273349039
0.00126098993284
0.00125915513286
0.00125685470446
0.00125372214302
0.00124933615077
0.00124313722258
0.00123446259966
0.00122384558623
0.00122496418866
0.00136026499626
0.00243125663673
0.0071611351144
0.0181412353425
0.035652722027
0.0660404247379
0.00127958946938
0.00127375419364
0.00126932462174
0.00126601318204
0.00126341150649
0.00126108366695
0.00125861497022
0.00125561767668
0.00125169872021
0.00124639849674
0.00123914663093
0.0012295472456
0.00122026360715
0.00123965079502
0.00150169266343
0.00314882412887
0.00888487539296
0.0198039895969
0.0361600921789
0.0649794998429
0.00128109815951
0.00127506574643
0.0012703059506
0.00126656611279
0.00126346332629
0.00126057687132
0.0012574963651
0.00125382555826
0.00124915009783
0.00124299056411
0.00123484139018
0.00122491001325
0.00121972017883
0.00127182138844
0.00172524033945
0.00404097090474
0.0104865718192
0.0209939019756
0.0363009057271
0.0637727462187
0.00128203231652
0.00127588102343
0.00127083591889
0.00126668580798
0.00126308491274
0.00125963798792
0.00125594549073
0.00125160726336
0.00124619666734
0.00123924557926
0.00123043254779
0.00122108984292
0.00122423674512
0.0013298836129
0.00204945424285
0.00505700069926
0.0118799051658
0.021815892449
0.0361930659417
0.0624807136091
0.0012829356544
0.00127660050709
0.00127120832004
0.0012665907171
0.00126244272931
0.00125839747132
0.00125406797247
0.00124905355381
0.00124292827739
0.00123528254614
0.00122615875579
0.0012188003507
0.00123659473837
0.00142419212693
0.00248513990295
0.00612949237121
0.0130380770318
0.0223617240363
0.0359157937252
0.061143380546
0.00128432061017
0.001277568159
0.00127164863128
0.00126642833616
0.00126163540807
0.00125692474177
0.00125191792649
0.00124621582508
0.00123941134125
0.00123122231231
0.00122231988354
0.0012190217511
0.00126057418152
0.00156654593483
0.00303130074492
0.00719229524706
0.013974307333
0.022702351404
0.0355227940312
0.0597872238426
0.00128651653888
0.00127897832547
0.0012722632093
0.00126625325829
0.0012606908311
0.00125523758639
0.00124951512122
0.00124312791604
0.00123571361749
0.0012272169281
0.00121932473205
0.00122312334775
0.00130120166977
0.00176903577597
0.00367398541952
0.00819454571388
0.0147199433205
0.0228906717951
0.0350506948425
0.0584291841161
0.00128962461941
0.00128087429761
0.0012730636261
0.00126606478783
0.00125960900423
0.00125334537879
0.00124688551685
0.00123984225027
0.00123193595583
0.00122348179598
0.00121774616395
0.00123301533058
0.00136494344451
0.00204218602129
0.00438854469139
0.00910627313475
0.0153094763976
0.0229658230762
0.0345245520315
0.0570789046635
0.00129360558903
0.00128323929228
0.00127405179456
0.00126588205624
0.00125842573334
0.0012513010373
0.00124410175063
0.00123645971378
0.001228234229
0.00122031893188
0.00121837916676
0.00125132297502
0.00145970171013
0.00239261950108
0.00514438817088
0.00991624205396
0.0157734154788
0.0229565474105
0.0339614398524
0.0557401866086
0.00129841197505
0.00128609965415
0.00127529817965
0.00126580190276
0.00125725410236
0.00124922885505
0.00124129937287
0.00123313653132
0.00122482131687
0.00121812760214
0.00122230364214
0.0012815585149
0.00159438639053
0.00282083632327
0.00591052009707
0.0106257559157
0.0161362394665
0.0228836080012
0.0333728270832
0.0544122971402
0.00130404117775
0.00128955023356
0.00127695052368
0.00126599755391
0.00125627644929
0.00124731132268
0.00123865953749
0.00123006458957
0.00122195031019
0.00121740789461
0.00123095658362
0.00132823098241
0.00177786263544
0.00331993673034
0.00666012942937
0.0112422644404
0.016416649915
0.02276163643
0.032766226437
0.053091471949
0.00131045605146
0.00129367640841
0.00127916317594
0.00126665603913
0.00125568843967
0.00124573845072
0.00123636312587
0.00122743190684
0.001219887983
0.00121876854948
0.00124621398223
0.00139679633937
0.0020173295662
0.00387598972557
0.00737318955319
0.0117749409662
0.0166285774311
0.0226006505274
0.0321464110966
0.0517726506963
0.00131744520265
0.00129842928513
0.00128198915045
0.00126788439427
0.00125561682959
0.00124463624623
0.00123453091342
0.00122537796194
0.00121889457845
0.00122295452265
0.00127047345731
0.0014933539938
0.00231658348545
0.00447018160324
0.00803698824733
0.0122325778032
0.0167823557835
0.022407359972
0.0315163536457
0.0504512325604
0.00132452135971
0.00130353163573
0.00128529215471
0.00126962744591
0.00125604531738
0.00124400440866
0.0012331776381
0.0012239701578
0.00121923383064
0.00123091047169
0.00130671967111
0.00162408560867
0.0026748583728
0.00508212303854
0.00864522734972
0.0126231014395
0.0168858610361
0.0221862972261
0.0308779549717
0.0491244945667
0.00133097859773
0.00130849429836
0.00128873873355
0.00127164908227
0.00125679640497
0.00124370733383
0.00123221849403
0.00122323203023
0.00122123352418
0.00124388506364
0.00135855333326
0.00179457050873
0.00308675772984
0.00569319399778
0.00919650021038
0.012953786575
0.0169454699841
0.0219407442729
0.0302325793066
0.0477923366487
0.00133615288399
0.00131277885436
0.00129190760872
0.00127361637101
0.00125760662854
0.00124354872008
0.00123154725029
0.00122322920081
0.00122538979912
0.00126355788988
0.00143017148273
0.00200916720805
0.00354326102799
0.00628886048322
0.00969269960362
0.0132314963049
0.01696669963
0.0216733851355
0.0295813867648
0.0464572143401
0.00133974551566
0.00131604437083
0.00129448690178
0.00127526721298
0.00125827392317
0.00124340158641
0.00123115015741
0.0012241722324
0.00123247472862
0.00129215361722
0.00152628364767
0.00227054844326
0.00403328957231
0.00685944659984
0.0101375901496
0.0134626647598
0.016954478062
0.0213866454277
0.0289254720562
0.0451234233977
0.00134201676755
0.00131834073233
0.00129644832712
0.00127656065345
0.00125878158621
0.00124330489925
0.001231177601
0.00122647421426
0.00124360440246
0.00133251158017
0.00165192041505
0.00257933450275
0.00454520751212
0.00739954658129
0.0105356339535
0.0136530666883
0.0169131387451
0.0210827677436
0.0282658609271
0.0437961398476
0.00134366077448
0.00132007644962
0.00129804938182
0.00127768386249
0.00125929699883
0.00124345065412
0.00123192418647
0.00123074016194
0.0012602635137
0.00138809454711
0.00181207066646
0.00293377798296
0.00506791553235
0.00790674104821
0.0108911594357
0.0138075859511
0.0168463308965
0.0207637585063
0.027603454676
0.042480646937
0.00134543202321
0.00132176563561
0.00129965360445
0.00127891219876
0.00126005501016
0.00124408585994
0.0012337543931
0.0012377331769
0.00128432448116
0.0014629317468
0.00201113546826
0.00332962352405
0.00559155311102
0.00838034481844
0.0112079534178
0.0139301727884
0.0167570219831
0.0204313533379
0.0269390042835
0.041181971477
0.00134792195808
0.00132382457336
0.00130156594027
0.00128047693962
0.00126125339343
0.00124543639198
0.00123706283739
0.00124838757826
0.00131810264226
0.00156149924331
0.00225231344484
0.00376038433884
0.00610797173626
0.00882062031751
0.0114892524807
0.0140240318181
0.0166476532905
0.0200870810615
0.0262731475198
0.0399048523374
0.00135164150652
0.00132658410813
0.0013040303339
0.00128256265564
0.00126305709432
0.00124772561683
0.00124232068768
0.00126390135184
0.00136445859851
0.00168855398178
0.00253713114247
0.00421814828623
0.00661105491176
0.00922848018141
0.011737968151
0.0140919263775
0.0165203779959
0.0197324042279
0.025606481937
0.0386537601375
0.00135734150601
0.00133045555481
0.00130734975182
0.00128540947563
0.00126569223226
0.00125126928361
0.00125018960603
0.00128589042485
0.00142693063609
0.00184894736848
0.00286529244259
0.00469471962428
0.00709682344896
0.00960542849273
0.011956914189
0.0141364247018
0.0163772523494
0.0193688531741
0.0249396246402
0.0374326913884
0.00136601886093
0.00133601540379
0.00131197677637
0.00128940859229
0.00126954124058
0.00125657527451
0.00126164896429
0.00131656629451
0.00150986264625
0.00204741609152
0.00323484142701
0.00518266382846
0.00756321902542
0.00995344592368
0.012148851533
0.0141599581696
0.0162202752573
0.0189980645511
0.024273219172
0.0362446278549
0.00137739986843
0.00134387385471
0.00131846906286
0.00129509544947
0.00127515467287
0.00126438069916
0.00127808934654
0.00135889899237
0.0016184585338
0.00228826796262
0.00364243361791
0.0056758297895
0.00800952504771
0.0102746556237
0.0123162938306
0.0141646711516
0.0160512547163
0.0186216830222
0.0236078839922
0.0350907944041
0.00138469393074
0.001354595189
0.00132736555661
0.00130302145652
0.00128314566174
0.00127560184437
0.00130135773405
0.00141672437182
0.00175863427871
0.00257482117645
0.0040834634642
0.00616918833336
0.00843553522006
0.0105708184556
0.0124611744509
0.0141521666674
0.015871581591
0.0182411599798
0.0229441318417
0.0339700428134
0.00136022027868
0.00136846769105
0.00133889671152
0.00131348133327
0.0012939844323
0.00129123367319
0.00133377719261
0.00149473678849
0.00193651258386
0.00290855182054
0.00455199005051
0.00665822011578
0.00884076153648
0.0108428993271
0.0125846001543
0.0141233410505
0.0156820690886
0.0178575628627
0.0222823207205
0.0328787188879
0.00124701032924
0.00138498045701
0.00135270789187
0.00132630671094
0.0013078814321
0.00131234236925
0.00137820790763
0.00159831763734
0.00215754307097
0.00328822448982
0.00504073557865
0.00713838582844
0.00922405831371
0.0110909960886
0.0126869138126
0.0140784774115
0.0154829998453
0.0174715137151
0.0216226768111
0.0318111277022
0.0010154012148
0.0014015252639
0.00136801134139
0.00134102946349
0.00132496852048
0.00134027861985
0.00143819065394
0.00173320933263
0.00242552648385
0.00370956835371
0.00554154676227
0.00760513045295
0.009583841963
0.0113147111996
0.0127680804758
0.0140175823559
0.0152743621063
0.01708321768
0.0209650890806
0.0307600680861
0.000740945539024
0.00141209902643
0.00138413394027
)
;

boundaryField
{
    emptyPatch
    {
        type            empty;
    }
    minY
    {
        type            fixedValue;
        value           uniform 0.000138;
    }
    maxY
    {
        type            inletOutlet;
        inletValue      nonuniform List<scalar> 0();
        value           nonuniform List<scalar> 0();
    }
    maxX
    {
        type            kqRWallFunction;
        value           nonuniform List<scalar> 
37
(
0.0232982035552
0.0433752468541
0.0557889887482
0.0625665800506
0.0658123413598
0.0670974407834
0.067296694347
0.0668621449939
0.0660404247379
0.0649794998429
0.0637727462187
0.0624807136091
0.061143380546
0.0597872238426
0.0584291841161
0.0570789046635
0.0557401866086
0.0544122971402
0.053091471949
0.0517726506963
0.0504512325604
0.0491244945667
0.0477923366487
0.0464572143401
0.0451234233977
0.0437961398476
0.042480646937
0.041181971477
0.0399048523374
0.0386537601375
0.0374326913884
0.0362446278549
0.0350907944041
0.0339700428134
0.0328787188879
0.0318111277022
0.0307600680861
)
;
    }
    water_to_heater
    {
        type            kqRWallFunction;
        value           nonuniform List<scalar> 
61
(
0.0343868937811
0.474029576213
0.474029576213
0.669350795984
0.669350795984
0.824681020656
0.824681020656
0.901699640414
0.909678778003
0.894075826019
0.894075826019
0.89489685493
0.89489685493
0.893148041097
0.893148041097
0.88600011109
0.870718243793
0.852006600318
0.852006600318
0.856459606543
0.856459606543
0.900774542527
0.900774542527
1.01115513201
1.17030252425
1.23040045806
1.23040045806
1.24791024273
1.24791024273
1.25698968329
1.25698968329
1.26311639304
1.27591114413
1.29474035087
1.29474035087
1.3228836064
1.3228836064
1.35430358365
1.35430358365
1.37662417228
1.36998838222
1.32373102298
1.32373102298
1.28574652927
1.28574652927
1.2859286109
1.2859286109
1.32248546577
1.37753683751
1.44480720462
1.44480720462
1.52312817816
1.52312817816
1.59884727751
1.59884727751
1.66982824383
1.76635185132
1.96616666889
1.96616666889
2.53508693716
2.53508693716
)
;
    }
    procBoundary2to3
    {
        type            processor;
        value           nonuniform List<scalar> 
41
(
3.17963891214
1.26909705019
0.522721761724
0.233645441359
0.110104621682
0.0562460737659
0.032218279588
0.020895458235
0.014866375085
0.0110013057134
0.00795435247128
0.00506956660316
0.00271138428381
0.00170265948653
0.00157150137325
0.00161103368665
0.00155176936995
0.00136091081669
0.00105606647706
0.00059118025209
0.00135734265642
0.00134570581044
0.00137704333439
0.00151810664863
0.00190510449657
0.00274196839152
0.00416584467624
0.00604632409592
0.0080543563938
0.00991865061633
0.0115137079811
0.01282820567
0.0139409478813
0.0150566983882
0.0166941445109
0.0203127463703
0.0297219645561
0.000534256949686
0.00140773445662
0.00135734265642
0.00140099607997
)
;
    }
}


// ************************************************************************* //
