/*--------------------------------*- C++ -*----------------------------------*\
| =========                 |                                                 |
| \\      /  F ield         | OpenFOAM: The Open Source CFD Toolbox           |
|  \\    /   O peration     | Version:  2312                                  |
|   \\  /    A nd           | Website:  www.openfoam.com                      |
|    \\/     M anipulation  |                                                 |
\*---------------------------------------------------------------------------*/
FoamFile
{
    version     2.0;
    format      ascii;
    arch        "LSB;label=32;scalar=64";
    class       volScalarField;
    location    "0.11/water";
    object      alphat.gas;
}
// * * * * * * * * * * * * * * * * * * * * * * * * * * * * * * * * * * * * * //

dimensions      [1 -1 -1 0 0 0 0];

internalField   nonuniform List<scalar> 
1503
(
1.98093051295e-07
8.50851220891e-08
3.77262856836e-08
2.54526158268e-08
8.90383025643e-08
6.49186079395e-07
2.85184636784e-06
6.57978942066e-06
1.00176166712e-05
1.21970779899e-05
1.33353470018e-05
1.38640959985e-05
1.40852445241e-05
1.41646840398e-05
1.41842479536e-05
1.41814583453e-05
1.41723207883e-05
1.41630177097e-05
1.41555369226e-05
1.41502421608e-05
8.91195783009e-07
6.40381857246e-07
3.34378457917e-07
1.81511201437e-07
7.71408315687e-08
5.71551903954e-08
1.18054525668e-07
6.96488537465e-07
3.04037981217e-06
6.94977114645e-06
1.03310725473e-05
1.23947695092e-05
1.34481246248e-05
1.39247809441e-05
1.41146607616e-05
1.41751623036e-05
1.41831666791e-05
1.41733567372e-05
1.41601322019e-05
1.41488273734e-05
1.23202128091e-06
1.07198731372e-06
7.17180628126e-07
3.97187742517e-07
2.21873791689e-07
1.0420751188e-07
7.39779142467e-08
1.77522265523e-07
9.58127105827e-07
3.42304252655e-06
7.05054682321e-06
1.02144997874e-05
1.22660413065e-05
1.3382462374e-05
1.39158923099e-05
1.41383034197e-05
1.42125872049e-05
1.42240842948e-05
1.42134208322e-05
1.41983067947e-05
1.46534074614e-06
1.33190566541e-06
9.83724441116e-07
6.2209991977e-07
3.97476206196e-07
1.8928301317e-07
9.75784470497e-08
9.44379958591e-08
3.59364059062e-07
1.67302101191e-06
4.57196032841e-06
8.00448312865e-06
1.0769013818e-05
1.25412688676e-05
1.35170472384e-05
1.39900926503e-05
1.41885518275e-05
1.42533649032e-05
1.42608333746e-05
1.42484170569e-05
1.63634196006e-06
1.52343182136e-06
1.17767831318e-06
8.0867070137e-07
4.9019802445e-07
3.19842258877e-07
1.35185227344e-07
8.41200933166e-08
1.66259100059e-07
8.32306971151e-07
2.91791738372e-06
6.12514670761e-06
9.23561469016e-06
1.15296204666e-05
1.29516775336e-05
1.37248855143e-05
1.40961602848e-05
1.42482256946e-05
1.42936402239e-05
1.42939652541e-05
1.7396783503e-06
1.65760854504e-06
1.32528834175e-06
9.56050290954e-07
6.29767063161e-07
3.60366814944e-07
2.18370152762e-07
8.87625643464e-08
9.55428030828e-08
4.0840042653e-07
1.81352528494e-06
4.60347990787e-06
7.79799006058e-06
1.04514271994e-05
1.22665356116e-05
1.33495497865e-05
1.39240183448e-05
1.4192206954e-05
1.42959059102e-05
1.4320996899e-05
1.78352018471e-06
1.73494525154e-06
1.42613703725e-06
1.06663301188e-06
7.40955035317e-07
4.6592692047e-07
2.43629677832e-07
1.28950792876e-07
6.58297508286e-08
1.92692870816e-07
1.0638657638e-06
3.36833041133e-06
6.48700852922e-06
9.36602858321e-06
1.1503111964e-05
1.287874579e-05
1.36684100705e-05
1.4073355282e-05
1.42538530243e-05
1.43167001157e-05
1.79220443528e-06
1.76544353213e-06
1.47884536585e-06
1.13669144749e-06
8.21154638228e-07
5.50234422852e-07
3.22666289583e-07
1.53830648345e-07
7.03163883706e-08
8.6397083167e-08
5.57848292021e-07
2.35455376893e-06
5.29547174351e-06
8.3004303849e-06
1.06893797867e-05
1.23246434864e-05
1.33256551662e-05
1.38786388491e-05
1.41512319932e-05
1.42652019591e-05
1.80616799699e-06
1.78410928148e-06
1.50473472653e-06
1.17625819906e-06
8.7497773592e-07
6.14718876738e-07
3.91194304601e-07
2.04816790738e-07
9.75897661861e-08
4.96977167084e-08
2.30870675208e-07
1.49320804102e-06
4.19028667615e-06
7.25751972841e-06
9.83938903655e-06
1.16930263567e-05
1.28883567229e-05
1.3591098078e-05
1.39670759709e-05
1.41454467407e-05
1.83939783653e-06
1.80948369887e-06
1.51755592862e-06
1.1921544779e-06
9.06435740276e-07
6.61870783758e-07
4.48394105266e-07
2.6155138976e-07
1.13272099909e-07
5.28523593457e-08
7.73838612682e-08
7.55814720019e-07
3.12197690355e-06
6.22187922815e-06
8.95376942374e-06
1.09807931017e-05
1.23424187831e-05
1.31875646247e-05
1.36733535474e-05
1.39287092037e-05
1.86208675048e-06
1.80620113667e-06
1.50240455143e-06
1.18732710386e-06
9.21624370611e-07
6.95952675713e-07
4.96029746857e-07
3.14211492837e-07
1.54274716818e-07
5.33697117975e-08
3.93319301949e-08
2.53235042823e-07
2.04578493314e-06
5.16629663848e-06
8.02046909788e-06
1.01749063645e-05
1.16661044225e-05
1.26362038764e-05
1.32337958434e-05
1.35792160776e-05
1.83228984502e-06
1.77705875265e-06
1.48687599811e-06
1.18278823947e-06
9.31601751945e-07
7.22212091397e-07
5.35836304938e-07
3.61481378954e-07
1.96038272873e-07
6.91047954257e-08
3.3888572183e-08
7.39409774758e-08
1.00797484156e-06
4.04654179988e-06
7.0152468402e-06
9.25191119999e-06
1.0828890096e-05
1.19024237172e-05
1.26107465901e-05
1.3058117698e-05
1.8232577484e-06
1.77453809235e-06
1.48563853458e-06
1.18396024639e-06
9.41579959034e-07
7.44843806161e-07
5.69692543191e-07
4.02627842302e-07
2.35250259672e-07
8.90097875254e-08
2.73716108441e-08
3.67604099605e-08
3.22405256912e-07
2.83081105404e-06
5.90506418804e-06
8.19129622486e-06
9.81458027566e-06
1.09638865688e-05
1.17750113211e-05
1.23315340963e-05
1.82554735576e-06
1.77635149568e-06
1.4866622623e-06
1.18808456433e-06
9.53011820241e-07
7.65808147267e-07
5.99117967651e-07
4.38182026505e-07
2.70931010772e-07
1.10307102606e-07
3.01022249631e-08
2.23151093338e-08
9.95379422579e-08
1.5726058363e-06
4.67935040223e-06
7.00689095416e-06
8.63571492027e-06
9.82326230262e-06
1.0718069422e-05
1.13813275693e-05
1.83315000147e-06
1.78283551681e-06
1.49361347583e-06
1.19680027304e-06
9.66756345514e-07
7.86010256268e-07
6.2505820262e-07
4.69210796096e-07
3.03639319104e-07
1.33067826367e-07
3.40037856558e-08
1.49717858328e-08
3.88688444347e-08
5.83002862025e-07
3.36850474792e-06
5.74551472997e-06
7.33936928726e-06
8.51777550197e-06
9.46283897525e-06
1.02156489063e-05
1.84521616332e-06
1.79600857918e-06
1.50865400074e-06
1.21232808152e-06
9.84052048068e-07
8.05639315181e-07
6.47693120855e-07
4.96630141208e-07
3.34483932653e-07
1.57495143003e-07
3.93096309167e-08
1.27731987657e-08
1.94269101215e-08
1.65681402839e-07
2.08505413333e-06
4.47298059197e-06
6.00200740276e-06
7.11969404746e-06
8.06767350811e-06
8.87521549414e-06
1.85930843266e-06
1.81660407437e-06
1.53343049491e-06
1.23668290061e-06
1.00542856012e-06
8.24256202916e-07
6.6728904901e-07
5.21669211516e-07
3.64576439074e-07
1.83699176488e-07
4.63611032911e-08
1.14431600209e-08
9.85770123283e-09
4.27420416825e-08
9.66809213538e-07
3.23820678178e-06
4.71142470481e-06
5.72374902755e-06
6.61966656469e-06
7.43195253175e-06
1.87515826034e-06
1.84462636474e-06
1.56773134962e-06
1.26914708128e-06
1.0302906425e-06
8.42211984647e-07
6.85183553679e-07
5.45418043138e-07
3.94064291117e-07
2.11019518183e-07
5.54120401824e-08
1.06929795206e-08
6.88343463656e-09
1.60486285298e-08
3.32913471092e-07
2.11623049941e-06
3.54802399142e-06
4.42468023343e-06
5.21760210167e-06
5.97872145702e-06
1.89792405851e-06
1.87534027595e-06
1.60467358284e-06
1.30432294815e-06
1.05666746627e-06
8.60347445731e-07
7.02545488154e-07
5.68227052141e-07
4.22179986873e-07
2.37988352546e-07
6.67719865692e-08
1.05057705793e-08
4.96053400262e-09
7.94948236673e-09
6.60464477636e-08
1.07479751264e-06
2.54385142256e-06
3.29277370837e-06
3.94975461155e-06
4.61161214901e-06
1.92724058663e-06
1.91141876908e-06
1.6441118468e-06
1.34007515947e-06
1.08372279541e-06
8.79082534689e-07
7.19658382493e-07
5.89426727147e-07
4.47084186521e-07
2.62847348371e-07
8.08003580417e-08
1.09736773918e-08
3.63468396346e-09
3.83441425638e-09
1.3251337409e-08
3.95058792127e-07
1.72207264243e-06
2.36470985831e-06
2.87539187756e-06
3.40955083245e-06
1.95950658813e-06
1.95181897715e-06
1.68481366274e-06
1.3753432058e-06
1.11051211764e-06
8.98024832927e-07
7.36273021414e-07
6.07882909373e-07
4.67719658167e-07
2.85422317034e-07
9.762659238e-08
1.21992214682e-08
2.71945738836e-09
2.39722587395e-09
5.27760234767e-09
8.28083084734e-08
1.01891121763e-06
1.63928370383e-06
2.01692372036e-06
2.41890360363e-06
1.99817970113e-06
2.00016110689e-06
1.73012055679e-06
1.41123906348e-06
1.13620047909e-06
9.1616596156e-07
7.51441837503e-07
6.23081351052e-07
4.84727520612e-07
3.07080800417e-07
1.17109081438e-07
1.43142957186e-08
2.1094416408e-09
1.5059558167e-09
2.00070129442e-09
1.17274571239e-08
4.56236641097e-07
1.09540440839e-06
1.36547409054e-06
1.64974139708e-06
2.05972086271e-06
2.07235029185e-06
1.78884374197e-06
1.44893057223e-06
1.15895311185e-06
9.31759694613e-07
7.64220276985e-07
6.35135137871e-07
4.99270316687e-07
3.2854353114e-07
1.39243872642e-07
1.76148782829e-08
1.737402128e-09
9.46490577829e-10
1.02835917062e-09
3.28347758277e-09
1.52486382794e-07
6.9840262792e-07
8.92793434124e-07
1.08353432705e-06
2.15974160374e-06
2.16991959489e-06
1.85493810132e-06
1.48389226043e-06
1.17730464176e-06
9.44270214118e-07
7.74475339846e-07
6.44770207975e-07
5.13077121401e-07
3.51296552594e-07
1.64983288455e-07
2.25933451138e-08
1.57088171519e-09
6.12270527692e-10
5.19061159001e-10
1.14497345101e-09
2.34261242063e-08
3.98838844816e-07
5.63157946519e-07
6.85951487254e-07
2.25801266133e-06
2.24780172774e-06
1.9051760262e-06
1.51303962897e-06
1.19429057693e-06
9.55670830784e-07
7.82893406824e-07
6.53048355074e-07
5.27805061677e-07
3.76989062195e-07
1.94328665284e-07
2.94549961873e-08
1.61104450772e-09
4.36149705145e-10
2.65063863017e-10
3.5564956173e-10
3.32851620897e-09
1.86672194921e-07
3.41648720253e-07
4.18382762662e-07
2.29436699132e-06
2.28180021773e-06
1.94101101605e-06
1.54200092029e-06
1.21416633337e-06
9.68058301095e-07
7.90380765079e-07
6.6084962386e-07
5.44200825507e-07
4.05949537161e-07
2.25948750193e-07
3.88141097405e-08
1.9064337624e-09
3.56483708839e-10
1.51181232292e-10
1.37982105891e-10
5.8469724022e-10
3.41124139069e-08
1.95261655145e-07
2.45305814697e-07
2.33085799137e-06
2.32115334088e-06
1.97717327873e-06
1.57454870841e-06
1.23828806561e-06
9.82357025023e-07
7.97995425118e-07
6.68852050484e-07
5.61964338515e-07
4.36356397014e-07
2.5780588215e-07
5.23505360214e-08
2.59775954165e-09
3.40691867376e-10
1.07382045257e-10
6.25822484679e-11
1.5543775236e-10
3.36607215121e-09
9.86038040569e-08
1.37655477097e-07
2.34932231088e-06
2.34549774568e-06
2.00397855743e-06
1.60396614065e-06
1.26260223362e-06
9.9794052135e-07
8.06916700199e-07
6.77819282918e-07
5.79999857114e-07
4.65009273548e-07
2.87973486646e-07
7.04349709874e-08
3.99179944759e-09
3.75032431639e-10
9.45971997648e-11
3.78231465539e-11
4.04227993774e-11
3.76034079127e-10
3.75938736363e-08
7.33814279032e-08
2.3575997384e-06
2.35617971969e-06
2.01731364668e-06
1.62271228515e-06
1.28110043691e-06
1.01246461962e-06
8.17337425356e-07
6.88179307236e-07
5.97053834524e-07
4.89965350227e-07
3.15783196021e-07
9.13894826886e-08
6.62698477162e-09
4.72652669567e-10
9.89460868965e-11
3.16648961309e-11
1.82596511396e-11
7.5310235216e-11
4.79764230738e-09
3.65444603018e-08
2.36795091402e-06
2.36331296898e-06
2.02414182792e-06
1.63349464757e-06
1.29417708885e-06
1.02524385394e-06
8.28846707557e-07
6.99776621453e-07
6.12578483428e-07
5.1107545206e-07
3.41228997321e-07
1.14956033453e-07
1.11027481324e-08
7.02796719438e-10
1.17123647786e-10
3.39361220512e-11
1.32762242787e-11
2.07438941043e-11
4.85894253768e-10
1.64280762246e-08
2.3643716701e-06
2.36471417317e-06
2.02830251046e-06
1.6406325446e-06
1.30377884173e-06
1.03652222794e-06
8.40799637249e-07
7.12048909352e-07
6.26642713075e-07
5.29225132338e-07
3.64843415986e-07
1.41776122178e-07
1.8616473032e-08
1.20853747223e-09
1.53458459445e-10
4.05762681668e-11
1.38760288152e-11
8.74947804458e-12
7.63322375417e-11
5.98342940401e-09
2.36020479534e-06
2.36600045363e-06
2.03340300353e-06
1.64670563811e-06
1.31151447891e-06
1.04679857181e-06
8.52829361781e-07
7.24588795469e-07
6.39631660795e-07
5.45087955043e-07
3.86918657829e-07
1.72330031921e-07
3.03682138457e-08
2.11599874419e-09
2.12128012506e-10
5.07488103228e-11
1.67143370814e-11
8.14024300108e-12
1.99482521022e-11
1.09597056775e-09
2.3423700825e-06
2.36374112216e-06
2.03662942883e-06
1.65031551384e-06
1.3176222608e-06
1.05639923853e-06
8.64844845761e-07
7.37153218544e-07
6.51590637576e-07
5.58109832787e-07
4.07541029161e-07
2.04846269766e-07
4.50522874087e-08
3.2361565314e-09
2.85698928092e-10
6.69512216009e-11
2.07304491638e-11
9.4993863424e-12
1.17685199164e-11
2.00151933461e-10
2.33635805385e-06
2.35996572022e-06
2.0340606457e-06
1.64890265236e-06
1.32052183916e-06
1.06433655306e-06
8.76052229639e-07
7.48944409388e-07
6.61657323631e-07
5.68645618409e-07
4.26612759154e-07
2.34392905707e-07
5.78869109873e-08
4.03803394943e-09
3.69390555657e-10
9.23565792247e-11
2.6813317447e-11
1.09411227935e-11
1.07627034335e-11
7.17739116188e-11
2.33000392637e-06
2.35771966016e-06
2.03131849982e-06
1.64518670357e-06
1.3204901418e-06
1.0698021737e-06
8.85470157392e-07
7.58995103965e-07
6.69813924474e-07
5.77866207852e-07
4.42786794844e-07
2.55214867216e-07
6.40737809004e-08
4.24400271045e-09
4.66375613541e-10
1.26604782885e-10
3.67717535532e-11
1.24919009717e-11
9.45389645991e-12
3.31668032007e-11
2.3323330162e-06
2.35886856591e-06
2.02979543081e-06
1.64075489439e-06
1.31825815656e-06
1.07295846684e-06
8.92982199158e-07
7.67503832472e-07
6.77649653541e-07
5.86813553071e-07
4.54573721794e-07
2.63800177063e-07
6.27257103284e-08
4.05026859655e-09
5.73939864771e-10
1.72349521588e-10
5.20686080283e-11
1.58892358087e-11
1.00596383533e-11
2.31575409613e-11
2.33148488772e-06
2.36174505748e-06
2.02985200443e-06
1.63676113203e-06
1.3156652743e-06
1.07570210733e-06
9.0018686453e-07
7.76341528509e-07
6.86826087067e-07
5.96061782329e-07
4.6063810595e-07
2.59873085763e-07
5.66488311838e-08
3.84034312718e-09
7.06290128116e-10
2.35356536661e-10
7.55720077889e-11
2.21597237989e-11
1.10642016582e-11
2.27828485303e-11
2.33659074312e-06
2.36847644621e-06
2.03137447195e-06
1.63466118281e-06
1.31595288276e-06
1.08131234684e-06
9.09686868134e-07
7.87499822602e-07
6.98473712311e-07
6.05474663811e-07
4.60005205638e-07
2.4631290002e-07
4.97848706872e-08
3.89568913969e-09
8.89549267859e-10
3.23781703217e-10
1.11405646402e-10
3.29721559384e-11
1.32247081369e-11
2.1992680333e-11
1.41470478583e-05
1.41456288172e-05
1.41455597381e-05
1.414653615e-05
1.41482826655e-05
1.41502911453e-05
1.41512881554e-05
1.41480521656e-05
1.41327753355e-05
1.40873201343e-05
1.3971186213e-05
1.36977557827e-05
1.30923943466e-05
1.18377029069e-05
9.48198909382e-06
5.8286081051e-06
2.08901710078e-06
3.46746428868e-07
1.0841887464e-07
4.93131489961e-07
1.41412114655e-05
1.41373556e-05
1.41364453384e-05
1.41374919424e-05
1.41390739338e-05
1.41383236582e-05
1.4128824145e-05
1.40964027811e-05
1.40111288297e-05
1.38132592371e-05
1.33916704865e-05
1.25593352659e-05
1.10510329239e-05
8.6183688612e-06
5.35961597794e-06
2.22538118984e-06
5.32673825707e-07
1.39485871362e-07
2.54696189071e-07
9.79675983797e-07
1.41859829285e-05
1.41785532882e-05
1.41751875909e-05
1.41737203422e-05
1.41702068042e-05
1.41566895995e-05
1.41168292224e-05
1.40183143325e-05
1.38011120804e-05
1.33624979836e-05
1.25456800535e-05
1.11518147079e-05
9.0153598705e-06
6.1922945452e-06
3.2286837633e-06
1.1076719615e-06
2.7412112095e-07
1.71846478146e-07
5.12762449679e-07
1.43077727982e-06
1.42332386883e-05
1.42217890612e-05
1.42140050119e-05
1.42060795237e-05
1.41899782576e-05
1.41499109487e-05
1.40559939623e-05
1.38550210521e-05
1.34598546035e-05
1.27430817811e-05
1.15478537093e-05
9.73727374597e-06
7.30438015056e-06
4.53376195292e-06
2.08666266429e-06
6.5439134353e-07
2.10671732883e-07
2.82318800468e-07
8.47588144824e-07
1.79939235827e-06
1.4279971322e-05
1.42650249141e-05
1.42508756715e-05
1.42317436652e-05
1.41941509001e-05
1.41125761736e-05
1.39424043943e-05
1.36118739625e-05
1.30172497664e-05
1.20296512848e-05
1.05261004153e-05
8.45689901028e-06
5.94824710673e-06
3.3982510141e-06
1.42559770746e-06
4.43155346437e-07
2.21859790165e-07
4.65912080697e-07
1.18731948073e-06
2.06647377892e-06
1.43139515502e-05
1.42970302736e-05
1.42748856204e-05
1.42396635991e-05
1.41716318345e-05
1.40349559809e-05
1.37716251734e-05
1.32970949328e-05
1.25035071799e-05
1.12786649935e-05
9.54862154932e-06
7.34528746473e-06
4.88392926837e-06
2.59997777612e-06
1.01944117616e-06
3.44073589106e-07
2.86273333732e-07
7.02287533972e-07
1.47657242357e-06
2.24748024959e-06
1.43239312381e-05
1.43077508024e-05
1.42767080982e-05
1.42210789418e-05
1.41148146935e-05
1.39125424049e-05
1.35460051174e-05
1.29248327494e-05
1.19476244629e-05
1.05291583785e-05
8.64603717719e-06
6.39488546016e-06
4.04306000329e-06
2.02320259834e-06
7.6167323605e-07
3.09587434857e-07
3.9989034745e-07
9.54774663488e-07
1.69872567733e-06
2.36659850946e-06
1.42956627612e-05
1.42845450651e-05
1.42450657449e-05
1.41661741512e-05
1.40162424158e-05
1.3742236242e-05
1.32696854546e-05
1.25088406295e-05
1.13719412796e-05
9.8043736275e-06
7.82771769177e-06
5.58547595371e-06
3.37179179124e-06
1.59825955375e-06
5.98347885221e-07
3.21025044202e-07
5.5506501023e-07
1.19015730145e-06
1.86170177504e-06
2.44292689414e-06
1.42097748816e-05
1.42103073399e-05
1.41650500257e-05
1.40625521244e-05
1.38670789426e-05
1.35205321216e-05
1.29463319428e-05
1.20603624547e-05
1.07922721708e-05
9.11721158931e-06
7.09349954995e-06
4.8965275423e-06
2.83162102043e-06
1.28258995048e-06
4.99882779921e-07
3.70722889669e-07
7.36193281591e-07
1.39091884957e-06
1.97933935951e-06
2.4897513668e-06
1.40399171946e-05
1.4061589508e-05
1.401628736e-05
1.38934445338e-05
1.3655278723e-05
1.32415523227e-05
1.25771811698e-05
1.15869313909e-05
1.02187948164e-05
8.47420218269e-06
6.43960630753e-06
4.31085027375e-06
2.39566220521e-06
1.0490092034e-06
4.48824213138e-07
4.53750771355e-07
9.24194440973e-07
1.5539909168e-06
2.06353645068e-06
2.51617369131e-06
1.37526101608e-05
1.38081000211e-05
1.37721797102e-05
1.36367385221e-05
1.33643945457e-05
1.2895683108e-05
1.21597844026e-05
1.10918335226e-05
9.65692440561e-06
7.87784315841e-06
5.86115343534e-06
3.81483980106e-06
2.04477792788e-06
8.78849163897e-07
4.34066319787e-07
5.63449972654e-07
1.10287269257e-06
1.68369005125e-06
2.12316831332e-06
2.52848323799e-06
1.33100645767e-05
1.34145796097e-05
1.34010405857e-05
1.32654761649e-05
1.29735063242e-05
1.24690738952e-05
1.16873996258e-05
1.05738665153e-05
9.10778922546e-06
7.32760236877e-06
5.35276012997e-06
3.39748426673e-06
1.76449677921e-06
7.5809404144e-07
4.47649986349e-07
6.90201522314e-07
1.26229830276e-06
1.78605739641e-06
2.16473769907e-06
2.5311018993e-06
1.26765007446e-05
1.28456855725e-05
1.28697570792e-05
1.27503982414e-05
1.24587220758e-05
1.19442589667e-05
1.11490528844e-05
1.00272431621e-05
8.5682441066e-06
6.81994912922e-06
4.90814095177e-06
3.04903031394e-06
1.54281691935e-06
6.75308508247e-07
4.82651622544e-07
8.22755053687e-07
1.39850288802e-06
1.86639769276e-06
2.19303693182e-06
2.52724411663e-06
1.18272774776e-05
1.2073606289e-05
1.21500018251e-05
1.20647442422e-05
1.17965288862e-05
1.13021314041e-05
1.05303890355e-05
9.44169729624e-06
8.03057186251e-06
6.34780294513e-06
4.51925622158e-06
2.75976978828e-06
1.36884646376e-06
6.20587516938e-07
5.3192902941e-07
9.5054317701e-07
1.51135385763e-06
1.92885481481e-06
2.2116426704e-06
2.51935400453e-06
1.07587343636e-05
1.10870600722e-05
1.12262550532e-05
1.11910565513e-05
1.09691016313e-05
1.05255922593e-05
9.81572645107e-06
8.80324096968e-06
7.48236381329e-06
5.89993733786e-06
4.17552406959e-06
2.51923840422e-06
1.23217807806e-06
5.85083518048e-07
5.87883205745e-07
1.06549958143e-06
1.60251398848e-06
1.97668526798e-06
2.22328853274e-06
2.50936302813e-06
9.49574353061e-06
9.89940412093e-06
1.0103999755e-05
1.01290151458e-05
9.97126129321e-06
9.60513661127e-06
8.99196231618e-06
8.09639005632e-06
6.90738114137e-06
5.4609912223e-06
3.86350804865e-06
2.31594418495e-06
1.12280670165e-06
5.60898658598e-07
6.43110822221e-07
1.16277808542e-06
1.67427288756e-06
2.01258639918e-06
2.23012074748e-06
2.49880811662e-06
8.09398550915e-06
8.55306405652e-06
8.81554543689e-06
8.90224793446e-06
8.81778755474e-06
8.54596221883e-06
8.05468160214e-06
7.30866380669e-06
6.28826947401e-06
5.01272669265e-06
3.56736473407e-06
2.13759292786e-06
1.03136193552e-06
5.41240855896e-07
6.91437772418e-07
1.24056820951e-06
1.72913634411e-06
2.03891946785e-06
2.23384612474e-06
2.48885989392e-06
6.63493980944e-06
7.11781349744e-06
7.42059728723e-06
7.56106011783e-06
7.54833306858e-06
7.37465225263e-06
7.01558237178e-06
6.43739716287e-06
5.61163745287e-06
4.53701340205e-06
3.27023380022e-06
1.97172852381e-06
9.49477400951e-07
5.20734883403e-07
7.28771623702e-07
1.29947292398e-06
1.7697708549e-06
2.05782906159e-06
2.23580564887e-06
2.48031774282e-06
5.21325854416e-06
5.68182245391e-06
5.99971571592e-06
6.17823307284e-06
6.2263062947e-06
6.14170786099e-06
5.9082463331e-06
5.49717720231e-06
4.87499637152e-06
4.02062656585e-06
2.95666803166e-06
1.80673602104e-06
8.70202498557e-07
4.95734020074e-07
7.53457177017e-07
1.34178840688e-06
1.79899210054e-06
2.07128091201e-06
2.23701317999e-06
2.47361880045e-06
3.91853805394e-06
4.33652162606e-06
4.64126564387e-06
4.83741631809e-06
4.92950841315e-06
4.91606880996e-06
4.78769917377e-06
4.52402646045e-06
4.09330680528e-06
3.46110913416e-06
2.61600022975e-06
1.63316500007e-06
7.8841466041e-07
4.6448574618e-07
7.66109760951e-07
1.37082130185e-06
1.81966664228e-06
2.08103987709e-06
2.23818746617e-06
2.46888318073e-06
2.81671535957e-06
3.15871285779e-06
3.42508875205e-06
3.61732804739e-06
3.73452139729e-06
3.77118471128e-06
3.72065881405e-06
3.57173101892e-06
3.30108998524e-06
2.87159730651e-06
2.24607803441e-06
1.44524250567e-06
7.01190605828e-07
4.27075990423e-07
7.69071341573e-07
1.39027189783e-06
1.83452839382e-06
2.0886164576e-06
2.23979020948e-06
2.46599107198e-06
1.9385428336e-06
2.19555330653e-06
2.40749752061e-06
2.57714334681e-06
2.70101569428e-06
2.76790815617e-06
2.76889823831e-06
2.69898208643e-06
2.54630903374e-06
2.28127650446e-06
1.85605249498e-06
1.24226695513e-06
6.08055646264e-07
3.85152427855e-07
7.65677107403e-07
1.40370284845e-06
1.84597309199e-06
2.09521511215e-06
2.24207238763e-06
2.46467215833e-06
1.27996772501e-06
1.45842485022e-06
1.61221051766e-06
1.74740236277e-06
1.86216049057e-06
1.94226861672e-06
1.97377361214e-06
1.95259114677e-06
1.8765400629e-06
1.72877288657e-06
1.46621358154e-06
1.02938350973e-06
5.10987196516e-07
3.41461075959e-07
7.59497115709e-07
1.41413472352e-06
1.85590041947e-06
2.10171153102e-06
2.24512616308e-06
2.46458713159e-06
8.12409740715e-07
9.28046230676e-07
1.03057166981e-06
1.12834934046e-06
1.22320383775e-06
1.3027658497e-06
1.3495618215e-06
1.35587044874e-06
1.3242375583e-06
1.2498288004e-06
1.10318942576e-06
8.1711416656e-07
4.14043730088e-07
2.99232920954e-07
7.53683629365e-07
1.42381060828e-06
1.86564656501e-06
2.10867054399e-06
2.24893851077e-06
2.46538981091e-06
4.96250741997e-07
5.6707552533e-07
6.30724529948e-07
6.95654849037e-07
7.66421550076e-07
8.35668290437e-07
8.86870227413e-07
9.0747124974e-07
8.99440870781e-07
8.65742260718e-07
7.91309150965e-07
6.19096077262e-07
3.22542046044e-07
2.61483367577e-07
7.50525004239e-07
1.43414141469e-06
1.87601192404e-06
2.1163993891e-06
2.25344270663e-06
2.46676830544e-06
2.91666700891e-07
3.33295262873e-07
3.70803090281e-07
4.11169653605e-07
4.59579202182e-07
5.13618294421e-07
5.61589281541e-07
5.88522030164e-07
5.92424522038e-07
5.79257415037e-07
5.44496051989e-07
4.48152375968e-07
2.41815752252e-07
2.30370132275e-07
7.5126343023e-07
1.44580063346e-06
1.88735840552e-06
2.1250200681e-06
2.25856408502e-06
2.46847033837e-06
1.64654773417e-07
1.88565257295e-07
2.10087030392e-07
2.34222859439e-07
2.65277107906e-07
3.03834683326e-07
3.43998169851e-07
3.72211475116e-07
3.82032012103e-07
3.7864005684e-07
3.63518424675e-07
3.12197415244e-07
1.75788337849e-07
2.06823950994e-07
7.56164713149e-07
1.4589073416e-06
1.89973807172e-06
2.13454169407e-06
2.26425603954e-06
2.47032009187e-06
8.90001308447e-08
1.02714582941e-07
1.1512730391e-07
1.29467176e-07
1.48676781585e-07
1.74425404734e-07
2.0517305486e-07
2.31392617765e-07
2.44029731651e-07
2.45290454257e-07
2.39214809098e-07
2.12282747423e-07
1.2588113058e-07
1.90583832382e-07
7.64760910793e-07
1.47323281762e-06
1.9130192477e-06
2.14491797942e-06
2.27052127747e-06
2.47223199629e-06
4.58646102057e-08
5.39083739811e-08
6.13543424524e-08
7.0108198054e-08
8.19139645576e-08
9.8445451828e-08
1.20437590573e-07
1.42823111158e-07
1.56530349986e-07
1.6019931881e-07
1.5818253965e-07
1.43772025867e-07
9.0866342683e-08
1.80549865777e-07
7.76161681574e-07
1.48838505966e-06
1.92699057845e-06
2.15608349224e-06
2.27741271547e-06
2.47421930264e-06
2.24245787295e-08
2.73486132376e-08
3.21174768897e-08
3.77527992719e-08
4.5160688696e-08
5.56452906968e-08
7.0679743451e-08
8.86201254521e-08
1.02311761029e-07
1.07470094289e-07
1.07367055679e-07
9.93242405536e-08
6.77731297162e-08
1.75230984251e-07
7.89353944358e-07
1.50395292685e-06
1.94143880017e-06
2.16797163092e-06
2.28501138874e-06
2.47638468708e-06
1.03682872148e-08
1.35397582022e-08
1.68254608326e-08
2.06989534715e-08
2.5547674554e-08
3.22775673004e-08
4.23169478517e-08
5.60615594597e-08
6.9049640434e-08
7.53477892876e-08
7.63222306985e-08
7.1621661043e-08
5.31951334841e-08
1.73126816582e-07
8.03449994966e-07
1.51961154066e-06
1.95620411337e-06
2.18052326788e-06
2.29338827011e-06
2.47887840453e-06
4.55905791083e-09
6.68814033728e-09
9.10063373901e-09
1.19485722527e-08
1.531259354e-08
1.97767229545e-08
2.64449875757e-08
3.66597683839e-08
4.85338210292e-08
5.58399537439e-08
5.76384001762e-08
5.48078287517e-08
4.4222907365e-08
1.73006035485e-07
8.17865093694e-07
1.53519248645e-06
1.97121519663e-06
2.19369495582e-06
2.30256972976e-06
2.48182892135e-06
1.96623246686e-09
3.43326575039e-09
5.29847080822e-09
7.53722935376e-09
1.00430236593e-08
1.31610040675e-08
1.76296752592e-08
2.5060135835e-08
3.5597581981e-08
4.38192942126e-08
4.64536896498e-08
4.47722583669e-08
3.87661386084e-08
1.74083860447e-07
8.32399414821e-07
1.55071102996e-06
1.98650009774e-06
2.20747089698e-06
2.31253145064e-06
2.48528215144e-06
8.92376680981e-10
1.9337475075e-09
3.44665204565e-09
5.32791466143e-09
7.34780985922e-09
9.67797991421e-09
1.27355914182e-08
1.80396136736e-08
2.7138663737e-08
3.61221650633e-08
3.97231221696e-08
3.88467028322e-08
3.54805605521e-08
1.76075304472e-07
8.47196435182e-07
1.56633779839e-06
2.00216957667e-06
2.22187759195e-06
2.32323346165e-06
2.48919627614e-06
4.67159039281e-10
1.24856910994e-09
2.53622170962e-09
4.21734027374e-09
5.97549051953e-09
7.85557866055e-09
1.00173809132e-08
1.37215060494e-08
2.13651156206e-08
3.08534541894e-08
3.55801941648e-08
3.53655411463e-08
3.35623745249e-08
1.79100682098e-07
8.62583830314e-07
1.58231847943e-06
2.01837865742e-06
2.23699725805e-06
2.33468533534e-06
2.49351006004e-06
3.06422445995e-10
9.32109211785e-10
2.07570352493e-09
3.65242727273e-09
5.28262723919e-09
6.91577757265e-09
8.51607935338e-09
1.10276759597e-08
1.72681706801e-08
2.69193466097e-08
3.28873175686e-08
3.33019647674e-08
3.25521699809e-08
1.83473760208e-07
8.78857835819e-07
1.59886925791e-06
2.03527969181e-06
2.25297219691e-06
2.34700805362e-06
2.49824982779e-06
2.41669621442e-10
7.84663396455e-10
1.83234385661e-09
3.35881535126e-09
4.9386489729e-09
6.44486798952e-09
7.70036939479e-09
9.33272470261e-09
1.42789347966e-08
2.37264194939e-08
3.09535750701e-08
3.20239464629e-08
3.21959030469e-08
1.89455209849e-07
8.96095294776e-07
1.6160789338e-06
2.05296012918e-06
2.26993830624e-06
2.36032458745e-06
2.5033690857e-06
2.00470053993e-10
7.17529069886e-10
1.6965737099e-09
)
;

boundaryField
{
    emptyPatch
    {
        type            empty;
    }
    minY
    {
        type            zeroGradient;
    }
    maxY
    {
        type            calculated;
        value           nonuniform List<scalar> 0();
    }
    maxX
    {
        type            compressible::alphatPhaseChangeJayatillekeWallFunction;
        Prt             0.85;
        Cmu             0.09;
        kappa           0.41;
        E               9.8;
        dmdt            uniform 0;
        value           uniform 0;
    }
    water_to_heater
    {
        type            compressible::alphatWallBoilingWallFunction;
        phaseType       vapor;
        relax           constant 1;
        partitioningModel
        {
            type            Lavieville;
            alphaCrit       0.2;
        }
        otherPhase      liquid;
        dmdt            uniform 0;
        dDep            uniform 1e-05;
        qQuenching      uniform 0;
        alphatConv      uniform 0;
        value           nonuniform List<scalar> 
61
(
5.54759522773e-11
1.01095394887e-07
1.01095394887e-07
1.04302973465e-07
1.04302973465e-07
1.04304972392e-07
1.04304972392e-07
8.00995243127e-08
4.8767355541e-08
3.17172416533e-08
3.17172416533e-08
2.8073751818e-08
2.8073751818e-08
2.64765125047e-08
2.64765125047e-08
2.74368920516e-08
3.79180221561e-08
6.48165301996e-08
6.48165301996e-08
7.14900006177e-08
7.14900006177e-08
7.22638649998e-08
7.22638649998e-08
7.14900006177e-08
7.20241441845e-08
7.19169720543e-08
7.19169720543e-08
7.27912212472e-08
7.27912212472e-08
7.35522585971e-08
7.35522585971e-08
7.34462956453e-08
7.33296869561e-08
7.30437263933e-08
7.30437263933e-08
7.30039603308e-08
7.30039603308e-08
7.2825463782e-08
7.2825463782e-08
8.15489028993e-08
1.21119755158e-07
1.21635870554e-07
1.21635870554e-07
1.29585366242e-07
1.29585366242e-07
1.22023782213e-07
1.22023782213e-07
1.32885828171e-07
1.22568169361e-07
1.34221731061e-07
1.34221731061e-07
1.22568169361e-07
1.22568169361e-07
1.34009541319e-07
1.34009541319e-07
1.225019942e-07
1.31208376457e-07
1.22023782213e-07
1.22023782213e-07
1.26222212823e-07
1.26222212823e-07
)
;
    }
    procBoundary2to3
    {