/*--------------------------------*- C++ -*----------------------------------*\
| =========                 |                                                 |
| \\      /  F ield         | OpenFOAM: The Open Source CFD Toolbox           |
|  \\    /   O peration     | Version:  2312                                  |
|   \\  /    A nd           | Website:  www.openfoam.com                      |
|    \\/     M anipulation  |                                                 |
\*---------------------------------------------------------------------------*/
FoamFile
{
    version     2.0;
    format      ascii;
    arch        "LSB;label=32;scalar=64";
    class       volVectorField;
    location    "0.165/water";
    object      U.gas;
}
// * * * * * * * * * * * * * * * * * * * * * * * * * * * * * * * * * * * * * //

dimensions      [0 1 -1 0 0 0 0];

internalField   nonuniform List<vector> 
6000
(
(0.0641746110016 0.325812217936 0)
(0.108964963029 0.207819917312 0)
(0.103726715178 0.181324919944 0)
(0.11358122145 0.163098416726 0)
(0.111669747436 0.157016569577 0)
(0.112373601666 0.152725907017 0)
(0.101398066328 0.150261058376 0)
(0.0838428943616 0.158050286633 0)
(0.0773779826684 0.2452473737 0)
(0.0730609210212 0.282421048433 0)
(0.0631258880083 0.285251113944 0)
(0.0554536889025 0.286370650021 0)
(0.0479660546829 0.28747640217 0)
(0.0408243418794 0.288511543333 0)
(0.0339539493169 0.289458763466 0)
(0.0273358868971 0.29028544842 0)
(0.0209769206504 0.290960171268 0)
(0.0149098915346 0.291460187544 0)
(0.00919832869536 0.291776594415 0)
(0.00393146282577 0.291918913761 0)
(0.0272318628125 0.671288547625 0)
(0.0729965375571 0.468044298469 0)
(0.0911245739514 0.40833511157 0)
(0.0969381379656 0.373015210484 0)
(0.103386507872 0.357486200536 0)
(0.104307066036 0.348446964879 0)
(0.102540670714 0.343477418378 0)
(0.0940299331026 0.352315598798 0)
(0.0649523903139 0.469034569164 0)
(0.0299242079776 0.523289384889 0)
(0.0164325904003 0.523804456626 0)
(0.0138217533728 0.523734598286 0)
(0.0117112558989 0.523810183081 0)
(0.00982945570777 0.523931607292 0)
(0.00810677901005 0.524076519955 0)
(0.00651017946773 0.524217300382 0)
(0.00502843823991 0.524325120854 0)
(0.00365535011812 0.524374721105 0)
(0.00238363997737 0.52435029756 0)
(0.00121078386342 0.524252616551 0)
(0.0308858667757 0.765373886336 0)
(0.0696296157974 0.577655188201 0)
(0.0797706953691 0.496688639134 0)
(0.0851603157017 0.455832618604 0)
(0.0895909797743 0.433343785327 0)
(0.0913403502001 0.420666302324 0)
(0.0911783552414 0.413264228129 0)
(0.087650869249 0.4125705052 0)
(0.0731894472305 0.454516327306 0)
(0.0382125730429 0.48643515902 0)
(0.0120772254392 0.486423033104 0)
(0.00892577613243 0.484524109105 0)
(0.00795761759939 0.482864766166 0)
(0.00697757254912 0.481377323573 0)
(0.00600551028027 0.480032339673 0)
(0.00501013894667 0.478835892663 0)
(0.0039744829496 0.477801312832 0)
(0.00290013008343 0.476937777771 0)
(0.00180158567781 0.476247778002 0)
(0.000714209201677 0.475730056238 0)
(0.0420581027809 0.87455203709 0)
(0.086816976628 0.681785843574 0)
(0.0900973244773 0.572649306541 0)
(0.0911638905551 0.518039580068 0)
(0.090949589402 0.487685977535 0)
(0.0890387122515 0.469149544059 0)
(0.0862386483895 0.457243933462 0)
(0.0821509441636 0.451326015848 0)
(0.0744603885205 0.467103374547 0)
(0.0493772132608 0.489026956742 0)
(0.0168288657136 0.494365020261 0)
(0.0040305069619 0.493107878166 0)
(0.00371815147558 0.491950546549 0)
(0.0033336296622 0.490907116284 0)
(0.00289179551431 0.489914085401 0)
(0.00240546282082 0.488963369405 0)
(0.00185613519809 0.488072426675 0)
(0.00123103431532 0.487266619028 0)
(0.000534101284498 0.486570477488 0)
(-0.000198886859176 0.486005823769 0)
(0.0493860643425 0.927824428055 0)
(0.101070889149 0.762488681387 0)
(0.102152891848 0.636607287395 0)
(0.100274087836 0.566030381576 0)
(0.0978513932821 0.527085625555 0)
(0.093622818607 0.503043385887 0)
(0.0881746238585 0.486979175465 0)
(0.0819171208187 0.476666086521 0)
(0.0743412995761 0.478588177265 0)
(0.0599649844804 0.487977425851 0)
(0.0273582495225 0.492806738998 0)
(0.00302031111027 0.4922312962 0)
(0.00117100081526 0.491270385159 0)
(0.00102054522153 0.490455316926 0)
(0.000778354835347 0.489678003058 0)
(0.000497358469615 0.488910825897 0)
(0.000174133889708 0.488159935387 0)
(-0.00020782446198 0.487448588104 0)
(-0.00065412050158 0.486806245182 0)
(-0.00113628931929 0.486262850626 0)
(0.0542959472211 0.951544537177 0)
(0.110712586958 0.81687305344 0)
(0.110770074152 0.693666911001 0)
(0.10746976274 0.608172220336 0)
(0.104625180649 0.559907577429 0)
(0.100493410282 0.53005753496 0)
(0.0943803792301 0.509788189373 0)
(0.0865356028136 0.495644889068 0)
(0.0775999511646 0.489787934492 0)
(0.0665936144092 0.491029102022 0)
(0.0403889886744 0.493091170757 0)
(0.0102959872256 0.492509257219 0)
(4.95650319469e-05 0.491817786547 0)
(-7.42802307612e-05 0.49120812512 0)
(-0.000289580601903 0.490641651637 0)
(-0.000545970986018 0.49007278643 0)
(-0.000826488877329 0.489493782716 0)
(-0.0011406611677 0.488919043013 0)
(-0.00149509980275 0.488374663599 0)
(-0.00186432068389 0.48789102035 0)
(0.0552720843854 0.956553511051 0)
(0.112831115084 0.847378085291 0)
(0.113620174249 0.738243082862 0)
(0.110567136721 0.648589610215 0)
(0.107892575411 0.590170663594 0)
(0.105117351093 0.554141621558 0)
(0.10042736655 0.52938035432 0)
(0.0930094345679 0.51143602179 0)
(0.0835484917769 0.500346947632 0)
(0.0726573524922 0.495839949073 0)
(0.0556346268867 0.494849543215 0)
(0.0231207788225 0.492683104516 0)
(0.000873913842634 0.49225750187 0)
(-0.000202331542026 0.491775380383 0)
(-0.000513754117982 0.49136156635 0)
(-0.000876929524213 0.49093727013 0)
(-0.00125240036001 0.490483680597 0)
(-0.00163698732191 0.490007870441 0)
(-0.00203200663925 0.489532073684 0)
(-0.00241024366548 0.489086702127 0)
(0.0530703818502 0.956976938465 0)
(0.10925999853 0.86281965901 0)
(0.112039742082 0.769005325506 0)
(0.110549182463 0.685888926055 0)
(0.108485266146 0.621035542944 0)
(0.106659674097 0.577941371424 0)
(0.103771863165 0.548381374194 0)
(0.098140797022 0.526444338563 0)
(0.089513116042 0.51106932016 0)
(0.0789199111352 0.502194208876 0)
(0.065832502599 0.498146689683 0)
(0.0374626564488 0.495063947525 0)
(0.00868429457547 0.493062150951 0)
(0.000515293155498 0.492804563821 0)
(-0.000102098975436 0.492480649512 0)
(-0.000741744121633 0.492125401627 0)
(-0.00135688960453 0.491718225463 0)
(-0.0019351024695 0.49126481363 0)
(-0.0024722657297 0.490788340504 0)
(-0.00294630658063 0.490319895835 0)
(0.0531822460091 0.957270059298 0)
(0.111541336939 0.871822289005 0)
(0.115484248734 0.792513462947 0)
(0.112836230548 0.71948793229 0)
(0.109765849335 0.655041987554 0)
(0.107133027411 0.604326686719 0)
(0.10491592282 0.568965527316 0)
(0.100965012106 0.542576518851 0)
(0.093835345782 0.523049997878 0)
(0.0840207999544 0.510176705406 0)
(0.0721861548615 0.502992311319 0)
(0.0529994156123 0.499322324363 0)
(0.0215833836293 0.495130069775 0)
(0.00196922302276 0.494748281801 0)
(0.000438501486088 0.494316194858 0)
(-0.000669696956778 0.49385325829 0)
(-0.00164690880262 0.493332299207 0)
(-0.00249007669843 0.492761660106 0)
(-0.00320723183389 0.492166325687 0)
(-0.00379452349104 0.491577888209 0)
(0.0539133584233 0.958387601387 0)
(0.114349325363 0.879733590313 0)
(0.118519972062 0.814479965065 0)
(0.113943704283 0.752255336464 0)
(0.109390918331 0.691708492062 0)
(0.105625173071 0.635313908405 0)
(0.103238374319 0.592126110892 0)
(0.100475996026 0.560839416961 0)
(0.0949689762519 0.536963796528 0)
(0.0861218024629 0.519835910912 0)
(0.0750828607122 0.509174454462 0)
(0.0607743380269 0.503422039477 0)
(0.0311342531179 0.499836171737 0)
(0.00522419098631 0.497887404487 0)
(-0.000301992178626 0.497065549694 0)
(-0.00181865982532 0.496185569607 0)
(-0.00305033546531 0.495306718894 0)
(-0.00403124862516 0.494429646415 0)
(-0.00479627960978 0.493572617582 0)
(-0.00536398317831 0.492762577172 0)
(0.0545497292789 0.965958974889 0)
(0.11480954651 0.892012761265 0)
(0.116949851207 0.837481900169 0)
(0.11028647264 0.784820536706 0)
(0.10454152047 0.728354590261 0)
(0.100217580902 0.669054500273 0)
(0.0977466019566 0.617221818553 0)
(0.0958350325975 0.580322399795 0)
(0.0917805506536 0.551856722217 0)
(0.084035624008 0.530186752893 0)
(0.0736194016304 0.515553619234 0)
(0.0611404614389 0.506907669616 0)
(0.0393776798961 0.503416417765 0)
(0.0104803941319 0.501997194913 0)
(-0.00432294532271 0.500113768754 0)
(-0.00568149929386 0.498549102231 0)
(-0.00663611460034 0.497119009475 0)
(-0.00730478905582 0.495810527365 0)
(-0.0077388545481 0.494619946501 0)
(-0.00797230342491 0.493555598268 0)
(0.0540283881822 0.985026669933 0)
(0.110266111374 0.911671235352 0)
(0.108192121832 0.861318896948 0)
(0.100517786593 0.814730987289 0)
(0.094978705372 0.761204273668 0)
(0.0917467322985 0.700540501312 0)
(0.0900213677129 0.642253214693 0)
(0.0885438924198 0.598110615887 0)
(0.0854340508098 0.565039801415 0)
(0.0787910556225 0.538949299372 0)
(0.0688348411219 0.520223716194 0)
(0.0572143067525 0.508534823506 0)
(0.0423476412133 0.502724097856 0)
(0.0119250240916 0.50319135393 0)
(-0.0113494267248 0.501819780559 0)
(-0.0129752436192 0.499532906158 0)
(-0.012778205989 0.49767061738 0)
(-0.0124479304658 0.496061893012 0)
(-0.0120202403732 0.494673085747 0)
(-0.0115142958673 0.493486718865 0)
(0.0507709943518 1.0181058136 0)
(0.0991554591672 0.937169082073 0)
(0.0929383801629 0.882220915462 0)
(0.0867548894331 0.836475544575 0)
(0.0836643320953 0.784548476548 0)
(0.0829254570401 0.724253862939 0)
(0.0826772311029 0.663472971121 0)
(0.0818483421775 0.612185535054 0)
(0.0796508009346 0.574085904434 0)
(0.074288090069 0.544119218418 0)
(0.0650371192989 0.521755005852 0)
(0.0537172790989 0.507290394188 0)
(0.0413622303192 0.499279155669 0)
(0.0197090390738 0.498187537089 0)
(-0.00936360825469 0.499743152117 0)
(-0.0222447292786 0.497520366591 0)
(-0.0201912082257 0.495808107467 0)
(-0.018346987047 0.494381658634 0)
(-0.0166968351116 0.493187764422 0)
(-0.0152035320693 0.492197819806 0)
(0.0492522979642 1.05177817295 0)
(0.0953458312582 0.960696165736 0)
(0.0880100012037 0.897769094445 0)
(0.0818657084646 0.84886890884 0)
(0.0797700640804 0.797431553328 0)
(0.080326020001 0.739017820392 0)
(0.0813918913667 0.679021162191 0)
(0.0814310941316 0.62420874857 0)
(0.079860369961 0.580620080858 0)
(0.0755820893632 0.547158574686 0)
(0.0672396258026 0.521566362902 0)
(0.0557412688719 0.504474971591 0)
(0.0438139021989 0.494680686959 0)
(0.0300357891008 0.490980021968 0)
(-0.00200979541802 0.493018028776 0)
(-0.026838386321 0.492408567681 0)
(-0.0259515099743 0.491383893683 0)
(-0.0227676280161 0.490757161034 0)
(-0.0200656637705 0.490226691466 0)
(-0.0177474076903 0.489792102506 0)
(0.0506112257062 1.07298625977 0)
(0.0995528485056 0.977674492336 0)
(0.0932991685305 0.910949749478 0)
(0.0863058824553 0.858549380761 0)
(0.0835658977904 0.806489119707 0)
(0.0841980662798 0.749730354593 0)
(0.0861070849541 0.691721408218 0)
(0.087256438031 0.636970648553 0)
(0.0865645773286 0.589646984573 0)
(0.0830483634847 0.552593544321 0)
(0.0754937034769 0.523726192898 0)
(0.06414080026 0.503436697872 0)
(0.051630380592 0.491416862648 0)
(0.0394966763249 0.485946811946 0)
(0.0197552752653 0.485888410038 0)
(-0.011513614306 0.485575712057 0)
(-0.0271688654992 0.485846807198 0)
(-0.0236148927636 0.486272669799 0)
(-0.0205876853582 0.48663156745 0)
(-0.0180152158716 0.486925309477 0)
(0.0512956252064 1.08267322027 0)
(0.10163813017 0.987974953022 0)
(0.0963988834274 0.922377047644 0)
(0.0899567397544 0.868853586327 0)
(0.087756184726 0.816224342796 0)
(0.0892258309605 0.760458360633 0)
(0.0924439062996 0.704307786058 0)
(0.0950461109701 0.650994270067 0)
(0.0954463482719 0.603188088324 0)
(0.0924702449593 0.563384993621 0)
(0.0852836062969 0.53103114099 0)
(0.0743694130968 0.506778297698 0)
(0.0618857670836 0.49152826828 0)
(0.0505130480037 0.484128959315 0)
(0.037984904478 0.48225660495 0)
(0.00647732099272 0.48134028967 0)
(-0.0196245993284 0.481194154552 0)
(-0.0203065938866 0.482409239506 0)
(-0.0178087591203 0.483538439418 0)
(-0.0156663488428 0.484470471441 0)
(0.0498913859164 1.08435944081 0)
(0.0996035329462 0.992174123269 0)
(0.0958439282135 0.929662755358 0)
(0.0908937683867 0.877325726513 0)
(0.0900975641766 0.825302119751 0)
(0.0928024952289 0.770745205394 0)
(0.0974544554523 0.716518153855 0)
(0.101829807718 0.665379336388 0)
(0.103803262853 0.619452913094 0)
(0.101327774826 0.579233663096 0)
(0.0937310738414 0.54376074421 0)
(0.0828236762162 0.515122707632 0)
(0.0711552985 0.495930515358 0)
(0.0606820032502 0.48594147287 0)
(0.0507699571266 0.482462713223 0)
(0.030520160495 0.481942087118 0)
(0.000665245587435 0.478269684662 0)
(-0.0135132097912 0.480198460539 0)
(-0.012283210517 0.481796710077 0)
(-0.0111465442193 0.483117032926 0)
(0.0462431228932 1.08813649404 0)
(0.0927360985991 0.994717013984 0)
(0.090308743618 0.933256320967 0)
(0.0874462925353 0.882294257853 0)
(0.0889166454759 0.831794031531 0)
(0.093781675561 0.779276954933 0)
(0.100674986302 0.72775278047 0)
(0.107290151634 0.679919738368 0)
(0.11069314255 0.637478529173 0)
(0.108349641599 0.598765502872 0)
(0.100058193396 0.561517700136 0)
(0.0887666234487 0.528424228634 0)
(0.0779706165737 0.505096571972 0)
(0.0687145885406 0.491835304134 0)
(0.0603999955136 0.486454305353 0)
(0.0479891227202 0.485255457336 0)
(0.0185295482666 0.478295130046 0)
(-0.0037586910503 0.480188257261 0)
(-0.0051423992336 0.481891146751 0)
(-0.00542895099742 0.483265278582 0)
(0.0446501520707 1.10052168367 0)
(0.0906577174415 1.00004065144 0)
(0.0885360260665 0.937250132927 0)
(0.0852835075409 0.886088362201 0)
(0.087973942424 0.836955580876 0)
(0.094766818674 0.787103371209 0)
(0.1039636513 0.739197352565 0)
(0.11205207748 0.695995845114 0)
(0.115527050195 0.657758843815 0)
(0.11273898717 0.621119302665 0)
(0.103813494654 0.583645620153 0)
(0.0921233867946 0.546572798619 0)
(0.081944852421 0.519063154518 0)
(0.0737892373946 0.501926903041 0)
(0.0668047886453 0.493787335214 0)
(0.0576522233535 0.490825993639 0)
(0.0325322771549 0.483512908536 0)
(0.00809958198737 0.482592369324 0)
(0.00181410902071 0.483993855588 0)
(1.78667307298e-05 0.485017109569 0)
(0.0435116059283 1.12111070431 0)
(0.0891207974097 1.01023154974 0)
(0.0874332602567 0.944748003324 0)
(0.0842293338563 0.891909243986 0)
(0.0879998360203 0.843405748056 0)
(0.0964760450915 0.796258721909 0)
(0.106769751285 0.752540914048 0)
(0.114354898192 0.714704270368 0)
(0.116970848855 0.680211993765 0)
(0.114022268364 0.645711412042 0)
(0.10496415722 0.609015302025 0)
(0.0929818839461 0.568854474376 0)
(0.0829399488192 0.536963757258 0)
(0.0753556958413 0.515455671397 0)
(0.0686970767698 0.503666470493 0)
(0.0604592569538 0.498387264639 0)
(0.0406940077281 0.493235057162 0)
(0.0169753359309 0.487090842988 0)
(0.00637178951371 0.487780250902 0)
(0.00349018689824 0.488064288523 0)
(0.0429307447048 1.14827797317 0)
(0.0888354505542 1.02527331134 0)
(0.088275040906 0.955487417538 0)
(0.0856590732299 0.900837428371 0)
(0.0900804525104 0.852853200224 0)
(0.0988140317485 0.808174484012 0)
(0.107952096797 0.768563831388 0)
(0.113807572339 0.735413476409 0)
(0.116013522185 0.704012763543 0)
(0.113387435859 0.671764567712 0)
(0.104117131019 0.636275020717 0)
(0.0915829683219 0.593970729462 0)
(0.0812186740661 0.557247143019 0)
(0.0736162671055 0.531090355366 0)
(0.0666103458946 0.514769273125 0)
(0.0579843969735 0.506387459947 0)
(0.0417521764488 0.502641530993 0)
(0.0196064641957 0.492787985411 0)
(0.00689863822141 0.492388385183 0)
(0.00371059812779 0.491682226171 0)
(0.0424484746125 1.17818010603 0)
(0.0887855490611 1.04347641983 0)
(0.0900032368718 0.969022170649 0)
(0.0885362179344 0.913688649315 0)
(0.0930028615352 0.866757278215 0)
(0.100435914845 0.824032659364 0)
(0.107665574654 0.787511158645 0)
(0.112714820954 0.75740121105 0)
(0.115186148219 0.728333752325 0)
(0.112123899438 0.698005939086 0)
(0.101662774378 0.663092143151 0)
(0.0884233908848 0.62008642687 0)
(0.0775497375202 0.578435114086 0)
(0.069266905213 0.547050469922 0)
(0.0612933869136 0.525429969522 0)
(0.0515866508378 0.512967090153 0)
(0.037502821766 0.507831013403 0)
(0.0166461088862 0.498160956191 0)
(0.00287698309437 0.496608472888 0)
(0.00021990356781 0.494891798748 0)
(0.0413756365621 1.20914770657 0)
(0.0875910819369 1.06409305646 0)
(0.0904940562912 0.986055853162 0)
(0.0897274241323 0.931409900084 0)
(0.093778063986 0.886017613355 0)
(0.100316886943 0.844508608526 0)
(0.106923775284 0.809256933118 0)
(0.111815039185 0.780189555626 0)
(0.113110412879 0.751817488859 0)
(0.107368311566 0.72136006903 0)
(0.0961698460521 0.685606811988 0)
(0.0844471409179 0.643695276493 0)
(0.0736714294949 0.599548925237 0)
(0.0639957303478 0.561401192783 0)
(0.0543629693113 0.534046333016 0)
(0.0432292748266 0.51658573191 0)
(0.0295216437357 0.508439707858 0)
(0.00901482911017 0.503300789057 0)
(-0.00491302328285 0.499180587077 0)
(-0.00652640254758 0.496701390063 0)
(0.0444873118134 1.2349574707 0)
(0.0952109383924 1.08815870772 0)
(0.0974830382148 1.0111318928 0)
(0.0932341655991 0.958302807875 0)
(0.0948068400201 0.913351740196 0)
(0.0996471809026 0.870717819311 0)
(0.104693950837 0.833760763534 0)
(0.106775190793 0.802670484113 0)
(0.103623256301 0.771976204257 0)
(0.0962234131413 0.738484021129 0)
(0.0882753693398 0.701069061596 0)
(0.0798680597378 0.660635469056 0)
(0.0699996585937 0.61826384388 0)
(0.0595729927451 0.574832426983 0)
(0.0481943175275 0.539506461786 0)
(0.0352990634525 0.516811307712 0)
(0.0210460935622 0.505405064036 0)
(0.000970817101588 0.503981512275 0)
(-0.0136088907806 0.49923704473 0)
(-0.0153256332572 0.49645015967 0)
(0.0495321745866 1.2517985634 0)
(0.104964435122 1.11682815971 0)
(0.104442105651 1.04803721552 0)
(0.0949063030463 0.998936253661 0)
(0.091260273012 0.951009317025 0)
(0.0916079219389 0.902101030952 0)
(0.0922653392739 0.859413577894 0)
(0.0900624220551 0.822869463868 0)
(0.0856280129834 0.786658008466 0)
(0.0815598892503 0.748162876849 0)
(0.0779279387311 0.708772946039 0)
(0.0727181188716 0.669485982049 0)
(0.0652938012836 0.630263185282 0)
(0.0556586858533 0.587763993969 0)
(0.0441342310951 0.543220678849 0)
(0.0305597509606 0.514937021522 0)
(0.01557786402 0.500188301854 0)
(-0.00102319007561 0.497399267542 0)
(-0.0179907287687 0.497022581987 0)
(-0.0248463403389 0.494064007615 0)
(0.0537142424268 1.26190596618 0)
(0.108809310536 1.14780186963 0)
(0.10073440797 1.0934360246 0)
(0.0844186947175 1.05081648937 0)
(0.0742060291612 0.995624615765 0)
(0.0699102052902 0.934367657006 0)
(0.0680248509419 0.882126978758 0)
(0.0661660565484 0.837642432008 0)
(0.0650922001954 0.793831135374 0)
(0.0650876545366 0.749444188102 0)
(0.0651363366175 0.708127912031 0)
(0.0636425234685 0.670698869803 0)
(0.0592056024845 0.634523682515 0)
(0.052198242263 0.596329430308 0)
(0.042661680101 0.548241839429 0)
(0.0295453364559 0.512380846397 0)
(0.0146026412002 0.494096745015 0)
(-4.38329016777e-05 0.488467443014 0)
(-0.021616522654 0.492055849879 0)
(-0.034286861611 0.489811511017 0)
(0.0537546589182 1.26760833877 0)
(0.10140532766 1.17811679302 0)
(0.0840678732207 1.14058645181 0)
(0.0642741220386 1.10555180442 0)
(0.0512557432905 1.04013980385 0)
(0.0456132997352 0.962819735069 0)
(0.044473942271 0.898366637464 0)
(0.0453825599413 0.844492652424 0)
(0.0478422930015 0.792736390054 0)
(0.0514149528214 0.743017764901 0)
(0.0550118919202 0.700505211299 0)
(0.0568781842845 0.665128285223 0)
(0.0553691457874 0.632981010698 0)
(0.0505209385849 0.598549941852 0)
(0.0426425024213 0.554229898283 0)
(0.0314013327099 0.509947629604 0)
(0.017507711985 0.487997910212 0)
(0.00358216774193 0.480109475206 0)
(-0.0160074712722 0.482734359334 0)
(-0.0349036107161 0.483863461548 0)
(0.0485885144852 1.28292268254 0)
(0.0857991851812 1.21134476033 0)
(0.0649829167972 1.18378330967 0)
(0.0486811662605 1.15296160859 0)
(0.0379638627644 1.07822769271 0)
(0.0332224055283 0.985906516352 0)
(0.0332436407462 0.908566370951 0)
(0.0360937134151 0.845032963616 0)
(0.0407625758288 0.786546707285 0)
(0.0466416960442 0.733323540164 0)
(0.052148180405 0.69079467812 0)
(0.0553416994433 0.656089145489 0)
(0.055249711774 0.627367951859 0)
(0.051616643857 0.597021089077 0)
(0.0449920518385 0.558501948909 0)
(0.0358950979298 0.509407608149 0)
(0.0237633673848 0.483142416768 0)
(0.0107099390677 0.473068817888 0)
(-0.00256435061171 0.472511639945 0)
(-0.0282352174101 0.476261039651 0)
(0.0453668152231 1.31313496385 0)
(0.0797382925355 1.24649586208 0)
(0.0619519395816 1.2180240299 0)
(0.0500343413247 1.18835641061 0)
(0.0414574804886 1.10925189862 0)
(0.0370430248967 1.00624316321 0)
(0.0371535288229 0.917193892486 0)
(0.0405051395222 0.844583596637 0)
(0.0458536610756 0.780759958413 0)
(0.052099778279 0.725833772488 0)
(0.0574530144746 0.684139259177 0)
(0.0601589052542 0.648851379108 0)
(0.0600447761997 0.620726997627 0)
(0.0569871817863 0.59457901298 0)
(0.0508967396621 0.561029878183 0)
(0.0427055198994 0.512301618334 0)
(0.0321322312119 0.480862443101 0)
(0.0202431937775 0.468000312801 0)
(0.00909953280629 0.465369098202 0)
(-0.0191569926153 0.468350346945 0)
(0.0445615573913 1.34718365612 0)
(0.0808904728091 1.27584415723 0)
(0.0679338143494 1.24011817764 0)
(0.059465868604 1.21276309936 0)
(0.0526936171118 1.13579534007 0)
(0.0487908447024 1.0265041692 0)
(0.0490942251043 0.927927577082 0)
(0.0526498806144 0.847493987336 0)
(0.0579868971472 0.779501380212 0)
(0.0635973312862 0.724037729466 0)
(0.0680312083923 0.683237676471 0)
(0.0700339864559 0.647267840604 0)
(0.0692261058012 0.61710867492 0)
(0.0657963127835 0.593017710294 0)
(0.0595013284354 0.563908397237 0)
(0.0512330958278 0.518576279512 0)
(0.0416952385076 0.482184562437 0)
(0.0307246592804 0.465700794223 0)
(0.0199246382847 0.461109683849 0)
(0.000146965934117 0.462090825508 0)
(0.0464046983676 1.37364802405 0)
(0.0866324649175 1.29583578232 0)
(0.0760574877219 1.25343107125 0)
(0.0685099155221 1.22846482867 0)
(0.0628845559026 1.15778464455 0)
(0.0600903563853 1.04567787373 0)
(0.0613800889433 0.940441301806 0)
(0.0655772771088 0.854213705875 0)
(0.0710761542928 0.783367360749 0)
(0.076297447656 0.728391278134 0)
(0.0800563440278 0.68830978267 0)
(0.0816884755379 0.652147074834 0)
(0.0803138264803 0.619454126037 0)
(0.07609029066 0.594134794944 0)
(0.0694367863448 0.568431962125 0)
(0.0610718922137 0.527891859628 0)
(0.0518814309404 0.48786746657 0)
(0.041329343654 0.46681634794 0)
(0.0304949041204 0.459452389999 0)
(0.0173482411594 0.458345580409 0)
(0.0470879029092 1.38679844604 0)
(0.0890693991921 1.30567864064 0)
(0.0797694647366 1.26156568429 0)
(0.0726288843449 1.23793299634 0)
(0.068240433472 1.17259915519 0)
(0.0675421623073 1.0601604932 0)
(0.0706211007006 0.951707720986 0)
(0.0760858217734 0.862373082391 0)
(0.0824207364457 0.790505713773 0)
(0.0878157414296 0.737245496924 0)
(0.0912834598663 0.697929141319 0)
(0.0926801873936 0.662125016216 0)
(0.091084353414 0.627849643192 0)
(0.0866714515233 0.599703532883 0)
(0.0803540652999 0.575143966725 0)
(0.0718660065579 0.540549688337 0)
(0.0617308710322 0.498212312318 0)
(0.0507179403311 0.471406648519 0)
(0.0397761755911 0.460008880719 0)
(0.0284483018462 0.45705095759 0)
(0.0451581841946 1.39807909815 0)
(0.0856546273651 1.30979150886 0)
(0.0772784451796 1.26438093104 0)
(0.0714227901245 1.24072039838 0)
(0.0693281640022 1.17695541858 0)
(0.0714842780006 1.06647056228 0)
(0.0769823130419 0.958736033669 0)
(0.0844339164536 0.869502507005 0)
(0.0920861068825 0.798971381737 0)
(0.0977803883468 0.748579760797 0)
(0.101143408112 0.710332674143 0)
(0.10249047947 0.675243987323 0)
(0.101194003941 0.64060142714 0)
(0.0975254254775 0.610093465242 0)
(0.0921254419042 0.584527437597 0)
(0.0829426150078 0.556574183591 0)
(0.0704534612785 0.513274478616 0)
(0.0580632973232 0.478773806722 0)
(0.0467503662001 0.462200500331 0)
(0.0357961917331 0.457380004464 0)
(0.0448516741651 1.41186777718 0)
(0.0856759492196 1.31167696176 0)
(0.077340284086 1.26442712652 0)
(0.0711922542561 1.23758943196 0)
(0.0705257421274 1.17164101378 0)
(0.0750503081439 1.06502240913 0)
(0.0829495289131 0.961355451188 0)
(0.0924491727781 0.875171154971 0)
(0.1011321325 0.808159884177 0)
(0.106836003184 0.761259446506 0)
(0.110042703724 0.72433250537 0)
(0.11141566352 0.689955359253 0)
(0.110447841337 0.655691268875 0)
(0.107994132433 0.623924610873 0)
(0.103872096385 0.596907157297 0)
(0.0934604813567 0.574960271269 0)
(0.0776937220795 0.532551408077 0)
(0.0634500806705 0.48816427289 0)
(0.0521210049394 0.46566365733 0)
(0.041415507224 0.458620297567 0)
(0.0446728999702 1.42654923661 0)
(0.085567667852 1.31311969008 0)
(0.0771870294641 1.26396238404 0)
(0.071436914751 1.2307172631 0)
(0.0724288742754 1.16076945245 0)
(0.0789585904877 1.05896900206 0)
(0.088855941946 0.961266528257 0)
(0.0998799195477 0.880112483577 0)
(0.10902769794 0.81820792532 0)
(0.114447329314 0.77483395545 0)
(0.117450111878 0.739269628388 0)
(0.118783996386 0.705479728995 0)
(0.118137885072 0.67165785273 0)
(0.116991844366 0.639584843916 0)
(0.113672927071 0.612062144148 0)
(0.101575388085 0.594707701782 0)
(0.0829141833279 0.554394550093 0)
(0.0675357786409 0.499612296241 0)
(0.0567908231254 0.470728732624 0)
(0.0464587427628 0.46078145954 0)
(0.0440101130855 1.44473078591 0)
(0.0843660230947 1.31654931232 0)
(0.0767401311331 1.26199771684 0)
(0.0725498847027 1.22074598304 0)
(0.0751352207431 1.1474782435 0)
(0.0830145453458 1.05082788309 0)
(0.094243028987 0.959879401434 0)
(0.10613094072 0.884893777307 0)
(0.115169872839 0.82912542642 0)
(0.120122927002 0.788976542368 0)
(0.122915266986 0.754732330242 0)
(0.124124193741 0.721477887091 0)
(0.123650151953 0.687958080439 0)
(0.123392515858 0.656199667769 0)
(0.120395202311 0.6296204393 0)
(0.106262358153 0.61542761924 0)
(0.0859246867582 0.57749327482 0)
(0.0709974339648 0.51446692078 0)
(0.0610674078603 0.478150022328 0)
(0.0511165192773 0.464273669513 0)
(0.0432932859204 1.46542010112 0)
(0.0835357266744 1.32156219317 0)
(0.0771503301223 1.25810811486 0)
(0.074235383954 1.20890864464 0)
(0.0779593474427 1.13365377116 0)
(0.0868558882507 1.04227202074 0)
(0.0990523187621 0.958367944369 0)
(0.111182849085 0.890196192392 0)
(0.119616771305 0.840855065561 0)
(0.12417025886 0.803550512593 0)
(0.126857985696 0.770522823235 0)
(0.127790593704 0.737713484155 0)
(0.127213531401 0.704434916766 0)
(0.127524785469 0.67347716083 0)
(0.12374127876 0.649393838255 0)
(0.107956152784 0.637006944811 0)
(0.0884036264491 0.601045873352 0)
(0.0744280287053 0.533526136207 0)
(0.0645225276789 0.48826106875 0)
(0.0548543150411 0.469312914897 0)
(0.0408562679604 1.49352196071 0)
(0.0791175408416 1.32851994051 0)
(0.0741655335894 1.25168131205 0)
(0.07328245451 1.19442826953 0)
(0.0789717625801 1.11891665522 0)
(0.0895340570876 1.03369261406 0)
(0.102922154736 0.957405115543 0)
(0.115084092503 0.896676233882 0)
(0.122837881991 0.853264014502 0)
(0.127212582256 0.818487222386 0)
(0.129809351083 0.786484279456 0)
(0.130365761926 0.753958346312 0)
(0.129544451449 0.720789547152 0)
(0.129644175256 0.691026924921 0)
(0.124348895823 0.671067611157 0)
(0.108217091068 0.658893375618 0)
(0.0903042981101 0.624152690658 0)
(0.0768172826012 0.556009565575 0)
(0.0668715851427 0.50104381034 0)
(0.0573201230204 0.475849919309 0)
(0.0415966218164 1.52355577915 0)
(0.08194024359 1.33570212532 0)
(0.0775071872866 1.24435078403 0)
(0.0758638920873 1.17860760225 0)
(0.0820078414207 1.10418769706 0)
(0.0934881857697 1.02613973381 0)
(0.107477813593 0.957996474936 0)
(0.119131535208 0.905090752306 0)
(0.126133962548 0.866513482389 0)
(0.130258868261 0.83386278934 0)
(0.132512003969 0.802587777984 0)
(0.132464137907 0.770030654226 0)
(0.131171747629 0.736704051887 0)
(0.130375817733 0.708414221101 0)
(0.123315241509 0.693987209444 0)
(0.107706264838 0.680454231625 0)
(0.0919043558458 0.646550561589 0)
(0.078570603865 0.581217501705 0)
(0.0679104160789 0.515872101506 0)
(0.0580498419053 0.483366335727 0)
(0.0421378940501 1.5446008319 0)
(0.084402920344 1.33965031244 0)
(0.0812782788182 1.23722498665 0)
(0.0798270855084 1.16422695017 0)
(0.0865870135879 1.09204164315 0)
(0.0987757748305 1.02171745717 0)
(0.112735707841 0.961723395132 0)
(0.12350573327 0.916221849888 0)
(0.129938059177 0.881296884124 0)
(0.133770210287 0.850237183872 0)
(0.135301945833 0.819199800991 0)
(0.134314271912 0.78598905922 0)
(0.132348277705 0.752156748755 0)
(0.130000602573 0.725478929247 0)
(0.121115170449 0.716949778839 0)
(0.106684740694 0.701204134867 0)
(0.0931293334502 0.667810830825 0)
(0.0794615751601 0.607797400393 0)
(0.0674079636504 0.531523225998 0)
(0.0571117512584 0.491245215871 0)
(0.0422480767122 1.55733423265 0)
(0.0866309642709 1.33900490342 0)
(0.0860869450377 1.22891926991 0)
(0.0857892536493 1.15230888569 0)
(0.0934016738224 1.08455506235 0)
(0.105878889425 1.02248489592 0)
(0.11910336292 0.970265987806 0)
(0.128642536853 0.930864882907 0)
(0.134456547043 0.898700487141 0)
(0.137562195298 0.868658153173 0)
(0.137764619398 0.837054013078 0)
(0.13537565199 0.802236227226 0)
(0.132422769531 0.767472609973 0)
(0.127711031258 0.742218314907 0)
(0.116691419308 0.7385106023 0)
(0.104116922699 0.721159636275 0)
(0.0925428298852 0.688049757492 0)
(0.0785047210313 0.633854824114 0)
(0.0658377111657 0.549264205856 0)
(0.055464698289 0.500349694502 0)
(0.0408644204276 1.56445671543 0)
(0.0866007030385 1.33308275112 0)
(0.0904023937523 1.21992325342 0)
(0.092861747698 1.14481572278 0)
(0.10200630323 1.08406546114 0)
(0.114550264396 1.03048161888 0)
(0.126602937485 0.985236348461 0)
(0.134884328876 0.950263267486 0)
(0.139714144165 0.920101439992 0)
(0.141092609399 0.890143507977 0)
(0.138765677453 0.856467000225 0)
(0.134074034578 0.818745259918 0)
(0.129274957219 0.782559539578 0)
(0.12166133538 0.758302080665 0)
(0.110155074286 0.758247420553 0)
(0.1002018945 0.741236644085 0)
(0.0899490639559 0.708717890946 0)
(0.0764616737901 0.659039838826 0)
(0.063699764311 0.571712238367 0)