/*--------------------------------*- C++ -*----------------------------------*\
| =========                 |                                                 |
| \\      /  F ield         | OpenFOAM: The Open Source CFD Toolbox           |
|  \\    /   O peration     | Version:  2312                                  |
|   \\  /    A nd           | Website:  www.openfoam.com                      |
|    \\/     M anipulation  |                                                 |
\*---------------------------------------------------------------------------*/
FoamFile
{
    version     2.0;
    format      ascii;
    arch        "LSB;label=32;scalar=64";
    class       volScalarField;
    location    "0.035/water";
    object      alpha.gas;
}
// * * * * * * * * * * * * * * * * * * * * * * * * * * * * * * * * * * * * * //

dimensions      [0 0 0 0 0 0 0];

internalField   nonuniform List<scalar> 
1496
(
0.761477796467
0.706733630768
0.639486503679
0.594244640778
0.581362072513
0.559161284281
0.5001863193
0.40552416559
0.313075352356
0.238286559474
0.169300683189
0.0995515926149
0.048148676881
0.0298102264377
0.0262006581141
0.0245521880433
0.0224897489009
0.0196444627277
0.0164134664914
0.0132920740685
0.764383317094
0.706834093634
0.640209485656
0.592630285525
0.58096872083
0.559872802211
0.502478953862
0.409610124272
0.317038314156
0.240547178996
0.170062963948
0.0997540201171
0.0481353390095
0.0296516795397
0.0260623523909
0.0244607236224
0.0224562295346
0.0196566677081
0.0164434149823
0.0133256790158
0.761477796467
0.70725360156
0.638843309938
0.589744717558
0.579867098705
0.55981317015
0.503040285371
0.411828723028
0.319342139687
0.241427267934
0.170111918388
0.0995828199253
0.0478823271986
0.0294395981701
0.0259227699075
0.0243805505021
0.022435400396
0.0196753153572
0.0164808837424
0.0133698762021
0.76402805404
0.707483031863
0.634322547396
0.585239757222
0.577456446406
0.558757823437
0.502741156399
0.412036906534
0.319607787001
0.241242147624
0.169299629203
0.0984747441059
0.0471736979856
0.0291460645307
0.025782482425
0.0243116236336
0.0224200405541
0.0196919963022
0.0165150161191
0.0134162869382
0.761477796467
0.706991507523
0.626684130221
0.579819713862
0.574117839896
0.556554308897
0.501350321723
0.411388251226
0.318962186919
0.239576613094
0.166443707809
0.0957637196243
0.0458200994081
0.02874309948
0.0256322500018
0.0242425730561
0.022399576425
0.0196959666288
0.0165292060409
0.0134387498761
0.763193188259
0.70416788706
0.62010203921
0.575316336947
0.571309317603
0.554487813146
0.499202028226
0.409297192454
0.316361935606
0.235319062887
0.16114040514
0.0914311753043
0.0438582204143
0.0282393685881
0.0254590755682
0.0241569716915
0.0223610491362
0.0196868023831
0.0165286770456
0.0134415349896
0.761477796467
0.701184728465
0.614858475854
0.572430785285
0.569652425412
0.55329450063
0.497123192906
0.405949300504
0.311667054763
0.229154214172
0.154667074557
0.0865373428246
0.0417249287659
0.0276986615801
0.0252560012618
0.0240398882516
0.0222905294761
0.0196487087383
0.016510639863
0.0134337539718
0.762049774991
0.698885205069
0.611402345782
0.570652824625
0.568852980432
0.552999411732
0.496020334815
0.40298915324
0.307170341003
0.223819729967
0.149531790317
0.0827229424569
0.0400041796587
0.0272068912738
0.0250308846199
0.0238878111075
0.022182076587
0.0195744841347
0.0164635626535
0.0134054947928
0.761477796467
0.696312974999
0.608423247273
0.569156319288
0.568284324313
0.553269738155
0.49652808273
0.40255570607
0.305175545472
0.221099305038
0.146867891199
0.0806736120456
0.0389680394162
0.0268206644316
0.0248053284657
0.0237146537734
0.0220452398424
0.0194704500259
0.016389630725
0.0133560616852
0.760765327621
0.692465045752
0.604928730154
0.568038133548
0.56804267653
0.554004470875
0.497939002653
0.403100968379
0.304614185265
0.219911288004
0.145657821507
0.07978963266
0.0384565048548
0.026537500831
0.0245973115304
0.0235394604942
0.0218966277296
0.0193479307756
0.0162952882404
0.013289247818
0.757116088918
0.686976567086
0.603137820214
0.56814351925
0.568448413045
0.555434890511
0.500146816557
0.404140945342
0.304277005161
0.219067138495
0.144903066453
0.0793117312826
0.0381829014402
0.0263200204891
0.0244079324823
0.0233684071661
0.0217431971388
0.0192135028264
0.0161851706546
0.0132071462864
0.754137321268
0.683049296634
0.603950339353
0.569608142235
0.569897085263
0.557606013595
0.502737133179
0.405141208965
0.303721914195
0.218180670038
0.144387823522
0.0793650162302
0.0381080911548
0.0261461809169
0.0242286641699
0.0231946668252
0.0215793381456
0.019065269105
0.016060302062
0.0131104366135
0.752546199263
0.682599904787
0.607721738017
0.572580114439
0.572283061205
0.560168608929
0.505311176713
0.405947281269
0.302968468529
0.217392870675
0.144390485918
0.0796565521251
0.0382069053524
0.0260176725771
0.0240550528712
0.0230115397477
0.021397383487
0.0188977903331
0.0159190605024
0.0129994963663
0.744029281506
0.677100426459
0.607289689293
0.574776790475
0.574452313861
0.562380307364
0.506726656166
0.405793909041
0.301667435225
0.216420612435
0.144264088705
0.079841638998
0.0382527540799
0.02590589455
0.0238869021465
0.0228201861951
0.0211964499432
0.0187091837555
0.0157609283938
0.0128755857047
0.719341411835
0.653565413873
0.59831468522
0.575087902721
0.574806839281
0.562775281359
0.505345810395
0.402227731417
0.298006614107
0.21416827267
0.143269396361
0.0793694472119
0.0380200211831
0.0257553738884
0.0237185939717
0.0226241107679
0.020981691963
0.0185037038678
0.0155892332528
0.01274257146
0.704096714458
0.622605653552
0.579259438715
0.572244350478
0.574368477038
0.561370466979
0.498347530942
0.392380307619
0.290719357491
0.210042809403
0.140912668678
0.0778108197181
0.0372816178265
0.0255346715852
0.0235425961563
0.0224239831274
0.0207598448311
0.0182915311238
0.0154153974941
0.0126106155679
0.703259851759
0.58060500374
0.558923463196
0.563713141896
0.571702668815
0.555130370552
0.484071025414
0.377501409621
0.281176410255
0.205131389235
0.138071056453
0.0756487873191
0.0362619524339
0.0252736632221
0.0233562574742
0.0222196548012
0.0205387260907
0.018087339216
0.0152497537349
0.0124841961097
0.702378979678
0.547296511644
0.55195681064
0.555718687211
0.566137367348
0.544839538874
0.468917807174
0.364241311585
0.273301389617
0.201791407753
0.136576386229
0.0743191700086
0.0355167658904
0.0250303589175
0.0231635671178
0.0220158230172
0.0203318687623
0.0178965814992
0.0150946097773
0.0123718976934
0.701076215261
0.547687762775
0.555943578934
0.557304062051
0.564794705264
0.539953492189
0.462516872929
0.358984901671
0.270227263109
0.200917618149
0.136496831652
0.0741421099947
0.0352813273323
0.0248366493378
0.0229778902256
0.0218280325098
0.0201492095507
0.0177386008772
0.0149834702437
0.0123028732706
0.696663665544
0.560451180467
0.568800129867
0.567250366455
0.568493852727
0.5410216634
0.462515658478
0.358782982171
0.270094643588
0.201245518901
0.137383600648
0.0746998435129
0.0353357710456
0.024701852644
0.0228189386979
0.0216784442689
0.0200213248324
0.0176657863067
0.0149493005448
0.0122850487317
0.687057831245
0.583469439396
0.592536725866
0.587978779449
0.580029059145
0.546193128903
0.465957396927
0.361285051286
0.271718496978
0.202844677033
0.139143709819
0.0760594607405
0.0357078609422
0.0246188744848
0.0226964473698
0.021578310615
0.0199762351586
0.0176605291303
0.0149510183813
0.0122886146434
0.677285899949
0.608822419801
0.619693221092
0.611892257873
0.594857501343
0.554787745944
0.473520766019
0.367549443166
0.275777118226
0.205420556153
0.141272645017
0.0779170969018
0.0364240387556
0.0246215142576
0.0226040466748
0.0215167224993
0.0199746172033
0.0176813376313
0.014982581505
0.0123201772464
0.677944914615
0.638765061418
0.643872415734
0.63016828597
0.606489583634
0.563745097912
0.483371825078
0.376613962196
0.281803985316
0.209032178061
0.144197630398
0.0805971395602
0.037600348396
0.0246847472319
0.0225293677359
0.0214762979166
0.0199921525905
0.0177500634907
0.0150648053845
0.0123951599002
0.698355753755
0.676463364412
0.66251431626
0.639250381714
0.613283928689
0.572195966317
0.495847732614
0.38981838062
0.29116808936
0.21487833197
0.148869448957
0.0848522537181
0.0396205600723
0.0248955538155
0.0224720801512
0.0214494017012
0.0200417797297
0.0178665352468
0.0151940288153
0.012509860669
0.739076668617
0.716352216694
0.678076938346
0.642986086171
0.616228760075
0.579730289807
0.510950859336
0.408861296186
0.306178528775
0.224443809399
0.155980471075
0.0911423753984
0.0428841518458
0.0253709766038
0.0224460882099
0.0214348984165
0.0201171271753
0.0180169993308
0.0153571593619
0.0126529309318
0.780159710323
0.740159010499
0.686675613649
0.64355517727
0.616378117777
0.583577389938
0.523042029046
0.428278973523
0.324402821903
0.236845256973
0.164853187917
0.0987382449917
0.0472017387734
0.0261678109096
0.0224576719984
0.0214260039715
0.0202024968643
0.0181833374304
0.0155388106875
0.0128100045247
0.800689259373
0.747659563263
0.686399336111
0.639964196358
0.613330427968
0.582937423903
0.526698464978
0.437801822525
0.336185806765
0.246254948927
0.172343406306
0.105702715461
0.0517189841723
0.0271788254513
0.0224808647445
0.0214118898899
0.0202637241934
0.018331225588
0.0157107828867
0.0129596230544
0.805123442975
0.748062842349
0.681337233078
0.629085625376
0.603991204265
0.577690936294
0.525286790994
0.438465602774
0.338475570661
0.249053409118
0.175728288571
0.110093512448
0.0552324007511
0.0280905586843
0.0224882417758
0.0213799710272
0.0202760374136
0.0184249455334
0.015833847959
0.0130723896086
0.806136690582
0.748838893447
0.673016507068
0.615011359895
0.59139341369
0.567981810439
0.51902372315
0.435369683151
0.337331098144
0.248904376974
0.176295018506
0.111906313264
0.0570737022841
0.0286230286803
0.022458697947
0.0213181017161
0.020265346661
0.0184562469829
0.0158954078212
0.0131361839042
0.810735550407
0.750534245531
0.666706061284
0.603943241086
0.580695038129
0.558205370373
0.509623865249
0.427293290405
0.332446839696
0.246938701132
0.176033055499
0.112480075396
0.057865716844
0.0288581158822
0.0223817083546
0.0212238053378
0.0202164763644
0.018452487443
0.0159117119362
0.0131611438858
0.813841136013
0.751844737444
0.663560067282
0.596580845632
0.572561548044
0.550265806741
0.501121494643
0.417976406484
0.32534681817
0.243266950341
0.174906578091
0.112551326189
0.0582465448046
0.0289605476185
0.0222791571428
0.0211073800788
0.0201235397576
0.0184113974016
0.0159020920447
0.0131623014453
0.813134172777
0.752207555405
0.662138250034
0.591886026322
0.566178445215
0.544259868816
0.497471732086
0.416280721912
0.32363364302
0.242135834424
0.174640329807
0.112784694623
0.0586002585882
0.0290241236065
0.0221758435937
0.0209850921558
0.0200059735117
0.0183219156198
0.0158504840677
0.0131387406374
0.813352820272
0.751654731892
0.663370515252
0.593192891986
0.566147935493
0.544032471201
0.498586851716
0.418237735072
0.324974755012
0.24283518211
0.175163893237
0.113478440098
0.0591735817949
0.029156592303
0.0220920238647
0.0208673196237
0.0198815864466
0.0182057448317
0.0157591308784
0.0130785928981
0.812854221315
0.742278536865
0.665575123792
0.599919113543
0.569479975184
0.54593790649
0.502274785903
0.423910332554
0.329525715117
0.24552043777
0.176910660626
0.114934189927
0.060197022362
0.0294429668921
0.0220389478049
0.0207576061228
0.0197573429961
0.0180810856469
0.0156494315309
0.0129960394011
0.728642790784
0.69602403098
0.666168307936
0.627939314694
0.58921257027
0.556409609213
0.510110149886
0.432768093354
0.337185474681
0.250443291165
0.179848124526
0.116959544059
0.0615540947571
0.0298636150439
0.0220041422613
0.0206459831266
0.019627257476
0.0179508621338
0.0155407585621
0.0129192996063
0.583404199685
0.609344210178
0.648389739666
0.647369565231
0.628120494092
0.585949701847
0.526442510852
0.444077197285
0.346663101917
0.256990948369
0.183571218523
0.119135141015
0.0628377075397
0.0302777059299
0.0219768933657
0.0205521639299
0.0195206134415
0.0178562975612
0.0154787373922
0.0128812885853
0.583030577039
0.583030577039
0.594954265314
0.646613578685
0.645857416556
0.622183381433
0.553087706527
0.459867337013
0.36050756466
0.268776512638
0.191713099315
0.124718068343
0.0663767942145
0.03148121886
0.0220495310551
0.0204297277172
0.0193784452279
0.017750773004
0.0154146538987
0.0128343305282
0.00415136272624
0.00399514379265
0.00353043433686
0.00235697868505
0.000803966163416
8.10183291515e-05
4.57254347956e-07
3.85466253376e-15
9.31555774595e-15
1.00257166387e-14
9.90062556736e-15
9.46369728904e-15
8.99639900145e-15
9.0691696956e-15
1.13016102148e-14
9.79877430551e-15
0.0102397804093
0.00725508117246
0.00503624697779
0.0042716443179
0.00412877555297
0.00397668787539
0.0035310780836
0.00239122625414
0.000839447558012
8.87310341853e-05
6.38582774236e-07
3.85466252684e-15
9.10818088755e-15
9.86285595865e-15
9.72869060858e-15
9.2794428514e-15
8.81499890765e-15
8.93853223854e-15
1.12474615977e-14
9.66493382254e-15
0.0102806966602
0.0073008172002
0.00505521074542
0.00425531653342
0.00410613426542
0.00395838068181
0.00353352678699
0.00242761216466
0.000877277808638
9.71902095266e-05
8.49307777541e-07
3.85466253321e-15
8.92707748408e-15
9.72979837911e-15
9.59040885723e-15
9.12565457052e-15
8.65755976916e-15
8.82087526896e-15
1.11991467406e-14
9.5188477839e-15
0.0103308421055
0.00735247861379
0.00507785096399
0.00424018242431
0.0040838451797
0.00394017376645
0.00353409204951
0.00246274448621
0.000915242332041
0.000106014612687
1.08362679461e-06
3.85466252592e-15
8.79246988826e-15
9.63874077937e-15
9.49954188223e-15
9.01413774137e-15
8.52126722614e-15
8.69542846296e-15
1.117316816e-14
9.35813804009e-15
0.0103868500634
0.0074061323577
0.00510173107069
0.00422552149846
0.00406144484755
0.00392129945553
0.00353292324945
0.00249428642749
0.000951724245635
0.000114958976712
1.33774747026e-06
3.85466253253e-15
8.69777119189e-15
9.57618599891e-15
9.44379000849e-15
8.94678223487e-15
8.41674412335e-15
8.55218323118e-15
1.11608770727e-14
9.18525599738e-15
0.0104251145717
0.00745349063923
0.00512136105319
0.0042096826798
0.00403789220817
0.00390081022062
0.00352909097219
0.00252186344051
0.000986283940463
0.000123900686089
1.60707429129e-06
3.85466252552e-15
8.61167043839e-15
9.51452187638e-15
9.39132255937e-15
8.89319785618e-15
8.32733472891e-15
8.39923056285e-15
1.11278339091e-14
9.02543112372e-15
0.0104347687993
0.00747517941147
0.00512960642373
0.00419122693102
0.00401238943202
0.00387827539276
0.00352232264837
0.00254584731444
0.00101877171859
0.000132648908405
1.88213840734e-06
3.85466253252e-15
8.49927487087e-15
9.42560547907e-15
9.30842566705e-15
8.81321979723e-15
8.21628240695e-15
8.26218856753e-15
1.10114258783e-14
8.90522800034e-15
0.0104334032143
0.00747809580342
0.00513002042884
0.0041696066689
0.00398498659337
0.00385407151861
0.00351293981582
0.0025658581567
0.00104835463837
0.0001408718174
2.15059338686e-06
3.85466252572e-15
8.33902464041e-15
9.29309678352e-15
9.17398049863e-15
8.68228383171e-15
8.07577556828e-15
8.158072124e-15
1.07679822578e-14
8.81316765355e-15
0.0104198706662
0.0074740472698
0.00512392689374
0.00414500857978
0.00395646048332
0.00382888453002
0.00350098228264
0.00258064622646
0.00107391333966
0.000148336195912
2.40738264946e-06
3.85466253177e-15
8.14492061964e-15
9.13206314036e-15
9.00916894267e-15
8.52816815417e-15
7.94652040875e-15
8.07574671272e-15
1.04610849955e-14
8.73099861039e-15
0.0103891014811
0.00745744332045
0.00510726160774
0.00411831862944
0.00392742065998
0.00380284853425
0.00348603238893
0.00258953719704
0.00109549919359
0.00015522191957
2.66292825337e-06
3.85466252537e-15
7.94875239407e-15
8.97384997749e-15
8.85556476008e-15
8.398347833e-15
7.85140637153e-15
7.9940124711e-15
1.01767185767e-14
8.66306430095e-15
0.0103434168638
0.00742750113248
0.00508310448348
0.00409024833793
0.00389756393197
0.00377527949801
0.00346755948704
0.00259359631181
0.00111481544379
0.000162116281478
2.94149806138e-06
3.85466253162e-15
7.76708152335e-15
8.82895341983e-15
8.7222891489e-15
8.29390299956e-15
7.77171539498e-15
7.89906431815e-15
9.93700174327e-15
8.61292053272e-15
0.010284734414
0.00738719537972
0.00505444031333
0.00406041799469
0.00386588413455
0.00374522329709
0.00344542712411
0.00259481518377
0.00113418455566
0.000169748182622
3.27487545073e-06
3.85466252534e-15
7.59891158489e-15
8.6870291263e-15
8.59276277817e-15
8.19135524739e-15
7.68581566032e-15
7.78974090026e-15
9.73349769812e-15
8.56297323235e-15
0.0102133835809
0.00733790545452
0.00502129000942
0.00402785550834
0.00383155471281
0.00371225038416
0.00342007628661
0.0025945467526
0.00115539421548
0.00017873741897
3.69764011163e-06
3.85466253197e-15
7.43697748577e-15
8.53645750737e-15
8.45238301837e-15
8.07470226632e-15
7.58463282368e-15
7.67460014381e-15
9.55268302491e-15
8.48662779369e-15
0.0101298105441
0.00727969774979
0.00498279650054
0.00399221281303
0.00379469586566
0.00367682501216
0.0033921922505
0.00259320592399
0.0011791088406
0.00018949447217
4.24869219415e-06
3.85466252497e-15
7.28894647209e-15
8.37536097032e-15
8.29882303756e-15
7.9423732624e-15
7.47209265265e-15
7.56278324393e-15
9.37536260339e-15
8.35743138907e-15
0.0100354249003
0.00721328134608
0.00493914362979
0.00395439672485
0.00375633966536
0.00363989721795
0.00336221123396
0.00259018928078
0.00120510542009
0.000202346925376
4.98268534049e-06
7.53303509538e-11
4.39040011675e-15
8.18830837111e-15
8.13907152105e-15
7.80265727674e-15
7.3567875752e-15
7.4538634418e-15
9.17870872675e-15
8.16931571737e-15
0.0099345854685
0.0071413811588
0.00489302214439
0.00391614617558
0.00371757632325
0.00360214688827
0.00333025351605
0.00258517610776
0.00123332001258
0.000217757062267
5.98518051853e-06
3.89293627721e-10
4.39040011529e-15
7.98658810049e-15
7.97975438554e-15
7.66162165096e-15
7.24018912699e-15
7.33659575242e-15
8.94742065599e-15
7.95892444845e-15
0.0098332514724
0.00706701699423
0.00484688773271
0.00387847913838
0.00367881898902
0.00356377598971
0.00329665159338
0.00257884627342
0.00126451271693
0.000236366355102
7.37816577068e-06
1.20774343329e-09
4.39040011576e-15
7.78807590413e-15
7.82013203528e-15
7.51768651049e-15
7.11542861526e-15
7.1986595221e-15
8.70053005532e-15
7.78243195682e-15
0.0097359725103
0.00699876503124
0.00480191471981
0.00384149626162
0.00364005442208
0.00352503209177
0.00326254876557
0.0025730395812
0.00129975913349
0.000258708939732
9.31296801842e-06
3.19888920239e-09
4.39040011529e-15
7.56681171715e-15
7.65770609501e-15
7.3656118459e-15
6.9772861166e-15
7.04307173905e-15
8.49655152299e-15
7.65031386727e-15
0.00965874095029
0.00694985622167
0.00476655333692
0.00380647011603
0.00360170840626
0.0034867740685
0.00322978989298
0.00256953906164
0.00133925330785
0.000284829317325
1.19584075684e-05
7.36916724135e-09
4.39040011463e-15
7.35905043297e-15
7.49409835499e-15
7.20709944121e-15
6.83236104117e-15
6.89534423811e-15
8.36561087352e-15
7.52741913578e-15
0.00961745797827
0.00692615586486
0.00475090428771
0.00377581206556
0.00356505095138
0.00345034640944
0.0031999598657
0.00256863625856
0.00138180780175
0.000314282369791
1.54677726451e-05
1.45732297058e-08
4.39040011513e-15
7.19375050698e-15
7.33860959318e-15
7.05390920847e-15
6.69810184657e-15
6.7808144974e-15
8.27563040393e-15
7.37584734879e-15
0.00960837628347
0.0069233035425
0.00474986280474
0.00375162467907
0.00353154512815
0.0034167301885
0.00317352204935
0.00256972992472
0.0014258851902
0.000346620109
1.99506415987e-05
2.57785740265e-08
4.39040011412e-15
7.06134065112e-15
7.20034318365e-15
6.91841031913e-15
6.5867719507e-15
6.6971363073e-15
8.1835083241e-15
7.17393538374e-15
0.0096152349413
0.00693700000195
0.00475991078832
0.00373558476163
0.00350175498547
0.00338589247391
0.00314997769301
0.00257287896094
0.00147095881869
0.000381855868838
2.54642133542e-05
4.32647926694e-08
4.39040011492e-15
6.94222320021e-15
7.07825308413e-15
6.80028417539e-15
6.49274918606e-15
6.62327482529e-15
8.0606276418e-15
6.92608525179e-15
0.00965228437246
0.00698481228064
0.00479297029311
0.0037285202189
0.00347510591558
0.00335708589166
0.00312871761387
0.00257797856326
0.00151759589626
0.000420309229028
3.20058960087e-05
7.3153527004e-08
4.39040011392e-15
6.82113964721e-15
6.96089710944e-15
6.68636200351e-15
6.39838248629e-15
6.53594640998e-15
7.90349095899e-15
6.6610638252e-15
0.00972906082908
0.00706780651662
0.00485042899131
0.00373100759642
0.00345074382378
0.00332967882831
0.00310964215863
0.00258563773923
0.00156627637591
0.000461952225174
3.94954603304e-05
1.3120417555e-07
4.39040011453e-15
6.68415091282e-15
6.83315327941e-15
6.55949279967e-15
6.28417249681e-15
6.41623206476e-15
7.73890768142e-15
6.4136840437e-15
0.00983946357025
0.00717780326498
0.00492759719194
0.00373958124423
0.00342824103058
0.00330369146307
0.00309300477255
0.00259605512932
0.00161627503983
0.000505913436373
4.77979846537e-05
2.36472494114e-07
4.39040011359e-15
6.52085949892e-15
6.68363449439e-15
6.40713336868e-15
6.13726920823e-15
6.26193944799e-15
7.6032118582e-15
6.19789459855e-15
0.00997217637774
0.007305482839
0.00501874263319
0.00375499764795
0.00340780128766
0.00327947374909
0.00307865878967
0.00260826593518
0.00166566605063
0.000550696430653
5.67930964328e-05
4.07631399725e-07
4.39040011366e-15
6.33227558356e-15
6.51305187431e-15
6.23133203867e-15
5.96343952984e-15
6.09707288263e-15
7.50967958394e-15
6.00291550325e-15
0.0101130687386
0.00743888345542
0.00511660097869
0.00377626006288
0.00338942795926
0.00325689505827
0.00306565417906
0.00262042082287
0.00171246541815
0.000594944668055
6.64222901868e-05
6.57494047635e-07
4.39040011342e-15
6.13574960192e-15
6.33848242134e-15
6.05290513461e-15
5.78956369167e-15
5.95311430902e-15
7.43822957057e-15
5.82086743336e-15
0.010246443081
0.00756551202372
0.00521306775534
0.003800360421
0.00337203799077
0.00323498166207
0.0030526921799
0.00263105888689
0.0017558039298
0.000637920790189
7.66061778398e-05
9.85851312142e-07
4.39040011347e-15
5.95555214609e-15
6.18248721406e-15
5.89694010888e-15
5.64197665735e-15
5.83828068369e-15
7.36472668055e-15
5.65470376239e-15
0.0103520611822
0.00767247165555
0.00529835934194
0.00382145067731
0.0033536422065
0.00321245702126
0.00303895463752
0.00264005631602
0.00179594846597
0.000679176377954
8.70511204875e-05
1.37132437781e-06
4.39040011236e-15
5.80530227401e-15
6.05459078581e-15
5.77214154462e-15
5.524163354e-15
5.73973349561e-15
7.27802330755e-15
5.50381558708e-15
0.0104178116982
0.00774678831512
0.00536076710797
0.00383339284011
0.00333245343896
0.00318871634317
0.00302472325489
0.00264827943304
0.00183326114711
0.000717738482773
9.71070618959e-05
1.76878880792e-06
4.39040011327e-15
5.68262260103e-15
5.947804036e-15
5.66904004914e-15
5.42251000088e-15
5.64255312347e-15
7.17656616597e-15
5.36604576157e-15
0.0104508970956
0.007789309377
0.00539844189074
0.00383555914325
0.00330802263539
0.00316450393118
0.00301118150435
0.00265615922634
0.00186694529028
0.000751676454173
0.00010590059212
2.12417575794e-06
4.39040011159e-15
5.57751391507e-15
5.84944881952e-15
5.57313333367e-15
5.32295559397e-15
5.53847250849e-15
7.06445132828e-15
5.23845451296e-15
0.0104611264904
0.00781050100788
0.00541883007022
0.00383027726862
0.00328162626931
0.00314147292221
0.00299920686703
0.00266434645924
0.0018954821497
0.000778904757684
0.000112816106656
2.40449613302e-06
4.39040011319e-15
5.48173257591e-15
5.75046974038e-15
5.47481850016e-15
5.21736233977e-15
5.42681583993e-15
6.94747343694e-15
5.10968739018e-15
0.0104564481098
0.00781594511492
0.00542649003537
0.00381606734976
0.00325567135548
0.0031206501626
0.00298846812893
0.00267005639043
0.00191690487527
0.000798996556873
0.000117921156392
2.61242940141e-06
4.39040011207e-15
5.38852680462e-15
5.64410510794e-15
5.36807097023e-15
5.10636151492e-15
5.311298353e-15
6.82475738161e-15
4.98627150416e-15
0.0104272349626
0.0078092796292
0.00542568889287
0.00379971413572
0.00323175724656
0.00310137246323
0.00297760959149
0.00267048994116
0.00193158410357
0.000813634850972
0.000121796171929
2.77050931012e-06
4.39040011321e-15
5.30279979546e-15
5.54038537705e-15
5.264552922e-15
4.99897133964e-15
5.20437688682e-15
6.70136390498e-15
4.79185289535e-15
0.0103730136897
0.0077836939071
0.00541840332205
0.003786697949
0.00320972389659
0.00308216960539
0.00296520914642
0.00266916308922
0.00194184946748
0.000824932248515
0.000124975295724
2.89768236835e-06
1.11031762183e-12
5.21477491451e-15
5.42192876566e-15
5.14489085529e-15
4.83243446225e-15
5.0785878233e-15
6.54192470738e-15
4.61751819808e-15
0.0103216593851
0.00775662057499
0.00541341571257
0.00377642762451
0.00318689879333
0.00306050284938
0.00294948459362
0.00266475253008
0.00195006762209
0.000835379376052
0.000128093604622
3.00999579828e-06
3.70563184098e-12
5.21001033828e-15
5.21245842978e-15
4.93816035683e-15
4.82892967324e-15
4.83218443652e-15
6.25973968501e-15
4.61710665015e-15
0.0102951417756
0.00774016023529
0.00540926409327
0.0037672421105
0.00316589574803
0.0030396760147
0.00293339473227
0.00265840275073
0.0019558009646
0.000843615490117
0.000130558193103
3.10811410817e-06
7.99540704965e-12
5.20766261223e-15
5.57805221463e-15
5.35418637487e-15
5.15517639704e-15
5.26133839951e-15
6.80993163926e-15
6.40523685697e-15
0.0102562456974
0.00771470712034
0.00540298808704
0.00375192441175
0.00312415893374
0.00299635364724
0.00289809653633
0.0026411939932
0.0019640365382
0.000860963650656
0.000136572784646
3.21463230706e-06
5.3982952201e-12
4.87563530347e-14
8.62945494722e-14
9.65972231016e-14
9.11520066393e-14
7.07303926475e-14
6.11045702996e-14
1.31973299406e-13
)
;

boundaryField
{
    emptyPatch
    {
        type            empty;
    }
    minY
    {
        type            fixedValue;
        value           nonuniform List<scalar> 0();
    }
    maxY
    {
        type            inletOutlet;
        phi             phi.gas;
        inletValue      uniform 1;
        value           nonuniform List<scalar> 
40
(
0.583030577039
0.583030577039
0.594954265314
0.646613578685
0.645857416556
0.622183381433
0.553087706527
0.459867337013
0.36050756466
0.268776512638
0.191713099315
0.124718068343
0.0663767942145
0.03148121886
0.0220495310551
0.0204297277172
0.0193784452279
0.017750773004
0.0154146538987
0.0128343305282
0.0102562456974
0.00771470712034
0.00540298808704
0.00375192441175
0.00312415893374
0.00299635364724
0.00289809653633
0.0026411939932
0.0019640365382
0.000860963650656
0.000136572784646
3.21463230706e-06
5.3982952201e-12
4.87563530347e-14
8.62945494722e-14
9.65972231016e-14
9.11520066393e-14
7.07303926475e-14
6.11045702996e-14
1.31973299406e-13
)
;
    }
    water_to_cooler
    {
        type            zeroGradient;
    }
    water_to_heater
    {
        type            zeroGradient;
    }
    procBoundary0to1
    {
        type            processor;
        value           nonuniform List<scalar> 
41
(
0.764449792916
0.706558707188
0.638615597586
0.595672955375
0.581652585032
0.557948315244
0.496546880885
0.400402352373
0.308660623314
0.235623664653
0.168096352252
0.099055095226
0.0480300033484
0.0299288618634
0.026333008341
0.0246479669375
0.0225352786691
0.0196388591915
0.0163898985628
0.0132645340336
0.00417327540135
0.00401324333127
0.00353036822173
0.00232623476341
0.000772345466688
7.43467644221e-05
3.1610906993e-07
3.85466252692e-15
9.51917669416e-15
1.01885393935e-14
1.00732639294e-14
9.64870237989e-15
9.18448536981e-15
9.22324882701e-15
1.13748615591e-14
9.92812970612e-15
0.0102076340509
0.00721927469881
0.00502220521727
0.00428880812516
0.00428880812516
)
;
    }
}


// ************************************************************************* //
