/*--------------------------------*- C++ -*----------------------------------*\
| =========                 |                                                 |
| \\      /  F ield         | OpenFOAM: The Open Source CFD Toolbox           |
|  \\    /   O peration     | Version:  2312                                  |
|   \\  /    A nd           | Website:  www.openfoam.com                      |
|    \\/     M anipulation  |                                                 |
\*---------------------------------------------------------------------------*/
FoamFile
{
    version     2.0;
    format      ascii;
    arch        "LSB;label=32;scalar=64";
    class       volScalarField;
    location    "0.24/water";
    object      d.gas;
}
// * * * * * * * * * * * * * * * * * * * * * * * * * * * * * * * * * * * * * //

dimensions      [0 1 0 0 0 0 0];

internalField   nonuniform List<scalar> 
750
(
0.00498233895662
0.00498294663251
0.00498355647139
0.0049842226662
0.00498454881328
0.00498469596711
0.00498473925623
0.00498474725174
0.00498474848113
0.00498474715814
0.00498174775083
0.00498174783092
0.00498174788449
0.00498174928117
0.00498168588642
0.00498157180191
0.00498148419007
0.00498141843769
0.00498138391309
0.00498138337969
0.00498138328878
0.00498138315983
0.00498138302692
0.00498138290254
0.00498138278597
0.00498138268733
0.00498138260982
0.00498138255462
0.00498138251122
0.00498138250562
0.00498175408374
0.00498175409058
0.00498175409915
0.00498175404997
0.00498175124193
0.00498164593855
0.0049815562994
0.004981486399
0.00498144518563
0.00498143791791
0.00498143788063
0.00498143784422
0.0049814378129
0.00498143777856
0.00498143775076
0.00498143772904
0.00498143771909
0.00498143771499
0.00498143771217
0.00498143771436
0.00498175839507
0.00498175832808
0.00498175829246
0.00498175827873
0.00498176139713
0.00498169631766
0.00498161040538
0.00498154405476
0.00498150139285
0.00498148910676
0.00498148949897
0.00498148978093
0.00498148999899
0.00498149016812
0.00498149029361
0.00498149038855
0.00498149045847
0.00498149050642
0.0049814905344
0.00498149054705
0.00498176177817
0.00498176163018
0.00498176155006
0.0049817615264
0.00498175938904
0.00498172911332
0.00498166187737
0.00498160547988
0.00498156476563
0.00498154816053
0.00498154749335
0.00498154758288
0.00498154766401
0.00498154771825
0.00498154775632
0.0049815477824
0.0049815478005
0.0049815478125
0.00498154781941
0.00498154782441
0.00498176096548
0.004981760988
0.00498176100903
0.00498176102303
0.0049817578334
0.00498174364512
0.00498170588122
0.00498166872712
0.00498163815837
0.00498161734622
0.00498160623666
0.00498160679898
0.00498160714284
0.00498160739091
0.00498160756955
0.00498160769618
0.00498160777946
0.00498160783546
0.00498160787213
0.00498160789503
0.00498175934952
0.00498175936199
0.00498175937386
0.00498175938332
0.00498175395898
0.00498174524206
0.00498173262913
0.00498171565078
0.00498170110421
0.00498169004751
0.00498167980397
0.00498167722424
0.00498167716128
0.00498167708824
0.00498167701204
0.00498167693305
0.00498167686218
0.00498167681672
0.00498167679956
0.00498167680862
0.00498176080491
0.0049817608121
0.00498176089733
0.00498176107773
0.00498175515877
0.00498175435434
0.00498175528188
0.00498175371188
0.00498175248419
0.00498175352224
0.00498175000622
0.00498174660645
0.00498174658322
0.00498174653059
0.00498174645074
0.0049817463589
0.00498174627961
0.00498174623167
0.00498174621815
0.00498174623162
0.00498176857995
0.00498176854609
0.00498176860422
0.0049817653736
0.00498176289684
0.00498176849588
0.00498177779732
0.00498178816143
0.00498180072882
0.00498181489875
0.00498182054444
0.00498181809635
0.00498181803142
0.00498181793256
0.00498181781307
0.00498181769625
0.00498181760198
0.0049818175394
0.0049818175084
0.00498181749429
0.00498179476297
0.00498179433559
0.00498179035192
0.00498179164859
0.0049818033027
0.00498181998259
0.00498183884524
0.00498185820262
0.00498188137231
0.00498190180068
0.00498189493193
0.00498189280826
0.00498189264308
0.00498189246381
0.00498189228491
0.00498189211989
0.00498189196307
0.00498189180371
0.00498189164247
0.0049818914394
0.00498188216574
0.00498183057878
0.00498182584519
0.00498183976995
0.00498185708371
0.00498187945012
0.00498190946881
0.00498194552688
0.00498197987901
0.00498198475542
0.00498197345353
0.00498197288581
0.00498197243174
0.00498197212718
0.00498197193493
0.00498197180953
0.00498197172941
0.00498197164447
0.0049819715814
0.00498206664638
0.00498203789914
0.00498191998842
0.00498186584131
0.00498186020299
0.00498186687445
0.00498189325449
0.00498194620397
0.00498201102741
0.00498205154513
0.00498204400776
0.00498204337357
0.00498204261887
0.00498204185959
0.00498204153605
0.00498204161923
0.00498204191197
0.00498204208059
0.00498204213435
0.00498204213792
0.00498215983211
0.00498231466037
0.00498214397846
0.00498203453163
0.00498202687256
0.00498204414261
0.00498207348246
0.00498211528994
0.00498214585853
0.00498213224785
0.00498212791854
0.00498212746416
0.00498212667165
0.00498212626081
0.00498212575951
0.00498212549226
0.00498212599126
0.00498212577277
0.00498212553846
0.00498212533445
0.00498220332965
0.00498291904649
0.00498272239782
0.00498254136209
0.00498248432242
0.00498244679664
0.00498240765805
0.00498236194406
0.0049823098273
0.00498225831284
0.00498225802294
0.0049822573645
0.00498225511284
0.00498223949446
0.00498221921234
0.0049822042556
0.00498219979034
0.00498219955452
0.00498219944785
0.0049822072811
0.00498224210288
0.00498353999927
0.00498335089473
0.00498314334752
0.00498300729815
0.00498285587139
0.00498269938812
0.00498255935093
0.00498245574784
0.00498239709827
0.00498239283869
0.00498239210366
0.00498238763309
0.00498237723218
0.0049823659642
0.00498235681791
0.00498235215161
0.00498235226976
0.00498235524037
0.00498236875612
0.00498239127029
0.00498422510325
0.00498407751462
0.00498390421277
0.00498369187079
0.00498339286559
0.00498302960795
0.00498266096496
0.00498233873076
0.00498213159839
0.00498201923902
0.00498196288792
0.00498192430112
0.00498189385242
0.00498186399895
0.0049818298929
0.0049817958924
0.00498176976026
0.00498175287585
0.00498174550346
0.00498174488612
0.00498454941492
0.00498445940519
0.0049843658934
0.00498426077909
0.00498410662915
0.00498389148064
0.00498364031278
0.00498338400093
0.00498315058606
0.00498297512936
0.00498286922693
0.0049828027272
0.00498277651314
0.00498276253542
0.00498274873814
0.00498273095195
0.0049827121947
0.00498269879474
0.00498269601851
0.00498269001326
0.004984696136
0.00498469672582
0.00498467903274
0.00498464526859
0.00498460383088
0.00498453342892
0.00498443293307
0.00498431557697
0.00498419350657
0.00498407983869
0.00498399583086
0.00498393613411
0.0049838843216
0.00498384789036
0.0049838355696
0.00498382910587
0.00498382698043
0.00498382755539
0.00498383128455
0.00498382307145
0.00498473938311
0.00498473961141
0.00498473985262
0.00498472896164
0.00498470370911
0.00498465863052
0.0049845828669
0.00498448202204
0.00498436550612
0.00498423953836
0.00498411127534
0.00498399707384
0.00498390935794
0.00498385737526
0.00498378108482
0.0049837512792
0.00498373236031
0.00498372171339
0.00498371482008
0.00498369910676
0.00498474735098
0.00498474745937
0.00498474752477
0.00498474750054
0.00498472976475
0.00498469142003
0.00498462755301
0.00498453277008
0.00498441016941
0.00498426803344
0.00498411462496
0.00498395763691
0.00498381582335
0.00498372198974
0.00498366252488
0.00498356788995
0.00498352731543
0.00498351307021
0.00498350760609
0.0049834879676
0.00498474856346
0.00498474877575
0.00498474909816
0.00498474942369
0.0049847201788
0.00498464556815
0.00498452377229
0.00498435488827
0.00498414380865
0.00498389865949
0.00498362514629
0.00498332381896
0.00498300584668
0.00498274925782
0.00498257611566
0.0049824427162
0.00498244477597
0.00498245654927
0.00498247388027
0.00498246741384
0.00498474729297
0.00498474797092
0.00498474898042
0.00498474556144
0.00498473829763
0.00498472314837
0.00498469254476
0.00498463772596
0.00498453655324
0.00498433955163
0.0049840033043
0.00498356645976
0.0049831605739
0.00498318407738
0.00498297830903
0.00498320244934
0.00498351993755
0.00498379281655
0.00498397838577
0.00498409909787
0.00498473446144
0.00498473413394
0.0049847160515
0.00498470956306
0.0049847074369
0.00498470817332
0.00498470507594
0.00498470630841
0.00498472879929
0.00498478495331
0.00498491762224
0.00498528567142
0.00498581922549
0.00498547238866
0.00498547200134
0.00498583503736
0.00498566576499
0.00498557315672
0.00498552302062
0.00498548118968
0.00498471127613
0.0049846837711
0.00498469006999
0.00498474260288
0.00498480381026
0.00498484624868
0.00498486999273
0.00498488936711
0.00498491547271
0.00498497951931
0.00498512202956
0.00498597865501
0.00498558101455
0.00498558028813
0.0049855800585
0.00498575319729
0.00498563101071
0.00498554003773
0.00498550529158
0.00498547748752
0.00498483257852
0.0049847487377
0.00498470152028
0.00498470589211
0.00498474354151
0.00498480028097
0.00498486959028
0.00498494799268
0.00498503543178
0.00498514172122
0.00498535248485
0.00498597179444
0.00498568619636
0.00498568621726
0.0049856867738
0.00498568673632
0.0049856464592
0.00498552948811
0.00498548333966
0.00498544802405
0.00498491359804
0.00498490623509
0.00498495597738
0.00498501731694
0.00498507456336
0.00498513048566
0.00498518660817
0.00498524396971
0.00498530388509
0.00498537378296
0.00498552557989
0.00498586498806
0.00498580202617
0.00498580154146
0.00498580090995
0.00498579984673
0.00498586415752
0.0049857275412
0.00498566124225
0.00498560847626
0.00498489826299
0.00498497813407
0.00498506894962
0.00498514520986
0.0049852137084
0.00498527904616
0.00498534345455
0.00498540832415
0.00498547682017
0.00498555873081
0.00498567680719
0.00498593024626
0.00498597605528
0.00498597564977
0.00498597511605
0.00498597419337
0.00498607509754
0.00498599143485
0.00498593594334
0.00498586805177
0.00498525201432
0.00498531639009
0.00498536956477
0.00498542272469
0.00498548024902
0.00498554369785
0.00498561453533
0.00498569395152
0.0049857840298
0.00498588667789
0.00498603850791
0.00498623700701
0.00498615961368
0.0049861589744
0.00498615866256
0.00498615798744
0.00498623555076
0.00498620841698
0.00498618039046
0.00498608948667
0.00498550314207
0.00498561294257
0.00498568796243
0.004985756195
0.00498582797836
0.00498590942931
0.00498600357793
0.0049861118407
0.00498624451673
0.00498648497806
0.0049865257421
0.00498631497182
0.00498631339696
0.00498631177245
0.00498631104327
0.00498631037066
0.00498634169634
0.00498633687666
0.00498632546468
0.00498620259121
0.00498803537251
0.00498770219495
0.00498742918262
0.00498720983494
0.00498703897425
0.00498690905947
0.00498681827939
0.0049867814203
0.0049867598508
0.00498663567358
0.00498644641956
0.0049864169971
0.00498641569359
0.0049864149011
0.00498641489944
0.00498646787704
0.00498651014076
0.00498653700645
0.00498656115392
0.00498643073322
0.0049920153147
0.0049917311291
0.00499139405049
0.00499107551448
0.00499077819373
0.00499050022875
0.00499023917899
0.00498998123733
0.00498984934828
0.004989764908
0.00498960699809
0.00498944534358
0.00498936585092
0.00498937306182
0.00498944360764
0.00498955304516
0.00498965069608
0.00498973941006
0.00498983380719
0.00498977213455
0.00499779513958
0.00499783605836
0.00499771608387
0.0049975257803
0.00499725689277
0.00499686589218
0.0049964710268
0.00499613738548
0.00499597147795
0.00499600048331
0.0049959967608
0.0049958559768
0.00499571680531
0.00499568588399
0.00499572461348
0.00499580524562
0.00499589158433
0.00499597350053
0.0049960452873
0.00499602944114
0.00499976131082
0.00499976410219
0.0049997660215
0.0049997672016
0.00499976787521
0.00499973112832
0.00499967440899
0.00499963287705
0.00499958941384
0.00499958600081
0.00499958601892
0.00499958233405
0.00499947451215
0.00499932160364
0.00499920120399
0.00499912236932
0.00499908930354
0.00499909418821
0.00499910848264
0.00499909940222
0.00499981992349
0.00499981916805
0.0049998182832
0.00499981743655
0.00499981662656
0.00499981553471
0.0049998134671
0.00499980985092
0.00499980551824
0.00499980308589
0.00499980216733
0.00499980215486
0.00499979321879
0.00499975098724
0.00499969062241
0.00499963033569
0.00499958321974
0.00499956242007
0.00499955774505
0.00499954891972
0.00499986890875
0.00499986883065
0.00499986888561
0.00499986911925
0.00499986939158
0.00499986936536
0.00499986856054
0.00499986020527
0.00499985122789
0.00499985012639
0.00499985004904
0.00499985003419
0.00499984524683
0.0049998250116
0.00499979054264
0.00499975363676
0.0049997234323
0.00499970416053
0.00499969560929
0.00499968661669
0.0049999177927
0.0049999178278
0.00499991804209
0.00499991845487
0.00499991896098
0.0049999193771
0.00499991939855
0.00499989873252
0.0049998817006
0.00499987172583
0.00499987211168
0.00499987232473
0.00499986951375
0.00499985653619
0.00499983190186
0.00499980170932
0.00499977225072
0.00499974909204
0.00499973661813
0.00499972526973
0.00499995584493
0.0049999558257
0.00499995590993
0.00499995609737
0.00499995634321
0.00499995657799
0.00499995663386
0.00499993223444
0.0049999267974
0.00499991512883
0.0049999091927
0.0049999095187
0.00499990997615
0.00499990615113
0.00499989326668
0.00499987066943
0.00499984278084
0.00499981749498
0.00499980312955
0.00499978986965
0.00499998591574
0.00499998590753
0.00499998593235
0.0049999859855
0.0049999860701
0.00499998617842
0.00499998624027
0.00499997179015
0.00499998323548
0.00499999538354
0.00499997935355
0.00499997216203
0.0049999726826
0.00499997190831
0.00499996775698
0.00499996035435
0.00499995169065
0.00499993953919
0.00499993011363
0.00499991844668
)
;

boundaryField
{
    emptyPatch
    {
        type            empty;
    }
    minY
    {
        type            calculated;
        value           nonuniform List<scalar> 0();
    }
    maxY
    {
        type            calculated;
        value           uniform 0.005;
    }
    maxX
    {
        type            calculated;
        value           nonuniform List<scalar> 
37
(
0.00498138250579
0.00498143771457
0.00498149054733
0.00498154782479
0.00498160789555
0.00498167680939
0.00498174623274
0.00498181749582
0.00498189144134
0.00498206664836
0.00498215983425
0.00498220333207
0.00498224210557
0.00498239127316
0.00498174488901
0.00498269001615
0.00498382307422
0.00498369910949
0.00498348797005
0.0049824674157
0.00498409909913
0.00498548119051
0.00498547748827
0.00498544802506
0.00498560847832
0.00498586805455
0.00498608948964
0.00498620259433
0.00498643073642
0.00498977213775
0.00499602944436
0.00499909940539
0.00499954892284
0.00499968661979
0.0049997252728
0.0049997898727
0.00499991844973
)
;
    }
    water_to_heater
    {
        type            calculated;
        value           nonuniform List<scalar> 0();
    }
    procBoundary2to1
    {
        type            processor;
        value           nonuniform List<scalar> 
20
(
0.00498172910117
0.00498172896389
0.00498169509665
0.00498161842811
0.00498151879879
0.00498144757986
0.00498138771824
0.00498134302096
0.00498132136034
0.00498132414036
0.00498132391201
0.00498132368819
0.00498132351242
0.00498132338059
0.00498132330382
0.00498132328514
0.0049813233423
0.00498132347642
0.00498132370858
0.00498132400638
)
;
    }
    procBoundary2to3
    {
        type            processor;
        value           nonuniform List<scalar> 
39
(
0.00498174778209
0.00498175414711
0.00498175851769
0.00498176197268
0.00498176103773
0.00498175941719
0.00498176087304
0.00498176864804
0.00498179455376
0.00498188189728
0.00498203675471
0.00498203675471
0.00498233856617
0.00498294637108
0.00498355605745
0.00498422230209
0.00498454871785
0.00498469594
0.00498473924116
0.00498474724082
0.00498474847093
0.00498474713857
0.00498473441734
0.00498473441734
0.00498471114429
0.00498484061324
0.00498487188667
0.00498504404513
0.00498502627136
0.00498516249922
0.00498819769845
0.00499229257737
0.00499783545272
0.00499976030624
0.00499982034446
0.00499986895475
0.00499991782513
0.00499995587523
0.00499998593764
)
;
    }
}


// ************************************************************************* //
