/*--------------------------------*- C++ -*----------------------------------*\
| =========                 |                                                 |
| \\      /  F ield         | OpenFOAM: The Open Source CFD Toolbox           |
|  \\    /   O peration     | Version:  2312                                  |
|   \\  /    A nd           | Website:  www.openfoam.com                      |
|    \\/     M anipulation  |                                                 |
\*---------------------------------------------------------------------------*/
FoamFile
{
    version     2.0;
    format      ascii;
    arch        "LSB;label=32;scalar=64";
    class       volScalarField;
    location    "0.905/water";
    object      p_rgh;
}
// * * * * * * * * * * * * * * * * * * * * * * * * * * * * * * * * * * * * * //

dimensions      [1 -1 -2 0 0 0 0];

internalField   nonuniform List<scalar> 
1497
(
100717.973945
100738.586844
100789.824961
100886.92746
101028.53486
101177.534461
101295.749081
101336.159284
101338.399655
101340.39492
101342.151489
101343.574714
101344.792163
100679.252442
100696.432094
100705.965647
100710.647157
100709.191673
100707.044104
100706.959438
100710.931662
100730.348868
100776.431524
100859.824627
100981.360174
101124.88259
101264.120484
101340.342991
101344.417039
101345.919339
101347.132787
101348.388598
101349.310574
100680.2932
100698.571342
100709.993509
100715.325572
100712.746315
100709.287228
100708.788237
100713.371519
100733.592998
100780.484862
100863.584639
100982.508738
101122.183405
101261.392187
101347.162841
101352.872024
101353.666562
101354.866605
101355.419115
101356.337956
100681.341243
100707.486973
100726.843998
100732.824206
100726.929438
100719.367866
100717.955711
100723.760065
100746.81204
100797.416304
100881.893011
100999.009935
101137.569652
101276.6545
101358.24388
101361.969316
101363.003728
101363.278639
101364.329119
101364.3245
100683.16589
100732.713158
100762.033653
100767.390013
100756.524904
100743.243522
100740.550222
100748.029527
100776.512441
100835.246259
100925.527197
101043.306632
101180.704893
101314.737057
101371.231697
101371.709879
101372.077237
101373.165526
101372.905098
101373.84267
100703.185985
100775.977347
100810.106257
100813.819657
100798.267908
100780.807289
100777.211254
100787.38948
100823.727742
100892.944381
100991.958798
101114.867833
101253.723565
101365.076082
101380.887543
101381.124352
101382.198922
101381.854376
101382.963025
101382.233673
100746.447108
100827.423463
100860.670273
100863.176845
100847.213039
100831.627681
100829.90471
100845.425099
100891.661271
100970.909277
101078.059852
101207.461789
101339.459434
101389.901946
101389.854944
101390.813795
101390.566366
101391.821329
101390.868568
101391.971641
100804.913756
100872.612993
100897.741506
100904.520027
100900.00065
100898.471237
100906.587765
100932.166999
100987.132835
101073.368982
101186.33921
101314.501083
101394.723915
101397.769156
101398.565766
101398.438109
101399.887911
101398.821449
101400.172925
101398.943002
100886.077804
100895.26229
100906.521605
100920.533774
100948.38265
100983.008317
101015.228816
101054.125676
101114.444525
101203.261718
101312.399961
101395.323128
101404.178604
101404.874772
101404.825722
101406.562486
101405.556212
101407.350516
101405.512108
101384.519035
100937.944476
100907.8867
100904.487668
100915.847067
100978.178114
101069.506705
101145.59148
101202.630667
101264.288537
101341.889521
101400.122393
101407.803578
101408.683445
101408.859781
101411.052593
101410.294715
101412.746526
101406.935603
101354.165438
101323.472453
100926.737885
100915.390884
100895.912589
100906.245487
100979.451769
101110.216212
101235.034274
101318.20541
101379.192614
101405.602053
101407.472664
101409.064435
101409.771307
101412.631776
101412.305498
101415.069142
101383.202706
101307.634332
101292.847828
101310.56158
100916.84649
100897.393599
100871.995723
100884.203306
100956.984855
101090.917432
101228.588598
101325.856752
101390.568812
101404.330589
101406.895021
101408.111135
101411.523165
101411.172779
101401.883816
101322.092917
101226.371795
101224.595711
101291.714975
101311.257396
100902.371022
100835.805922
100822.403671
100837.356163
100893.920559
101003.970945
101146.148779
101267.388807
101349.06812
101383.875871
101394.070495
101395.419038
101381.729803
101334.304503
101221.974532
101120.089163
101124.572188
101219.267352
101300.067642
101312.617473
100789.124323
100755.989741
100766.232204
100781.922988
100811.064649
100866.813067
100960.263435
101075.298427
101175.672968
101238.56617
101257.896642
101244.711971
101194.412134
101103.68449
101025.80524
101029.629745
101108.746208
101220.433772
101307.288707
101314.958197
100695.000668
100716.069473
100738.793091
100747.468647
100755.777015
100771.428586
100803.614439
100856.982725
100920.009931
100972.001732
100992.88704
100987.597251
100969.51812
100954.041682
100966.969309
101018.739192
101107.150533
101221.865294
101312.685172
101319.041255
100682.954732
100716.4305
100736.355661
100739.813083
100740.164079
100742.2856
100747.928558
100758.954952
100776.201644
100798.444676
100821.880295
100848.473306
100883.189111
100920.07998
100960.83883
101019.89979
101110.96622
101228.188053
101319.938664
101325.548207
100685.002884
100725.053353
100740.218597
100742.135391
100742.124832
100742.131042
100742.123313
100743.12675
100748.43388
100763.20025
100790.522185
100828.828167
100873.696279
100918.314113
100964.579073
101029.255606
101127.314736
101247.821573
101332.522666
101335.031514
100685.891911
100742.273401
100751.124098
100751.181001
100746.555268
100744.744328
100744.716034
100745.55731
100750.685347
100765.79148
100794.067108
100833.335142
100878.936017
100926.168938
100980.087473
101056.414531
101163.204656
101282.85745
101350.65127
101348.202843
100688.091675
100758.887416
100770.719637
100771.032559
100762.504853
100757.011984
100756.165126
100756.951753
100762.63208
100779.38017
100809.78028
100851.004875
100899.112607
100951.861027
101016.049859
101102.493409
101214.051014
101325.636524
101370.591884
101364.284895
100691.34777
100770.924966
100795.184206
100800.063966
100795.4574
100791.678472
100791.247915
100791.915968
100798.482755
100817.397973
100849.890908
100892.898661
100942.676703
100999.118076
101069.459557
101161.411008
101272.387253
101368.00373
101390.898202
101384.124945
100705.100582
100786.74556
100822.07049
100835.495761
100844.672717
100855.903188
100862.811593
100863.584304
100869.781354
100888.091935
100918.83941
100958.745418
101005.786698
101062.420113
101135.618224
101229.807393
101334.324819
101405.707124
101412.88273
101409.46409
100722.920087
100813.388785
100852.765453
100873.296621
100907.173189
100949.439236
100970.622602
100971.343774
100974.5401
100987.228357
101010.635293
101042.793777
101084.360384
101139.879259
101214.702473
101307.429997
101396.477541
101437.780346
101437.535186
101438.777004
100746.044707
100848.984479
100884.599522
100913.558867
100980.397637
101062.658301
101103.173654
101106.15198
101105.104758
101109.10892
101121.414536
101143.881531
101179.778417
101233.828579
101307.733893
101392.096021
101454.609601
101466.636149
101464.549792
101467.778278
100792.83191
100882.408115
100916.637512
100958.14308
101053.888435
101174.837623
101240.486659
101253.615155
101249.849156
101245.316787
101247.482512
101260.360303
101290.471022
101340.285596
101405.391197
101467.712706
101492.471006
101489.362844
101485.685027
101484.445836
100875.95021
100931.031913
100955.227634
101005.521539
101121.232905
101268.186936
101360.758681
101391.254369
101387.76493
101377.847415
101371.42963
101376.648712
101397.412604
101434.428701
101477.197411
101496.643721
101493.891309
101490.88576
101487.641797
101484.462111
100965.409865
100989.063016
100991.254196
101044.653705
101178.323094
101335.273634
101433.463293
101461.854269
101460.006703
101454.018145
101447.797022
101446.355673
101456.183137
101477.751807
101494.584443
101492.132782
101489.588573
101486.559615
101483.663422
101480.018374
101006.174088
101006.139914
101006.781944
101065.917025
101218.619091
101366.529903
101443.181544
101457.405375
101454.98792
101452.945661
101451.099842
101449.396049
101459.231608
101477.576698
101487.301274
101485.497095
101483.304334
101481.18274
101478.166899
101475.005039
100975.001937
100974.737156
100972.991341
101045.243802
101205.794856
101346.156255
101419.134854
101437.903364
101437.211133
101436.136773
101431.7845
101432.066955
101446.3435
101466.765463
101477.856636
101477.030588
101476.260255
101474.679681
101473.042931
101463.893127
100912.416157
100850.644746
100872.06321
100957.874384
101103.104672
101240.127032
101332.81639
101377.747909
101391.52972
101390.947883
101389.038721
101400.21883
101425.308156
101452.04268
101466.336672
101467.883888
101468.417277
101468.819721
101468.229502
101434.456987
100733.18316
100681.78443
100724.432331
100788.811165
100868.532808
100968.32925
101093.929167
101208.500742
101273.885644
101300.430447
101318.758371
101350.047163
101393.718775
101435.021939
101456.024773
101459.633314
101462.132439
101463.944573
101463.536365
101389.259012
100586.080596
100596.853915
100633.368524
100658.477321
100679.175799
100717.280896
100800.219633
100938.943908
101084.373077
101175.046955
101235.054807
101293.736003
101361.127621
101422.447282
101451.035289
101455.177291
101458.468766
101461.64162
101459.041916
101340.681376
100549.154424
100582.848312
100607.463418
100613.99146
100616.482862
100625.777236
100660.922403
100751.472872
100913.476491
101061.382353
101167.97558
101256.18598
101344.20918
101420.499878
101451.271787
101454.735806
101458.278515
101461.419403
101455.966488
101296.611933
100549.568059
100585.505395
100606.263927
100609.545018
100609.730537
100611.94817
100633.699372
100701.290382
100838.41931
101001.339767
101136.469004
101246.450962
101346.063276
101427.567797
101454.54676
101457.484047
101460.189286
101463.265069
101452.742288
101255.892148
100551.696719
100594.738876
100611.433798
100613.644251
100611.872299
100613.200036
100633.545349
100698.180701
100825.140551
100986.6995
101132.857656
101253.260841
101361.699644
101446.568465
101459.790336
101461.607771
101464.055514
101465.824996
101446.377029
101214.002233
100552.174919
100612.32103
100627.03094
100627.759501
100621.112843
100620.935147
100640.734404
100706.006565
100832.222709
100993.709495
101144.824062
101279.331759
101402.559696
101464.556535
101465.608355
101467.068741
101467.887598
101469.629168
101431.231841
101171.451916
100554.310376
100633.36652
100654.264654
100655.415393
100646.12466
100645.109234
100666.721677
100736.792786
100865.27998
101026.183591
101185.488779
101337.434264
101455.098211
101471.688032
101472.043252
101471.877769
101472.913753
101472.473897
101401.750157
101136.796702
100568.831681
100658.815476
100691.012984
100695.010088
100688.722084
100691.716084
100723.292132
100805.539565
100939.156323
101098.220622
101262.596064
101417.393196
101479.070367
101478.086006
101477.198626
101477.497266
101476.176557
101476.26188
101352.589349
101119.699351
100598.447652
100694.751211
100735.82558
100744.460215
100746.183864
100764.407518
100817.006371
100913.706185
101048.304355
101203.245695
101365.625577
101478.855457
101484.662713
101483.023095
101482.701211
101480.609053
101480.588268
101465.065886
101291.583252
101120.338047
101345.467403
101345.956224
101344.81859
101275.105348
101181.617017
101160.3275
101160.000486
101158.720856
101157.97912
101156.656011
101155.391507
101161.099401
101182.253373
101158.48431
100987.325467
100794.242572
100761.806897
100757.128965
101189.567508
101530.3017
101350.114437
101350.410174
101350.718836
101332.011208
101243.107078
101168.052113
101162.680899
101162.380981
101161.281463
101160.540541
101159.348495
101164.691511
101178.512211
101106.004385
100888.617603
100764.065494
100761.496463
100763.345606
101247.188653
101546.777551
101356.684412
101357.266681
101357.095943
101357.177411
101309.729694
101206.726703
101167.084234
101166.429984
101166.054607
101165.037621
101164.306322
101169.865465
101172.938083
101052.384572
100829.647669
100764.465838
100765.507014
100760.456752
101293.143408
101560.640569
101365.051749
101364.879417
101365.382496
101364.649567
101350.835391
101261.773928
101189.421747
101174.30604
101171.377486
101170.869762
101170.028975
101180.219534
101175.733501
101012.746443
100796.941372
100767.50162
100765.380881
100767.045038
101327.399763
101574.435029
101373.414258
101374.069856
101373.461716
101373.981984
101371.432353
101303.717289
101236.00902
101220.261397
101214.46784
101203.115231
101196.198012
101211.542775
101196.120206
100980.587708
100777.560322
100768.069835
100768.966065
100765.442421
101346.692656
101585.897901
101383.097531
101382.366086
101383.002495
101381.993661
101379.420097
101333.409084
101304.346437
101300.981089
101295.61212
101272.657114
101254.855071
101271.473966
101235.348233
100945.942755
100770.541775
100771.031376
100769.649703
100770.399417
101340.543007
101597.641273
101391.032932
101391.914247
101390.898307
101391.490252
101376.863482
101366.986095
101371.092123
101373.621002
101365.327689
101330.866594
101321.812382
101344.693413
101281.745575
100896.549686
100773.198186
100771.916246
100772.48096
100779.875119
101312.518826
101609.669115
101400.002574
101388.424617
101380.231487
101370.380295
101376.867991
101397.737237
101406.63927
101404.501584
101389.942329
101353.263466
101369.155278
101419.124113
101308.343632
100789.764969
100773.865395
100774.66641
100773.800685
100848.797076
101297.857708
101623.152708
101360.151829
101350.939191
101345.601732
101354.438839
101389.335291
101417.128877
101416.991579
101411.967367
101391.006532
101371.287842
101418.938443
101473.222423
101264.24175
100773.582728
100776.804276
100775.926446
100779.065553
100931.995425
101287.776675
101634.993326
101322.615056
101314.228936
101322.630243
101358.071786
101407.880239
101427.02825
101424.458166
101404.581423
101390.384351
101411.544658
101489.481756
101484.840389
101184.344348
100778.951916
100777.053123
100778.38428
100817.959221
100967.028343
101283.137268
101646.590605
101299.999417
101300.002229
101316.492518
101366.791819
101423.544882
101433.877444
101422.80313
101393.299699
101397.916977
101458.63027
101506.285744
101489.719194
101109.715211
100776.88547
100780.427482
100785.629688
100892.000529
101002.031734
101285.310216
101657.988424
101301.850538
101302.997762
101320.855736
101378.512351
101434.261684
101437.869501
101403.753051
101400.24507
101421.768718
101509.603505
101515.975847
101479.519096
101045.846881
100782.667889
100781.615329
100812.265159
100949.579104
101040.716493
101296.901383
101669.149786
101303.592124
101305.642434
101326.231531
101390.595004
101439.745212
101436.267288
101405.530415
101406.563262
101451.120258
101524.627655
101524.707203
101468.256947
101008.440575
100781.113722
100784.28564
100860.449717
100987.873319
101089.512641
101327.683524
101681.656288
101305.890036
101308.031672
101333.308013
101402.310308
101444.35981
101433.818074
101410.914028
101412.989091
101482.886099
101533.11574
101534.82543
101470.187368
101007.933031
100786.463259
100790.458518
100916.822432
101032.704547
101147.248271
101373.771232
101694.688976
101308.702004
101311.211324
101343.22496
101414.287415
101446.588853
101430.350371
101417.101239
101422.368218
101511.561812
101542.431346
101543.378011
101491.818433
101045.439331
100787.808759
100814.495197
100958.824387
101086.151765
101211.391084
101427.738015
101708.094268
101312.6118
101315.589943
101357.123592
101426.703498
101446.950688
101427.584927
101422.19931
101435.170943
101532.383919
101550.179268
101552.90014
101531.703051
101150.420062
100835.67196
100867.107407
101014.526986
101154.510202
101280.764356
101490.635129
101722.319466
101320.610037
101327.533926
101376.14222
101438.732794
101446.868687
101431.272947
101427.078044
101451.353284
101547.200061
101556.915359
101559.022845
101560.290209
101268.145768
100928.168107
100955.693424
101107.395464
101244.502658
101345.771103
101550.923116
101734.164334
101334.79908
101348.466377
101400.512172
101449.422064
101450.63535
101437.591626
101433.581377
101473.60322
101558.2843
101560.815641
101563.742326
101564.725553
101286.235453
100993.60973
101069.51392
101226.010175
101339.311322
101387.136132
101592.573985
101740.677244
101356.957123
101377.579623
101428.498617
101458.419528
101456.146601
101449.277871
101457.622983
101506.729794
101561.274949
101564.07055
101564.961494
101544.642307
101168.553508
101052.277984
101185.382306
101342.063627
101415.770205
101411.647515
101608.395361
101742.427633
101385.829827
101413.127233
101454.868595
101466.2625
101465.087404
101469.969732
101494.348464
101537.174725
101562.93824
101563.512756
101539.171931
101277.039564
101126.817809
101141.161308
101303.983601
101439.866367
101475.815295
101436.78076
101592.492817
101740.89346
101418.94412
101448.991448
101471.956495
101474.564566
101479.475171
101492.766296
101509.766831
101528.377945
101513.876154
101401.233553
101163.348975
101017.372382
101115.598865
101243.448871
101409.870365
101517.545895
101534.182601
101459.352582
101560.299637
101736.84351
101453.512253
101473.953596
101480.188565
101482.495263
101485.726668
101489.947424
101469.028379
101364.088879
101172.517339
101001.082966
100932.431625
100961.264234
101127.49432
101324.955709
101483.141971
101577.517959
101594.485564
101482.016941
101539.444014
101733.668951
101477.953581
101482.626456
101481.360717
101481.007073
101462.164185
101379.051354
101200.670847
101017.027715
100928.509475
100922.287494
100923.489612
100975.740279
101182.834697
101403.630428
101546.108131
101626.772613
101652.523542
101496.85388
101531.625985
101732.963251
101483.834038
101481.223532
101473.499711
101410.779491
101272.381879
101093.259605
100964.693953
100919.040654
100919.436137
100920.440983
100937.23989
101055.514216
101292.326866
101494.195056
101610.510327
101672.58971
101702.276437
101493.911704
101518.77167
101733.692453
101481.102009
101471.092096
101372.208684
101139.195822
101040.976226
101001.186093
100958.45024
100933.665671
100933.09771
100951.531018
101029.657663
101205.385766
101430.684468
101588.834451
101673.145892
101714.984073
101736.421597
101470.735903
101493.769362
101735.276712
101473.40661
101391.202859
101087.896244
100924.258694
100963.473145
101021.433415
101028.009059
101027.707757
101034.992986
101079.410395
101200.416348
101387.107539
101567.297223
101674.466995
101724.08489
101743.431949
101743.968401
101447.4358
101466.721404
101737.866095
101434.546481
101181.523732
100901.56948
100899.29015
100928.839667
101059.725203
101147.206123
101180.307396
101200.110309
101253.75002
101385.239799
101552.704802
101676.69928
101731.760685
101747.888193
101750.444135
101740.667198
101444.158262
101425.912981
101739.972549
101330.258542
100981.413122
100892.533272
100891.989748
100903.63038
101050.654467
101184.507031
101252.983253
101282.907477
101361.240553
101514.240229
101664.873586
101734.507995
101749.418304
101750.85059
101750.860938
101746.712028
101443.172946
101337.941479
101742.84581
101200.324111
100917.051529
100886.846842
100887.327847
100895.333836
101024.343831
101162.757304
101238.742196
101275.233741
101390.870166
101580.284904
101717.194068
101749.084199
101751.0272
101751.188043
101751.248799
101751.118955
101394.825938
101201.421907
101747.005376
101104.602035
100918.325232
100891.214364
100891.649754
100909.041317
101002.139388
101108.232766
101183.90515
101254.771462
101418.304019
101630.889729
101739.96133
101752.824484
101753.1511
101753.240216
101753.238084
101749.367637
101132.210797
101136.088301
101751.122327
101052.346814
100945.473658
100936.159358
100936.548843
100950.157368
100996.095325
101051.257702
101125.37869
101260.648074
101481.948463
101689.249388
101753.264319
101756.715112
101756.742396
101756.724127
101756.616056
101687.520076
101035.819471
101164.364861
101755.120611
101031.084991
100981.868617
100993.585743
100999.423991
100994.37175
100996.214091
101031.909648
101124.903153
101323.693394
101591.123109
101740.213131
101760.563649
101760.750977
101760.614759
101760.460939
101760.059873
101461.212899
101030.688331
101276.471693
101759.070933
101019.837577
100996.680068
101006.750212
101025.122777
101023.248121
101006.72324
101042.924923
101180.03511
101466.543427
101703.552276
101762.794097
101764.77336
101764.494313
101764.214349
101763.826206
101756.728003
101130.783339
101028.793629
101369.428269
101762.437494
101012.204615
100994.368365
100999.537345
101022.688776
101039.063802
101039.883598
101114.555388
101333.061054
101638.263421
101760.234414
101768.615276
101768.356001
101768.063769
101767.743732
101767.207684
101672.646504
101024.323399
101022.997882
101422.595043
101765.558251
101008.625886
100991.539024
100992.38391
101008.442999
101045.196483
101113.330153
101279.753115
101546.082141
101745.81244
101771.76689
101771.780023
101771.513285
101771.262218
101770.931917
101770.24233
101446.639649
101017.740506
101021.413965
101472.513438
101768.977325
101007.594768
100988.751357
100989.331443
100992.895514
101043.437987
101231.052307
101500.299845
101712.277092
101773.236266
101774.714849
101774.4685
101774.230458
101774.005434
101773.618715
101770.72548
101236.778621
101017.269178
101017.076961
101522.859095
101771.956333
101012.021116
100985.893193
100986.318859
100987.242345
101034.687449
101363.934709
101682.965159
101770.653833
101777.310903
101777.239823
101777.042678
101776.856305
101776.714264
101776.393655
101762.15063
101114.071886
101010.388525
101016.041968
101570.745696
101775.180028
101024.832444
100983.890023
100983.311782
100984.127622
)
;

boundaryField
{
    emptyPatch
    {
        type            empty;
    }
    minY
    {
        type            zeroGradient;
    }
    maxY
    {
        type            prghTotalPressure;
        U               U.gas;
        p0              nonuniform List<scalar> 0();
        value           nonuniform List<scalar> 0();
    }
    maxX
    {
        type            fixedFluxPressure;
        gradient        uniform 0;
        value           nonuniform List<scalar> 
37
(
101530.3017
101546.777551
101560.640569
101574.435029
101585.897901
101597.641273
101609.669115
101623.152708
101634.993326
101646.590605
101657.988424
101669.149786
101681.656288
101694.688976
101708.094268
101722.319466
101734.164334
101740.677244
101742.427633
101740.89346
101736.84351
101733.668951
101732.963251
101733.692453
101735.276712
101737.866095
101739.972549
101742.84581
101747.005376
101751.122327
101755.120611
101759.070933
101762.437494
101765.558251
101768.977325
101771.956333
101775.180028
)
;
    }
    water_to_heater
    {
        type            fixedFluxPressure;
        gradient        uniform 0;
        value           nonuniform List<scalar> 
60
(
100679.252442
100679.252442
100680.2932
100680.2932
100681.341243
100681.341243
100683.16589
100703.185985
100746.447108
100746.447108
100804.913756
100804.913756
100886.077804
100886.077804
100937.944476
100926.737885
100916.84649
100916.84649
100902.371022
100902.371022
100789.124323
100789.124323
100695.000668
100682.954732
100685.002884
100685.002884
100685.891911
100685.891911
100688.091675
100688.091675
100691.34777
100705.100582
100722.920087
100722.920087
100746.044707
100746.044707
100792.83191
100792.83191
100875.95021
100965.409865
101006.174088
101006.174088
100975.001937
100975.001937
100912.416157
100912.416157
100733.18316
100586.080596
100549.154424
100549.154424
100549.568059
100549.568059
100551.696719
100551.696719
100552.174919
100554.310376
100568.831681
100568.831681
100598.447652
100598.447652
)
;
    }
    procBoundary1to0
    {
        type            processor;
        value           nonuniform List<scalar> 
41
(
100636.773476
100739.512867
100781.531873
100797.464273
100817.361513
100864.157023
100943.127582
101050.77869
101182.584861
101331.830962
101465.273735
101490.701511
101488.365684
101487.651202
101484.970189
101484.777981
101481.472259
101414.229953
101253.588204
101143.154048
101024.664896
101404.270059
101738.533321
101778.949703
101780.038184
101779.95999
101779.781479
101779.607821
101779.509593
101779.24108
101746.388101
101030.274197
101010.299631
101062.658708
101615.335722
101778.380511
101049.135806
100986.336705
100980.392429
101024.664896
100983.033926
)
;
    }
    procBoundary1to3
    {
        type            processor;
        value           nonuniform List<scalar> 
41
(
100785.626312
100812.118892
100884.716685
101010.1498
101152.587183
101260.189866
101319.953512
101334.369692
101337.071671
101338.730057
101340.16441
101342.54017
101343.466854
100694.627852
100698.000951
100709.999204
100714.501026
100715.334267
100714.843587
100713.753039
100713.753039
101343.886363
101343.5638
101303.324835
101198.630844
101160.120175
101159.585676
101157.741232
101157.142047
101155.591806
101154.397959
101154.917401
101162.690249
101187.218915
101215.124239
101159.455634
100953.180431
100776.344362
100760.41061
101200.205691
101520.244532
)
;
    }
}


// ************************************************************************* //
