/*--------------------------------*- C++ -*----------------------------------*\
| =========                 |                                                 |
| \\      /  F ield         | OpenFOAM: The Open Source CFD Toolbox           |
|  \\    /   O peration     | Version:  2312                                  |
|   \\  /    A nd           | Website:  www.openfoam.com                      |
|    \\/     M anipulation  |                                                 |
\*---------------------------------------------------------------------------*/
FoamFile
{
    version     2.0;
    format      ascii;
    arch        "LSB;label=32;scalar=64";
    class       volScalarField;
    location    "0.625/water";
    object      Tf.gasAndLiquid;
}
// * * * * * * * * * * * * * * * * * * * * * * * * * * * * * * * * * * * * * //

dimensions      [0 0 0 1 0 0 0];

internalField   nonuniform List<scalar> 
1504
(
318.299943018
307.34475519
302.934247022
301.293738974
300.678273646
300.421808283
300.29007802
300.203328521
300.135512993
300.081540612
300.041141738
300.014581313
300.002862787
300.000354184
300.000050428
300.000008116
300.000000483
300
300
300
318.164863925
307.318923548
302.90552329
301.265766446
300.659610336
300.411263259
300.282684748
300.195715594
300.128257236
300.076304104
300.038464042
300.013973399
300.002911402
300.000364662
300.000051022
300.000008235
300.000000399
300
300
300
318.087317731
307.329674962
302.90603005
301.257491594
300.649498023
300.402475625
300.274070788
300.186857861
300.121005099
300.071812838
300.036697887
300.013979397
300.00316316
300.000402747
300.000052277
300.000008303
300.000000308
300
300
300
318.040658259
307.338773698
302.908767053
301.255532049
300.643763008
300.394611927
300.264428841
300.178157552
300.114920531
300.06878273
300.036218829
300.014748991
300.003681858
300.000483993
300.000053374
300.000007903
300.000000153
300
300
300
318.028801118
307.313584388
302.875589846
301.2341173
300.630551982
300.383515167
300.254405644
300.170753157
300.110879428
300.06784043
300.037337385
300.016345171
300.004485291
300.000611994
300.000055384
300.000006802
300.000000007
300
300
300
317.833416395
307.344373928
302.885430412
301.221630076
300.61591192
300.371064477
300.245751826
300.166423259
300.110020199
300.06940698
300.040028411
300.01882069
300.005637555
300.000793585
300.000057218
300.00000517
300
300
300
300
316.902024969
307.123761643
302.853912512
301.209982066
300.600945207
300.360394659
300.241398154
300.166219673
300.112664963
300.073863121
300.044787658
300.022334864
300.007212476
300.001044267
300.000060282
300.0000036
300
300
300
300
315.702638676
306.73285907
302.78012196
301.194025028
300.590480591
300.355221756
300.242724463
300.171699726
300.120154064
300.081686724
300.051587193
300.027067534
300.009368181
300.001427085
300.000071073
300.000002586
300.000000072
300
300
300
315.158709698
306.494064498
302.714568728
301.190944378
300.597467725
300.363910183
300.254264108
300.184637554
300.132906659
300.092933867
300.060580334
300.033305086
300.01237293
300.002042513
300.000099532
300.000002465
300.000000344
300
300
300
315.505771949
306.523503761
302.733721829
301.223728515
300.632969327
300.393371416
300.278031292
300.204870764
300.150112105
300.106885902
300.071434398
300.040997844
300.01636757
300.003009266
300.000164356
300.000004082
300.000000604
300.000000068
300
300
316.782662564
307.013532872
302.926799238
301.31673011
300.69530813
300.437392785
300.309393013
300.228837912
300.169092148
300.121862206
300.083023496
300.049436814
300.021104884
300.004382698
300.000297792
300.000010033
300.00000113
300.000000152
300
300
317.621071631
307.456164627
303.153778968
301.430232986
300.759329316
300.478616548
300.338190717
300.250452232
300.186192351
300.135546914
300.093823404
300.057609558
300.026151027
300.006137393
300.000534609
300.000024951
300.000002702
300.000000235
300
300
317.977391395
307.700023689
303.305794926
301.517289116
300.8064869
300.507162317
300.358182381
300.265860794
300.198796492
300.145984867
300.102370622
300.064444282
300.030888346
300.00812004
300.000888778
300.000055512
300.000006213
300.000000493
300
300
318.217938355
307.796100409
303.375799111
301.568683735
300.835109838
300.523492402
300.369468493
300.27498572
300.20668733
300.152777595
300.108254279
300.0694977
300.034792348
300.010172433
300.001362268
300.00010346
300.000011958
300.000001096
300
300
318.368495577
307.74829009
303.347045814
301.571799221
300.8426865
300.528755216
300.373688467
300.279205091
300.210735387
300.156824716
300.112359193
300.072929229
300.037364297
300.011756364
300.001875291
300.000169587
300.000019343
300.000002066
300
300
318.495462465
307.689106384
303.288206347
301.544662936
300.83306037
300.524934867
300.372630085
300.280025078
300.21227145
300.159476026
300.114974731
300.074894684
300.038641988
300.012650297
300.002237153
300.000232852
300.000026978
300.000003227
300
300
318.554785311
307.602978711
303.188351939
301.482698215
300.804368122
300.512303903
300.367589598
300.278586549
300.212870845
300.161088301
300.116370218
300.075523467
300.038690089
300.012825149
300.002371662
300.000270926
300.000033145
300.000004263
300
300
318.55976062
307.476799734
303.053215291
301.393978001
300.760001572
300.493194217
300.360292027
300.276330241
300.213151668
300.161973772
300.116702326
300.07483216
300.037558002
300.012280343
300.002275841
300.000280969
300.000036138
300.000004805
300
300
318.457659144
307.317626149
302.904734949
301.296363425
300.709915638
300.471843968
300.352588648
300.274387253
300.21341931
300.162342193
300.116060586
300.072810557
300.035359355
300.011117395
300.002045257
300.000273146
300.00003535
300.000004695
300
300
318.263504878
307.100336194
302.75041619
301.202943317
300.663062143
300.452123658
300.345903549
300.273424694
300.213977846
300.162412673
300.114543903
300.069651045
300.03235912
300.009642467
300.001819125
300.000257866
300.000031526
300.000004046
300
300
317.917306814
306.968562405
302.68349591
301.152950676
300.632103367
300.43803905
300.341677595
300.273994284
300.215281144
300.162521873
300.112463282
300.066036626
300.029194725
300.008466736
300.001676256
300.000241529
300.000026641
300.000003199
300
300
317.117610263
306.719539842
302.619952812
301.127228966
300.614017727
300.429658771
300.340294173
300.276181139
300.217752519
300.163064687
300.110574697
300.063003461
300.026876723
300.00787563
300.001631707
300.000230208
300.000022294
300.000002483
300
300
316.090496097
306.351849868
302.517257435
301.090496868
300.59625736
300.424166848
300.341405075
300.27973742
300.221730421
300.164656925
300.110016446
300.061611096
300.026116881
300.007883476
300.001691562
300.000228635
300.00001956
300.000002077
300
300
315.3147747
306.056180014
302.394807349
301.031026118
300.570829131
300.41976421
300.34520323
300.285429801
300.22698972
300.168127558
300.111737437
300.062593243
300.027092277
300.008453034
300.001846819
300.000244452
300.000018992
300.000002034
300
300
314.873652152
305.851859758
302.244865041
300.942349501
300.54257671
300.419600012
300.352921767
300.294287147
300.23475454
300.174033151
300.116043836
300.066067552
300.029543856
300.009527381
300.002124505
300.000289957
300.000021274
300.00000248
300
300
314.796990051
305.84082931
302.142130139
300.870882942
300.536763482
300.43003933
300.36587095
300.306937365
300.246026787
300.183198563
300.123062465
300.071594824
300.033266512
300.011222839
300.002616493
300.000385138
300.000029605
300.000003739
300
300
315.456186647
306.02340652
302.142311445
300.904356616
300.576673834
300.456980629
300.384895739
300.322734403
300.259982272
300.195178164
300.132535863
300.078948024
300.038326461
300.01375064
300.003449355
300.000568119
300.000054371
300.000006235
300.000000323
300
316.408147193
306.350193747
302.359868194
301.071055564
300.668986511
300.504044599
300.411131905
300.340966589
300.275228525
300.208029832
300.142779119
300.087010206
300.044168555
300.016964192
300.004636302
300.000867191
300.000103339
300.000010595
300.000001001
300
316.972615403
306.664542053
302.658177599
301.283968751
300.787299754
300.56469497
300.443043626
300.360426443
300.289524399
300.219234281
300.151737066
300.094331965
300.049803619
300.020372702
300.006058813
300.001273267
300.000183256
300.000019019
300.000002193
300
317.166491156
306.789837049
302.864050203
301.456194796
300.890383055
300.620351036
300.472830748
300.377659157
300.300756716
300.22710799
300.158164327
300.100100227
300.054673481
300.023614706
300.007561951
300.001761112
300.000295084
300.000035209
300.000004024
300
317.127521606
306.859297888
303.018817243
301.574992984
300.959215621
300.658144566
300.493735686
300.389536822
300.307331031
300.230941234
300.161789864
300.104217747
300.058716225
300.026607771
300.009095684
300.002313866
300.00044174
300.000061581
300.000006632
300.000000291
317.048043795
306.991211163
303.159427183
301.654975246
300.997554386
300.677333334
300.504096598
300.394653899
300.308381621
300.230876148
300.16310381
300.107146675
300.062274919
300.029565003
300.010759272
300.002974718
300.000638234
300.000104537
300.00001175
300.000000938
317.043406158
307.210365117
303.316070284
301.721009148
301.018762951
300.683687365
300.505664415
300.392740497
300.304013948
300.227776988
300.163088144
300.109703877
300.066021726
300.032982207
300.012858097
300.003885499
300.000939129
300.000182153
300.0000261
300.000002155
317.150410407
307.413781229
303.437478179
301.763167838
301.025224896
300.680135101
300.498854803
300.382866822
300.295415979
300.223135981
300.163029081
300.112978425
300.070896049
300.037646949
300.015936653
300.005334969
300.001463961
300.000338652
300.000064837
300.000009132
317.157096207
307.460023639
303.4431209
301.748268055
301.004905592
300.660140664
300.478190736
300.366294025
300.28461557
300.218912618
300.164533634
300.118321633
300.078125494
300.044632008
300.020842763
300.007819527
300.002444865
300.000673268
300.000169092
300.000038108
316.46848221
307.354256403
303.3974493
301.698102168
300.957837982
300.618887332
300.448909828
300.347983999
300.275621165
300.217943871
300.169649292
300.127430883
300.089170033
300.055273873
300.028742157
300.012139135
300.004315131
300.001404964
300.000433097
300.000125383
315.148685932
306.957616443
303.244612302
301.608721192
300.894084963
300.577560124
300.425831727
300.336980698
300.273876838
300.223424243
300.180629311
300.141967874
300.105455637
300.070940749
300.041020697
300.019405793
300.007789582
300.002896243
300.001010816
300.000330801
314.27618658
306.76589423
303.275173441
301.675957692
300.940492225
300.600633665
300.436604237
300
300
300
300
300
300
300
300
300
300
300
300
300
300
300
300
300
300
300
300
300
300
300
300
300
300
300
300
300
300
300
300
300
300
300
300
300
300
300
300
300
300
300
300
300
300
300
300
300
300
300
300
300
300
300
300
300
300
300
300
300
300
300
300
300
300
300
300
300
300
300
300
300
300
300
300
300
300
300
300
300
300
300
300
300
300
300
300
300
300
300
300
300
300
300
300
300
300
300
300
300
300
300
300
300
300
300
300
300
300
300
300
300
300
300
300
300
300
300
300
300
300
300
300
300
300
300
300
300
300
300
300
300
300
300
300
300
300
300
300
300
300
300
300
300
300
300
300
300
300
300
300
300
300
300
300
300
300
300
300
300
300
300
300
300
300
300
300
300
300
300
300
300
300
300
300
300
300
300
300
300
300
300
300
300
300
300
300
300
300
300
300
300
300
300
300
300
300
300
300
300
300
300
300
300
300
300
300
300
300
300
300
300
300
300
300
300
300
300
300
300
300
300
300
300
300
300
300
300
300
300
300
300
300
300
300
300
300
300
300
300
300
300
300
300
300
300
300
300
300
300
300
300
300
300
300
300
300
300
300
300
300
300
300
300
300
300
300
300
300
300
300
300
300
300
300
300
300
300
300
300
300
300
300
300
300
300
300
300
300
300
300
300
300
300
300
300
300
300
300
300
300
300
300
300
300
300
300
300
300
300
300
300
300
300
300
300
300
300
300
300
300
300
300
300
300
300
300
300
300
300
300
300
300
300
300
300
300
300
300
300
300
300
300
300
300
300
300
300
300
300
300
300
300
300
300
300
300
300
300
300
300
300
300
300
300
300
300
300
300
300
300
300
300
300
300
300
300
300
300.000000019
300
300
300
300.000000001
300
300
300
300
300
300
300
300
300
300
300
300
300
300
300
300.000000049
300
300
300
300
300
300
300
300
300
300
300
300
300
300
300
300
300
300
300
300.000000068
300
300
300
300
300
300
300
300
300
300
300
300
300
300
300
300
300
300
300
300.000000067
300
300
300
300
300.000000001
300
300
300
300
300
300
300
300
300
300
300
300
300
300
300.000000043
300
300
300
300
300
300
300
300
300
300
300
300
300
300
300
300
300
300
300
300
300.000000028
300
300
300
300
300
300
300
300
300
300
300
300
300
300
300
300
300
300
300
300.000000073
300
300
300
300
300
300
300
300
300
300
300.000000101
300.000000523
300.000001019
300.000001507
300.000001953
300.00000227
300
300
300
300.0000001
300
300
300
300
300
300
300.000000164
300.000000974
300.000002098
300.000003457
300.000005018
300.000006693
300.000008324
300.000009742
300.000010811
300.000011277
300
300
300
300.000000059
300.000000019
300
300
300
300.000000987
300.000002784
300.000005067
300.000007851
300.000011025
300.000014473
300.000018035
300.000021442
300.000024302
300.000026258
300.000027258
300.000027223
300
300
300
300
300.000000049
300
300.000000731
300.000003522
300.000007234
300.000011919
300.000016809
300.000021973
300.000027274
300.000032403
300.000036937
300.000040415
300.000042513
300.000043278
300.000043142
300.000042319
300
300
300
300
300.000000058
300.000000719
300.000005639
300.000012181
300.000019002
300.000026024
300.000032854
300.000038938
300.00004422
300.000048346
300.000051113
300.000052556
300.000052863
300.000052333
300.000051419
300.000050439
300
300
300
300
300
300.000004127
300.000013123
300.000022846
300.000031538
300.000038693
300.000044914
300.000049258
300.000052091
300.000053757
300.000054598
300.000054884
300.000054711
300.000054092
300.000053167
300.000052371
300
300
300
300
300
300.000007615
300.000019241
300.000030171
300.00003854
300.0000441
300.000047562
300.000049805
300.000051109
300.000052067
300.000052864
300.000053422
300.000053646
300.000053443
300.000052798
300.000051921
300
300
300
300
300
300.000008941
300.000021373
300.000031935
300.000038946
300.000042811
300.000044906
300.000046422
300.000047972
300.000049374
300.000050586
300.000051584
300.000052323
300.000052633
300.000052351
300.000051512
300.000000045
300
300
300
300
300.000007607
300.000019731
300.000029672
300.000035751
300.000038739
300.00004054
300.000042379
300.000044333
300.000046013
300.000047527
300.000048731
300.000050219
300.000051239
300.000051492
300.00005081
300.000000718
300.000000191
300.000000019
300.000000037
300.000000084
300.000005061
300.0000154
300.000024784
300.000030805
300.000033866
300.000035277
300.000036376
300.000038688
300.000041777
300.000043904
300.000045326
300.000046334
300.000048532
300.000049753
300.000049358
300.00000754
300.000001232
300.000000671
300.000000551
300.00000053
300.000003404
300.000010723
300.000018378
300.000024256
300.00002789
300.00002987
300.000030965
300.000031943
300.000033572
300.000037723
300.00004097
300.000043337
300.000045505
300.000047623
300.000047633
300.000034901
300.000009736
300.000003118
300.000001283
300.00000111
300.000002714
300.000007397
300.000012864
300.000017576
300.000020981
300.000023137
300.000024593
300.00002589
300.000027039
300.000025376
300.000035554
300.000038925
300.000041985
300.000045627
300.000046158
300.000105326
300.000033848
300.000011507
300.000004528
300.000002472
300.000002902
300.000005591
300.000009234
300.000012732
300.000015546
300.000017645
300.000019429
300.000020967
300.000020187
300.000024034
300.000029543
300.000035113
300.000039406
300.000044043
300.000045207
)
;

boundaryField
{
    emptyPatch
    {
        type            empty;
    }
    minY
    {
        type            calculated;
        value           nonuniform List<scalar> 0();
    }
    maxY
    {
        type            calculated;
        value           nonuniform List<scalar> 0();
    }
    maxX
    {
        type            calculated;
        value           nonuniform List<scalar> 
38
(
300
300
300
300
300
300
300
300
300
300
300
300
300
300
300
300
300
300
300
300
300
300
300
300
300
300
300
300
300
300
300
300
300
300
300
300
300
300
)
;
    }
    water_to_heater
    {
        type            calculated;
        value           nonuniform List<scalar> 
60
(
789.963240278
790.007120908
790.007124001
790.073233569
790.073275024
790.156457773
790.156444897
790.258073633
790.25792999
790.379902765
790.380766069
790.52489577
790.526120184
790.672280715
790.670179195
790.82254937
790.818875627
790.97909936
790.978849604
791.148255573
791.148294465
791.307251939
791.307490821
791.449966745
791.449895113
791.57399863
791.574167025
791.675869136
791.675911325
791.744136326
791.743973359
791.776258523
791.775988434
791.771748925
791.771978017
791.735848886
791.737586999
791.673633103
791.67397285
791.574016248
791.57357324
791.439179135
791.436272269
791.290395926
791.290752927
791.17839148
791.178719776
791.105300419
791.105396407
791.080328878
791.080372697
791.116527103
791.116667118
791.224803461
791.224811988
791.352994365
791.353363673
791.464275854
791.468273713
791.578803193
)
;
    }
    procBoundary3to1
    {
        type            processor;
        value           nonuniform List<scalar> 
41
(
300.345517246
300.284911334
300.238565238
300.199285049
300.162856927
300.126946051
300.091276052
300.057773748
300.030409675
300.013624779
300.005519087
300.002052793
300.000709263
315.219806593
307.924085151
304.390255224
302.4705362
301.388194711
300.810464804
300.345517246
300.525570242
300.000237701
300.000080234
300.000027695
300.000010311
300.000004639
300.000003383
300.000004503
300.000006783
300.000009324
300.000011703
300.000013893
300.000016071
300.000015584
300.000019934
300.000022636
300.000025604
300.000032213
300.000037704
300.000043375
300.000045621
)
;
    }
    procBoundary3to2
    {
        type            processor;
        value           nonuniform List<scalar> 
41
(
318.446522455
307.448913234
303.015391079
301.343254604
300.702422809
300.432473075
300.295938713
300.20867206
300.14155191
300.086631798
300.044227556
300.0156133
300.00295814
300.000357916
300.000051025
300.000008074
300.000000581
300
300
300
300
300
300
300
300
300
300
300
300
300
300
300
300
300
300
300
300
300
300
300
300
)
;
    }
}


// ************************************************************************* //
