/*--------------------------------*- C++ -*----------------------------------*\
| =========                 |                                                 |
| \\      /  F ield         | OpenFOAM: The Open Source CFD Toolbox           |
|  \\    /   O peration     | Version:  2312                                  |
|   \\  /    A nd           | Website:  www.openfoam.com                      |
|    \\/     M anipulation  |                                                 |
\*---------------------------------------------------------------------------*/
FoamFile
{
    version     2.0;
    format      ascii;
    arch        "LSB;label=32;scalar=64";
    class       volScalarField;
    location    "0.58/water";
    object      Tf.gasAndLiquid;
}
// * * * * * * * * * * * * * * * * * * * * * * * * * * * * * * * * * * * * * //

dimensions      [0 0 0 1 0 0 0];

internalField   nonuniform List<scalar> 
1503
(
314.354219024
306.125820324
302.644893731
301.078831664
300.458082085
300.088395997
300.003469265
300.000018844
300.000000016
300
300
300
300
300
300
300
300
300
300
300
320.239428194
308.313985
303.015803237
301.107021953
300.402034213
300.145955982
300.045573061
300.004901289
300.000069519
300.000000071
300
300
300
300
300
300
300
300
300
300
320.354892617
307.88989635
302.707097674
300.910273878
300.301681981
300.099340234
300.032254743
300.007915659
300.000549444
300.000005794
300.000000002
300
300
300
300
300
300
300
300
300
319.495518724
307.890903236
302.825056263
300.949613084
300.308978696
300.09750645
300.029471325
300.008538839
300.001385219
300.000052103
300.000000421
300
300
300
300
300
300
300
300
300
318.641007365
307.735691515
302.94003827
301.035745912
300.349769467
300.114800615
300.035364704
300.010000491
300.002685994
300.000241929
300.000005678
300.000000001
300
300
300
300
300
300
300
300
317.703992985
307.432686246
302.94658186
301.092856298
300.387305404
300.134931937
300.044924291
300.01327275
300.00356494
300.000677712
300.000030878
300.000000523
300
300
300
300
300
300
300
300
317.059135459
307.093255725
302.853671824
301.099711104
300.408026289
300.150332826
300.054297454
300.017454099
300.004757202
300.001265337
300.000134852
300.000003452
300
300
300
300
300
300
300
300
316.950698408
306.891063366
302.742243095
301.072125677
300.413755207
300.160565403
300.062225663
300.021814503
300.006179063
300.001577361
300.000370326
300.000016667
300.000000012
300
300
300
300
300
300
300
316.958287079
306.829589056
302.708515454
301.067043472
300.422978603
300.171224384
300.070023513
300.026333333
300.007832872
300.001902671
300.000510145
300.000063863
300.000000375
300
300
300
300
300
300
300
317.015977219
306.820348037
302.697463633
301.069258576
300.432258225
300.181219392
300.07754957
300.030894565
300.009648397
300.002243374
300.000538208
300.000144375
300.000004325
300.000000003
300
300
300
300
300
300
316.9497855
306.76119496
302.652252888
301.054476877
300.432983282
300.186780839
300.083142936
300.035081511
300.011779183
300.002692916
300.000556314
300.000157965
300.000015896
300.000000064
300
300
300
300
300
300
316.648330447
306.588363911
302.546035095
301.009447334
300.419967606
300.186425111
300.0864536
300.03854449
300.014047791
300.003382516
300.000612102
300.000143618
300.000031149
300.000000517
300
300
300
300
300
300
316.316291414
306.358058281
302.403940319
300.941660484
300.396656489
300.182433829
300.088786104
300.041942329
300.016579465
300.004355983
300.000727889
300.000134448
300.000036838
300.000002023
300.000000003
300
300
300
300
300
316.122737857
306.310204063
302.36607665
300.911107881
300.385309681
300.183081183
300.093433272
300.046588281
300.019810791
300.005738079
300.000945798
300.000138512
300.000029488
300.000004867
300.000000044
300
300
300
300
300
316.676584291
306.64303067
302.507618939
300.95851317
300.404350618
300.195539291
300.102968972
300.053370599
300.0240152
300.00760454
300.001310985
300.000165009
300.000028195
300.000007745
300.000000376
300.000000001
300
300
300
300
317.768123161
307.19316279
302.768891734
301.07484627
300.454552595
300.219914709
300.117026391
300.061987251
300.028949234
300.009826974
300.001822184
300.000219269
300.000033207
300.000007989
300.000001621
300.000000019
300
300
300
300
318.05176394
307.435480065
302.940973334
301.174215624
300.505155066
300.245947766
300.131859527
300.07089742
300.033928368
300.012064834
300.002398384
300.000294277
300.000042659
300.000009329
300.000002609
300.00000017
300
300
300
300
318.153073757
307.418220742
302.949586241
301.199223043
300.528563488
300.263053273
300.143643094
300.078617469
300.038294703
300.014001018
300.002938934
300.0003767
300.000054342
300.00001111
300.000002786
300.000000567
300.000000006
300
300
300
318.187692092
307.381972822
302.931868722
301.196066606
300.534161899
300.271478265
300.151359415
300.084409714
300.041797042
300.015479267
300.003388937
300.000453444
300.000065989
300.000012854
300.000002924
300.000000837
300.000000036
300
300
300
318.230558099
307.3283841
302.88690528
301.174871826
300.528251932
300.273444611
300.155640989
300.088277748
300.044124498
300.016523864
300.003756798
300.000516162
300.000074213
300.000014054
300.000002931
300.000000729
300.000000067
300
300
300
318.210053884
307.253931591
302.81668651
301.141269556
300.517002378
300.272330358
300.157907432
300.090629182
300.045433533
300.017365682
300.004102856
300.000573778
300.000078885
300.0000147
300.000002847
300.000000611
300.00000006
300
300
300
318.158595022
307.145551733
302.730452071
301.102410092
300.505246307
300.270802574
300.159133103
300.091678541
300.046366143
300.018276902
300.00454966
300.000642916
300.000081973
300.000014932
300.000002707
300.000000512
300.000000031
300
300
300
318.02759786
306.987569214
302.627192109
301.058994912
300.492726497
300.268563456
300.158942517
300.091914898
300.047284227
300.019420044
300.005141766
300.000761033
300.00009069
300.000015341
300.000002547
300.000000425
300.000000007
300
300
300
317.903615423
306.972777671
302.627114739
301.053739712
300.489745319
300.267442587
300.158193461
300.091915665
300.048379039
300.02067623
300.005932103
300.000963321
300.000107267
300.000016095
300.000002384
300.000000331
300
300
300
300
317.794335843
307.058161053
302.693855585
301.081781674
300.497650108
300.268363382
300.157696396
300.092285257
300.049574211
300.022166602
300.007149408
300.001227043
300.000122758
300.00001648
300.000002174
300.000000217
300
300
300
300
317.243876036
306.972962264
302.714863482
301.103215865
300.503515829
300.268283673
300.157603916
300.093383119
300.051623294
300.024655958
300.008644542
300.001581986
300.000139714
300.000015369
300.000001883
300.000000105
300
300
300
300
316.332835931
306.642548522
302.623818304
301.072523538
300.48929325
300.262606088
300.157615896
300.096327481
300.055626288
300.02817404
300.010668262
300.00208615
300.000171237
300.000014693
300.000001536
300.000000021
300
300
300
300
315.844765389
306.362618477
302.466922616
300.996820868
300.458234236
300.255800556
300.161565132
300.103481129
300.062693739
300.033527651
300.013510523
300.00283042
300.000227847
300.000016414
300.000001616
300
300
300
300
300
316.216872127
306.500533859
302.482786329
300.986113975
300.455866693
300.26442473
300.174692853
300.116408156
300.073358852
300.041094658
300.017557534
300.003981661
300.000332965
300.000021913
300.000002397
300.000000048
300
300
300
300
317.720643904
307.093203606
302.705070007
301.088472816
300.511368896
300.296011294
300.197156458
300.134233431
300.08718187
300.050861996
300.023033595
300.005753347
300.000537742
300.000035564
300.000004445
300.000000296
300
300
300
300
318.255577597
307.483784599
302.962800727
301.234451871
300.595636232
300.341612492
300.224694334
300.154208882
300.102500586
300.062020661
300.029770307
300.008241875
300.000896387
300.000067375
300.000009021
300.000000914
300
300
300
300
318.432993921
307.669434684
303.138842798
301.347952479
300.664727408
300.383517677
300.25096896
300.173172608
300.11724173
300.073246481
300.037158041
300.011366512
300.001430449
300.000123048
300.000017446
300.000002167
300.000000033
300
300
300
318.491807006
307.721022356
303.199371227
301.404981222
300.706138675
300.412947158
300.271778251
300.18898749
300.129849341
300.083077954
300.04416578
300.014844504
300.002131268
300.000201191
300.00002975
300.000004081
300.000000262
300
300
300
318.559902641
307.768826451
303.246361046
301.438886374
300.731247543
300.432739872
300.287089928
300.201100323
300.139581712
300.09048163
300.049223722
300.017842538
300.002950887
300.000289799
300.000043693
300.00000623
300.000000539
300
300
300
318.612947726
307.811177537
303.273225419
301.456153504
300.743667809
300.444212761
300.297139798
300.209446904
300.146225005
300.095132679
300.05204559
300.019538522
300.003606308
300.000371238
300.000055389
300.000008136
300.000000778
300
300
300
318.691649843
307.815469133
303.280225506
301.458322964
300.746739492
300.44909725
300.302678473
300.214347416
300.149837715
300.096982512
300.052726396
300.019961847
300.00389001
300.000428583
300.000061871
300.000009402
300.000000904
300
300
300
318.715619839
307.75483459
303.241276115
301.445925672
300.743539635
300.449520304
300.30473908
300.216259299
300.150615808
300.09624149
300.051602724
300.019398599
300.003854428
300.000446325
300.000063794
300.000009921
300.000000946
300
300
300
318.693661304
307.577372451
303.124363401
301.401552356
300.728951948
300.444808158
300.303480542
300.215372987
300.148686569
300.093299359
300.049152383
300.018223018
300.003638045
300.000436213
300.000061493
300.000009906
300.000000915
300
300
300
300
300
300
300
300
300
300
300
300
300
300
300
300
300
300
300
300
300
300
300
300
300
300
300
300
300
300
300
300
300
300
300
300
300
300
300
300
300
300
300
300
300
300
300
300
300
300
300
300
300
300
300
300
300
300
300
300
300
300
300
300
300
300
300
300
300
300
300
300
300
300
300
300
300
300
300
300
300
300
300
300
300
300
300
300
300
300
300
300
300
300
300
300
300
300
300
300
300
300
300
300
300
300
300
300
300
300
300
300
300
300
300
300
300
300
300
300
300
300
300
300
300
300
300
300
300
300
300
300
300
300
300
300
300
300
300
300
300
300
300
300
300
300
300
300
300
300
300
300
300
300
300
300
300
300
300
300
300
300
300
300
300
300
300
300
300
300
300
300
300
300
300
300
300
300
300
300
300
300
300
300
300
300
300
300
300
300
300
300
300
300
300
300
300
300
300
300
300
300
300
300
300
300
300
300
300
300
300
300
300
300
300
300
300
300
300
300
300
300
300
300
300
300
300
300
300
300
300
300
300
300
300
300
300
300
300
300
300
300
300
300
300
300
300
300
300
300
300
300
300
300
300
300
300
300
300
300
300
300
300
300
300
300
300
300
300
300
300
300
300
300
300
300
300
300
300
300
300
300
300
300
300
300
300
300
300
300
300
300
300
300
300
300
300
300
300
300
300
300
300
300
300
300
300
300
300
300
300
300
300
300
300
300
300
300
300
300
300
300
300
300
300
300
300
300
300
300
300
300
300
300
300
300
300
300
300
300
300
300
300
300
300
300
300
300
300
300
300
300
300
300
300
300
300
300
300
300
300
300
300
300
300
300
300
300
300
300
300
300
300
300
300
300
300
300
300
300
300
300
300
300
300
300
300
300
300
300
300
300
300
300
300
300
300
300
300
300
300
300
300
300
300
300
300
300
300
300
300
300
300
300
300
300
300
300
300
300
300
300
300
300
300
300
300
300
300
300
300
300
300
300
300
300
300
300
300
300
300
300
300
300
300
300
300
300
300
300
300
300
300
300
300
300
300
300
300
300
300
300
300
300
300
300
300
300
300
300
300
300
300
300
300
300
300
300
300
300
300
300
300
300
300
300
300
300
300
300
300
300
300
300
300
300
300
300
300
300
300
300
300
300
300
300
300
300
300
300
300
300
300
300
300
300
300
300
300
300
300
300
300
300
300
300
300
300
300
300
300
300
300
300
300
300
300
300
300
300
300
300
300
300
300
300
300
300
300
300
300
300
300
300
300
300
300
300
300
300
300
300
300
300
300
300
300
300
300
300
300
300
300
300
300
300
300
300
300
300
300
300
300
300
300
300
300
300
300
300
300
300
300
300
300
300
300
300
300
300
300
300
300
300
300
300
300
300
300
300
300
300
300
300
300
300
300
300
300
300
300
300
300
300
300
300
300
300
300
300
300
300
300
300
300
300
300
300
300
300
300
300
300
300
300
300
300
300
300
300
300
300
300
300
300
300
300
300
300
300
300
300
300
300
300
300
300
300
300
300
300
300
300
300
300
300
300
300
300
300
300
300
300
300
300
300
300
300
300
300
300
300
300
300
300
300
300
300
300
300
300
300
300
300
300
300
300
300
300
300
300
300
300
300
300
300
300
300
300
300
300
300
300
300
300
300
300
300
300
300
300
300
300
300
300
300
300
300
300
300
300
300
300
300
300.00000001
300
)
;

boundaryField
{
    emptyPatch
    {
        type            empty;
    }
    minY
    {
        type            calculated;
        value           nonuniform List<scalar> 
40
(
300
300
300
300
300
300
300
300
300
300
300
300
300
300
300
300
300
300
300
300
300
300
300
300
300
300
300
300
300
300
300
300
300
300
300
300
300
300
300
300
)
;
    }
    maxY
    {
        type            calculated;
        value           nonuniform List<scalar> 0();
    }
    water_to_cooler
    {
        type            calculated;
        value           nonuniform List<scalar> 
37
(
300
300
300
300
300
300
300
300
300
300
300
300
300
300
300
300
300
300
300
300
300
300
300
300
300
300
300
300
300
300
300
300
300
300
300
300
300
)
;
    }
    water_to_heater
    {
        type            calculated;
        value           nonuniform List<scalar> 
61
(
791.093444115
791.044814564
790.787262344
790.78770986
790.672804265
790.672598669
790.62226938
790.623013691
790.617636509
790.619052479
790.62363925
790.623138644
790.62669157
790.626639888
790.627826898
790.627839524
790.624025507
790.625154427
790.614529812
790.615336101
790.601431277
790.60151445
790.587778427
790.585199738
790.569074246
790.569495727
790.560172113
790.559914389
790.55245319
790.552808463
790.547999176
790.547682053
790.545244485
790.544918483
790.542569267
790.542838754
790.541085852
790.540923763
790.540951415
790.540996757
790.542898487
790.545672795
790.544634366
790.545430851
790.543027838
790.540715575
790.540074734
790.53588072
790.537676545
790.537783829
790.538820976
790.539040685
790.540737454
790.540628326
790.544912872
790.545096117
790.55299616
790.553154998
790.56413036
790.563972716
790.579879323
)
;
    }
    procBoundary2to3
    {
        type            processor;
        value           nonuniform List<scalar> 
41
(
318.575927909
307.457921816
303.032504223
301.355275731
300.708848126
300.436546492
300.299537993
300.211998817
300.144257129
300.088771668
300.0459703
300.016855329
300.003377478
300.000413718
300.000058374
300.000009693
300.000000837
300
300
300
300
300
300
300
300
300
300
300
300
300
300
300
300
300
300
300
300
300
300.000000018
300
300
)
;
    }
}


// ************************************************************************* //
