/*--------------------------------*- C++ -*----------------------------------*\
| =========                 |                                                 |
| \\      /  F ield         | OpenFOAM: The Open Source CFD Toolbox           |
|  \\    /   O peration     | Version:  2312                                  |
|   \\  /    A nd           | Website:  www.openfoam.com                      |
|    \\/     M anipulation  |                                                 |
\*---------------------------------------------------------------------------*/
FoamFile
{
    version     2.0;
    format      ascii;
    arch        "LSB;label=32;scalar=64";
    class       volScalarField;
    location    "31";
    object      nut.air;
}
// * * * * * * * * * * * * * * * * * * * * * * * * * * * * * * * * * * * * * //

dimensions      [0 2 -1 0 0 0 0];

internalField   nonuniform List<scalar> 
1875
(
2.87511e-07
2.81946e-07
3.26079e-07
3.97892e-07
4.41872e-07
4.57034e-07
4.52991e-07
4.41658e-07
4.14789e-07
3.73216e-07
3.34058e-07
2.80158e-07
2.3638e-07
1.84033e-07
1.43885e-07
9.16061e-08
6.05695e-08
2.63515e-08
1.44053e-08
9.55164e-09
7.3266e-09
1.0442e-08
3.16114e-08
4.55149e-08
4.6794e-07
4.71029e-08
4.61715e-07
1.22197e-06
1.47444e-06
1.49875e-06
1.49948e-06
1.44293e-06
1.42348e-06
1.41378e-06
1.42098e-06
1.44601e-06
1.38538e-06
1.32005e-06
1.15566e-06
1.00164e-06
8.16703e-07
6.45159e-07
4.96574e-07
3.83566e-07
3.09198e-07
2.40605e-07
2.39617e-07
1.81852e-07
1.48029e-07
7.32045e-07
4.9309e-30
1.20799e-06
2.17356e-06
2.06234e-06
1.27015e-06
8.80786e-07
7.03085e-07
6.42157e-07
6.55926e-07
7.66737e-07
9.47657e-07
1.15429e-06
1.32244e-06
1.39978e-06
1.39586e-06
1.29882e-06
1.10888e-06
8.70808e-07
6.60417e-07
5.43214e-07
3.80654e-07
2.9531e-07
2.09553e-07
1.66476e-07
6.81026e-07
5.05808e-33
1.27926e-06
1.97559e-06
1.25297e-06
3.73491e-07
2.60198e-07
2.36708e-07
2.17464e-07
2.49056e-07
3.3995e-07
6.69436e-07
1.00985e-06
1.24565e-06
1.35835e-06
1.35e-06
1.25736e-06
1.07666e-06
8.44455e-07
6.65473e-07
5.38676e-07
3.65853e-07
2.75145e-07
1.82037e-07
1.16795e-07
5.86607e-21
4.79188e-33
4.90171e-07
1.5234e-06
1.24357e-06
3.28724e-07
2.46929e-07
2.85189e-07
3.0228e-07
3.58596e-07
4.88708e-07
6.22211e-07
8.69561e-07
1.09963e-06
1.18191e-06
1.13521e-06
1.04262e-06
8.81177e-07
6.76184e-07
5.07741e-07
3.49338e-07
1.72798e-07
8.84598e-08
2.97436e-08
6.08089e-09
4.87888e-19
4.43373e-33
5.36523e-08
7.11032e-07
1.6292e-06
6.64022e-07
2.55875e-07
2.70577e-07
2.92993e-07
3.16122e-07
3.79389e-07
4.48767e-07
5.2939e-07
5.83561e-07
5.72686e-07
5.18237e-07
4.49684e-07
3.04209e-07
1.91348e-07
1.1526e-07
9.7912e-08
1.18954e-07
4.47343e-07
9.69347e-07
1.07846e-06
7.06272e-07
2.03037e-32
2.722e-08
1.53177e-07
1.13226e-06
1.92129e-06
4.22942e-07
2.9993e-07
3.26894e-07
3.07809e-07
3.12174e-07
2.8928e-07
2.70759e-07
2.53388e-07
2.25269e-07
1.88457e-07
1.57635e-07
1.49e-07
1.67855e-07
3.16813e-07
1.18887e-06
2.93409e-06
3.48386e-06
3.60173e-06
3.61364e-06
3.57883e-06
3.55041e-31
1.03623e-07
1.19199e-07
3.7338e-07
1.78707e-06
1.61876e-06
4.38872e-07
3.13407e-07
2.882e-07
2.47042e-07
2.32837e-07
2.2072e-07
2.04685e-07
1.82824e-07
1.76165e-07
1.83023e-07
2.88428e-07
7.77215e-07
2.30396e-06
3.29518e-06
3.55088e-06
3.56233e-06
3.4871e-06
3.4555e-06
3.48492e-06
1.47104e-31
7.22353e-07
3.57174e-07
2.83749e-07
1.22507e-06
1.98165e-06
1.13468e-06
3.68742e-07
3.0852e-07
2.74972e-07
2.24495e-07
2.21034e-07
2.12082e-07
2.12801e-07
2.39836e-07
3.84324e-07
1.04494e-06
2.50582e-06
3.25193e-06
3.44189e-06
3.44563e-06
3.23596e-06
3.22861e-06
3.30314e-06
3.67623e-06
1.77162e-31
1.07958e-06
9.30819e-07
5.44788e-07
5.58907e-07
1.92992e-06
1.90883e-06
5.68154e-07
3.57513e-07
3.46177e-07
2.94017e-07
2.6254e-07
2.82189e-07
3.3096e-07
4.77979e-07
1.0411e-06
2.02379e-06
2.88467e-06
3.32334e-06
3.44657e-06
3.35953e-06
3.22009e-06
3.11436e-06
3.2144e-06
3.8093e-06
5.63596e-31
1.00432e-06
1.25689e-06
1.12174e-06
7.30772e-07
1.14224e-06
2.04884e-06
1.37919e-06
4.81811e-07
4.35288e-07
5.26838e-07
4.74438e-07
5.05126e-07
7.53169e-07
1.19173e-06
1.82629e-06
2.52921e-06
3.12952e-06
3.41064e-06
3.40251e-06
3.33565e-06
3.19404e-06
3.05735e-06
3.08379e-06
3.71802e-06
3.098e-07
7.85398e-07
1.1146e-06
1.23293e-06
1.27881e-06
9.33708e-07
1.56022e-06
1.85631e-06
1.03553e-06
5.48005e-07
6.76063e-07
9.65827e-07
1.15205e-06
1.49256e-06
1.93871e-06
2.44191e-06
2.95421e-06
3.32353e-06
3.39063e-06
3.30841e-06
3.2454e-06
3.15846e-06
3.00996e-06
3.01513e-06
3.57975e-06
1.50745e-06
7.44896e-07
9.15723e-07
1.07143e-06
1.28211e-06
1.19115e-06
1.32645e-06
1.82077e-06
1.61271e-06
8.10016e-07
7.81827e-07
1.15996e-06
1.70472e-06
2.22655e-06
2.62418e-06
2.99849e-06
3.28535e-06
3.39435e-06
3.34194e-06
3.32079e-06
3.32518e-06
3.1715e-06
2.99368e-06
2.94953e-06
3.50922e-06
1.27435e-06
6.58176e-07
7.90084e-07
9.26108e-07
1.02711e-06
1.2439e-06
1.24676e-06
1.56107e-06
1.81809e-06
1.44533e-06
8.76568e-07
1.17011e-06
1.85775e-06
2.57243e-06
3.05279e-06
3.32901e-06
3.46278e-06
3.47633e-06
3.49362e-06
3.55585e-06
3.6151e-06
3.40503e-06
3.07902e-06
2.8965e-06
3.44008e-06
1.12875e-06
7.03604e-07
8.73942e-07
9.70971e-07
9.67451e-07
9.84983e-07
1.12511e-06
1.39103e-06
1.86972e-06
1.76177e-06
1.17235e-06
1.17113e-06
1.76047e-06
2.58969e-06
3.12024e-06
3.3818e-06
3.47835e-06
3.51401e-06
3.60223e-06
3.77587e-06
3.88097e-06
3.66631e-06
3.26885e-06
3.01742e-06
3.46032e-06
1.00467e-06
8.4772e-07
1.14281e-06
1.1412e-06
1.07789e-06
9.06466e-07
9.73441e-07
1.16022e-06
1.79797e-06
1.91289e-06
1.60959e-06
1.1754e-06
1.46104e-06
2.21046e-06
2.96914e-06
3.28746e-06
3.38434e-06
3.38281e-06
3.41864e-06
3.59671e-06
3.73624e-06
3.66273e-06
3.23e-06
2.92326e-06
3.4467e-06
8.46455e-07
8.83751e-07
1.15488e-06
1.16902e-06
1.08357e-06
1.02846e-06
1.18012e-06
1.36847e-06
1.93166e-06
2.13177e-06
1.96949e-06
1.4046e-06
1.38899e-06
1.67517e-06
2.17953e-06
2.72167e-06
2.86271e-06
2.84725e-06
2.96187e-06
3.31722e-06
3.61961e-06
3.66649e-06
3.17483e-06
2.84979e-06
3.48032e-06
8.05545e-07
9.10972e-07
1.20641e-06
1.27591e-06
1.36935e-06
1.55219e-06
1.74165e-06
1.91862e-06
2.32975e-06
2.46227e-06
2.24823e-06
1.90288e-06
1.42569e-06
1.50974e-06
1.72167e-06
1.95121e-06
2.15213e-06
2.34066e-06
2.6396e-06
3.16806e-06
3.56318e-06
3.64383e-06
3.09282e-06
2.76198e-06
3.46846e-06
7.65302e-07
9.36825e-07
1.35137e-06
1.56152e-06
1.88282e-06
2.32468e-06
2.66909e-06
2.7476e-06
2.80746e-06
2.68383e-06
2.38264e-06
2.09927e-06
1.59635e-06
1.44221e-06
1.62082e-06
1.77897e-06
1.96917e-06
2.19101e-06
2.55447e-06
3.2164e-06
3.57104e-06
3.54592e-06
2.87045e-06
2.57338e-06
3.50088e-06
7.47103e-07
8.83089e-07
1.33737e-06
1.6356e-06
2.13433e-06
2.71903e-06
3.042e-06
3.00329e-06
2.83611e-06
2.63801e-06
2.47827e-06
2.19778e-06
1.66735e-06
1.45455e-06
1.56721e-06
1.71103e-06
1.90099e-06
2.19822e-06
2.88383e-06
3.49949e-06
3.53605e-06
3.1308e-06
2.57852e-06
2.36315e-06
3.69605e-06
8.22748e-07
8.726e-07
1.31063e-06
1.59814e-06
2.10066e-06
2.70517e-06
3.07784e-06
3.0093e-06
2.85829e-06
2.67466e-06
2.49356e-06
2.26421e-06
1.81531e-06
1.61745e-06
1.66905e-06
1.88765e-06
2.37441e-06
3.1294e-06
3.61706e-06
3.56587e-06
3.10196e-06
2.39599e-06
2.2273e-06
2.33421e-06
4.0987e-06
8.39576e-07
8.52548e-07
1.28961e-06
1.5585e-06
1.98692e-06
2.58735e-06
3.01261e-06
3.13292e-06
3.06571e-06
2.90775e-06
2.74265e-06
2.60747e-06
2.4981e-06
2.52504e-06
2.77386e-06
3.21624e-06
3.5276e-06
3.58612e-06
3.27132e-06
2.52067e-06
2.04932e-06
1.94651e-06
2.02216e-06
2.71839e-06
4.64792e-06
8.20582e-07
8.26973e-07
1.24475e-06
1.57786e-06
1.93995e-06
2.49163e-06
2.9837e-06
3.19949e-06
3.20142e-06
3.16796e-06
3.16157e-06
3.15036e-06
3.14987e-06
3.22524e-06
3.30479e-06
3.34051e-06
3.1145e-06
2.46141e-06
1.91962e-06
1.66278e-06
1.70411e-06
1.80642e-06
1.96547e-06
3.49615e-06
5.29268e-06
6.77385e-07
7.85077e-07
1.13613e-06
1.62538e-06
1.98901e-06
2.46109e-06
2.94757e-06
3.19736e-06
3.25679e-06
3.26403e-06
3.26649e-06
3.24891e-06
3.23543e-06
3.22731e-06
3.09445e-06
2.73399e-06
2.22313e-06
1.81152e-06
1.48905e-06
1.36465e-06
1.47182e-06
1.60047e-06
1.75241e-06
3.89712e-06
5.74352e-06
3.96474e-07
7.2912e-07
9.99659e-07
1.58371e-06
1.97738e-06
2.33844e-06
2.79603e-06
3.03493e-06
3.11622e-06
3.18116e-06
3.18712e-06
3.11416e-06
3.04642e-06
2.86295e-06
2.5688e-06
2.35557e-06
2.06795e-06
1.70172e-06
1.37845e-06
1.19475e-06
1.32596e-06
1.34258e-06
1.4736e-06
4.03571e-06
5.91208e-06
1.6765e-07
8.96355e-07
9.16442e-07
1.382e-06
1.83856e-06
2.16664e-06
2.54546e-06
2.79701e-06
2.80508e-06
2.76539e-06
2.7036e-06
2.63884e-06
2.57422e-06
2.47091e-06
2.36525e-06
2.23604e-06
1.97393e-06
1.73525e-06
1.42556e-06
1.12985e-06
1.1653e-06
1.11936e-06
1.70434e-06
4.20314e-06
6.01032e-06
4.11366e-08
1.19028e-06
9.39769e-07
1.1923e-06
1.62545e-06
1.93944e-06
2.1632e-06
2.36433e-06
2.43918e-06
2.42747e-06
2.3816e-06
2.35257e-06
2.32294e-06
2.28922e-06
2.23554e-06
2.16675e-06
2.051e-06
1.91334e-06
1.64339e-06
1.22632e-06
1.03017e-06
1.03187e-06
2.05204e-06
4.26807e-06
6.14662e-06
2.15748e-09
9.41775e-07
9.79904e-07
1.08476e-06
1.50214e-06
1.72449e-06
1.89489e-06
2.08282e-06
2.2158e-06
2.27323e-06
2.30696e-06
2.3292e-06
2.32208e-06
2.2989e-06
2.26284e-06
2.22333e-06
2.14752e-06
2.00092e-06
1.76116e-06
1.37729e-06
8.65674e-07
8.48662e-07
1.83176e-06
4.33815e-06
6.30368e-06
1.90361e-11
9.87543e-07
9.40656e-07
9.25513e-07
1.24536e-06
1.55366e-06
1.72149e-06
1.82755e-06
1.9552e-06
2.04588e-06
2.10474e-06
2.13866e-06
2.17754e-06
2.19061e-06
2.1394e-06
2.09236e-06
2.0123e-06
1.91659e-06
1.72416e-06
1.32064e-06
8.12042e-07
8.62427e-07
2.9351e-06
5.0852e-06
6.64071e-06
1.03715e-15
1.15957e-06
9.47298e-07
9.06034e-07
9.30479e-07
1.17247e-06
1.39817e-06
1.48908e-06
1.56964e-06
1.56144e-06
1.51912e-06
1.48344e-06
1.46069e-06
1.43698e-06
1.4368e-06
1.42956e-06
1.42197e-06
1.39996e-06
1.44842e-06
1.08067e-06
7.19112e-07
1.3573e-06
4.45346e-06
5.85287e-06
6.72634e-06
4.27025e-21
1.46202e-06
1.44203e-06
8.41031e-07
8.06686e-07
9.13877e-07
1.02804e-06
1.22561e-06
1.25935e-06
1.18821e-06
1.13413e-06
1.03864e-06
1.01782e-06
1.05008e-06
1.08202e-06
1.0941e-06
1.13172e-06
1.23842e-06
1.36843e-06
1.17803e-06
1.57383e-06
3.63629e-06
5.47488e-06
6.06312e-06
6.3545e-06
9.52281e-23
2.10508e-06
2.35151e-06
1.80873e-06
1.06838e-06
8.01785e-07
8.23855e-07
9.02029e-07
9.93224e-07
1.05593e-06
1.03904e-06
1.04363e-06
1.11207e-06
1.16607e-06
1.19375e-06
1.15582e-06
1.17388e-06
1.31993e-06
1.52293e-06
2.13121e-06
4.2091e-06
5.58406e-06
5.53938e-06
5.41872e-06
5.42193e-06
1.64441e-21
2.65185e-06
3.43579e-06
3.46624e-06
2.90117e-06
1.71793e-06
1.06074e-06
7.71352e-07
7.75654e-07
7.56882e-07
8.12607e-07
9.21711e-07
1.00076e-06
1.10581e-06
1.20829e-06
1.23837e-06
1.37992e-06
1.75244e-06
2.91038e-06
4.635e-06
5.65529e-06
5.24836e-06
4.93597e-06
4.70954e-06
4.79922e-06
4.04576e-06
4.02439e-06
4.07303e-06
4.1035e-06
3.7941e-06
3.41401e-06
2.26762e-06
1.28579e-06
8.63753e-07
7.37666e-07
6.71828e-07
7.70248e-07
9.34511e-07
1.08316e-06
1.23984e-06
1.39035e-06
1.92108e-06
3.63643e-06
4.81154e-06
5.35496e-06
5.10529e-06
4.82692e-06
4.69686e-06
4.52011e-06
4.41746e-06
4.35021e-06
4.24705e-06
4.19835e-06
4.16074e-06
4.10883e-06
3.65967e-06
3.23343e-06
1.89053e-06
1.08494e-06
8.48437e-07
7.56747e-07
8.47337e-07
9.92938e-07
1.1135e-06
1.3466e-06
1.88357e-06
3.57483e-06
4.8644e-06
5.35288e-06
5.34342e-06
4.99819e-06
4.83338e-06
4.6949e-06
4.61171e-06
4.50652e-06
4.28363e-06
4.28823e-06
4.27258e-06
4.2397e-06
4.18926e-06
3.74271e-06
3.2916e-06
2.09525e-06
1.09002e-06
8.50016e-07
7.84162e-07
9.08225e-07
1.04812e-06
1.22791e-06
1.75154e-06
3.22653e-06
4.78606e-06
5.37349e-06
5.7353e-06
5.54768e-06
5.31236e-06
5.06285e-06
4.71883e-06
4.45407e-06
4.48976e-06
4.32043e-06
4.16536e-06
4.30506e-06
4.37004e-06
4.28008e-06
3.88499e-06
3.20125e-06
1.92465e-06
1.09067e-06
8.86947e-07
9.2045e-07
1.01885e-06
1.12917e-06
1.62358e-06
2.80698e-06
4.30813e-06
5.16178e-06
5.77144e-06
6.0735e-06
5.82669e-06
5.41823e-06
4.90418e-06
4.54756e-06
4.29606e-06
4.38259e-06
4.23478e-06
3.95952e-06
4.22554e-06
4.30607e-06
4.3705e-06
3.88894e-06
2.99311e-06
1.7799e-06
1.14161e-06
1.0144e-06
1.06255e-06
1.05052e-06
1.1588e-06
1.66153e-06
2.93721e-06
4.40403e-06
5.15702e-06
5.91309e-06
5.89101e-06
5.56368e-06
5.0457e-06
4.58978e-06
4.12429e-06
3.91658e-06
4.15524e-06
3.90285e-06
3.68636e-06
3.93455e-06
4.12921e-06
4.15728e-06
3.73718e-06
2.77571e-06
1.75492e-06
1.1439e-06
1.09697e-06
1.14793e-06
1.07237e-06
1.0865e-06
1.53095e-06
2.742e-06
4.12257e-06
4.88888e-06
5.42314e-06
5.53827e-06
5.19771e-06
4.66265e-06
4.09703e-06
3.60792e-06
3.48427e-06
3.90345e-06
3.59534e-06
3.18525e-06
3.20922e-06
3.55332e-06
3.81161e-06
3.7701e-06
2.87501e-06
1.95223e-06
1.25446e-06
1.16833e-06
1.2141e-06
1.10038e-06
1.03818e-06
1.35048e-06
2.44454e-06
3.70221e-06
4.60039e-06
5.11858e-06
5.10173e-06
4.63219e-06
4.05878e-06
3.47283e-06
3.11008e-06
3.16377e-06
3.74182e-06
3.40734e-06
2.87865e-06
2.47895e-06
2.50388e-06
3.00154e-06
3.37826e-06
3.26396e-06
2.27267e-06
1.45451e-06
1.27515e-06
1.26273e-06
1.13334e-06
1.03713e-06
1.32346e-06
2.38281e-06
3.6132e-06
4.49994e-06
4.82209e-06
4.47783e-06
3.92933e-06
3.29311e-06
2.84593e-06
2.40718e-06
2.86069e-06
3.5648e-06
3.27853e-06
2.63625e-06
1.98857e-06
1.57303e-06
1.57835e-06
2.06692e-06
2.55161e-06
2.39137e-06
1.89277e-06
1.44926e-06
1.32152e-06
1.18177e-06
1.06959e-06
1.3699e-06
2.478e-06
3.70242e-06
4.45525e-06
4.26128e-06
3.66902e-06
2.97792e-06
2.45066e-06
1.9339e-06
1.98618e-06
2.66327e-06
3.49914e-06
3.14719e-06
2.34804e-06
1.65544e-06
1.14343e-06
1.00339e-06
1.0528e-06
1.26155e-06
1.66677e-06
1.71118e-06
1.66745e-06
1.46533e-06
1.31339e-06
1.22342e-06
1.62323e-06
2.74305e-06
3.67147e-06
4.10964e-06
3.29719e-06
2.53227e-06
1.98239e-06
1.50409e-06
1.43848e-06
1.70202e-06
2.51722e-06
3.50388e-06
3.13963e-06
2.17027e-06
1.36012e-06
1.0211e-06
9.36883e-07
8.88374e-07
9.08055e-07
1.041e-06
1.38143e-06
1.4646e-06
1.44775e-06
1.3985e-06
1.37523e-06
1.6562e-06
2.68067e-06
3.54867e-06
3.49655e-06
2.65037e-06
1.89486e-06
1.44698e-06
1.32788e-06
1.30603e-06
1.50131e-06
2.25735e-06
3.60542e-06
3.05898e-06
2.08536e-06
1.27897e-06
9.86239e-07
9.31986e-07
9.15301e-07
8.92539e-07
8.59106e-07
1.01009e-06
1.31797e-06
1.40784e-06
1.40178e-06
1.39845e-06
1.62791e-06
2.462e-06
3.13972e-06
3.24139e-06
2.62785e-06
1.93599e-06
1.56065e-06
1.34264e-06
1.26211e-06
1.40725e-06
2.1271e-06
3.74958e-06
2.98704e-06
2.04359e-06
1.25908e-06
9.82711e-07
9.37429e-07
9.3532e-07
9.44824e-07
9.69578e-07
1.03962e-06
1.15824e-06
1.28666e-06
1.3765e-06
1.40623e-06
1.57102e-06
2.11798e-06
2.6161e-06
2.69898e-06
2.61834e-06
2.03872e-06
1.65474e-06
1.36112e-06
1.25728e-06
1.36479e-06
2.08553e-06
3.72238e-06
2.84611e-06
2.2671e-06
1.52455e-06
1.09179e-06
1.00398e-06
9.85177e-07
9.99775e-07
1.02107e-06
1.07871e-06
1.14772e-06
1.23792e-06
1.31124e-06
1.35153e-06
1.43772e-06
1.84619e-06
2.03917e-06
2.05385e-06
1.97322e-06
1.78406e-06
1.51587e-06
1.22062e-06
1.14393e-06
1.36387e-06
2.33537e-06
3.58428e-06
2.85456e-06
2.42816e-06
2.19504e-06
1.5376e-06
1.29413e-06
1.22035e-06
1.15427e-06
1.07589e-06
1.06291e-06
1.07181e-06
1.14911e-06
1.23199e-06
1.29467e-06
1.36918e-06
1.51755e-06
1.54466e-06
1.5382e-06
1.48007e-06
1.34292e-06
1.12188e-06
1.03414e-06
1.1152e-06
1.71612e-06
2.57513e-06
3.44064e-06
2.97682e-06
2.43777e-06
2.51163e-06
2.61693e-06
2.49532e-06
2.27405e-06
2.14889e-06
1.9969e-06
1.78404e-06
1.50277e-06
1.33547e-06
1.24833e-06
1.22177e-06
1.24088e-06
1.27171e-06
1.25498e-06
1.21999e-06
1.15956e-06
1.06647e-06
1.01827e-06
1.12724e-06
1.48669e-06
2.27208e-06
2.79771e-06
3.43195e-06
3.57308e-06
2.46116e-06
1.91599e-06
2.23547e-06
2.4108e-06
2.42285e-06
2.35141e-06
2.23366e-06
2.19045e-06
2.3425e-06
2.39358e-06
2.22617e-06
2.06055e-06
1.9386e-06
1.8375e-06
1.74045e-06
1.60632e-06
1.47122e-06
1.28856e-06
1.30286e-06
1.52154e-06
2.15832e-06
2.5629e-06
3.06376e-06
3.59798e-06
4.74895e-06
3.73426e-06
2.44189e-06
1.64845e-06
1.70514e-06
1.80505e-06
1.6579e-06
1.3251e-06
1.30675e-06
1.39128e-06
1.68502e-06
2.03385e-06
2.15813e-06
2.21187e-06
2.21576e-06
2.18237e-06
2.08274e-06
1.69504e-06
1.44865e-06
1.58682e-06
2.08003e-06
2.58267e-06
3.18724e-06
3.71497e-06
4.20737e-06
6.48957e-06
5.57747e-06
4.35459e-06
2.83775e-06
1.79689e-06
1.41432e-06
1.21937e-06
1.18643e-06
1.26191e-06
1.36868e-06
1.45036e-06
1.64003e-06
1.85427e-06
2.08204e-06
2.31201e-06
2.31043e-06
2.02745e-06
1.8076e-06
1.76508e-06
2.3587e-06
3.15824e-06
4.07982e-06
4.84351e-06
5.2561e-06
5.4735e-06
8.87737e-06
7.96039e-06
6.81765e-06
5.3209e-06
3.52016e-06
2.01665e-06
1.37506e-06
1.3049e-06
1.42045e-06
1.58104e-06
1.71141e-06
1.81677e-06
2.02473e-06
2.2164e-06
2.3253e-06
2.24666e-06
2.13084e-06
2.40797e-06
3.26631e-06
4.29107e-06
5.37305e-06
6.16447e-06
6.58205e-06
6.74931e-06
6.75574e-06
1.13829e-05
1.07771e-05
9.92656e-06
8.69197e-06
6.96432e-06
4.86078e-06
2.90378e-06
1.88521e-06
1.59893e-06
1.74743e-06
1.92267e-06
2.06093e-06
2.20921e-06
2.31719e-06
2.40229e-06
2.55076e-06
3.2343e-06
4.1972e-06
5.079e-06
5.93444e-06
6.47405e-06
6.87741e-06
7.1217e-06
7.18832e-06
7.01853e-06
1.34079e-05
1.32595e-05
1.29149e-05
1.22279e-05
1.10838e-05
9.43651e-06
7.31652e-06
4.89678e-06
2.81262e-06
1.91172e-06
1.89819e-06
2.13953e-06
2.33859e-06
2.46404e-06
2.44651e-06
2.68176e-06
3.47422e-06
4.32477e-06
4.93207e-06
5.17659e-06
5.57123e-06
6.17145e-06
6.68118e-06
6.96833e-06
6.82173e-06
1.3831e-05
1.4339e-05
1.45966e-05
1.45553e-05
1.41267e-05
1.31994e-05
1.17241e-05
9.68967e-06
7.00385e-06
3.9408e-06
2.39318e-06
2.08097e-06
2.11665e-06
2.27312e-06
2.34321e-06
2.556e-06
3.14782e-06
3.64015e-06
3.61045e-06
3.15676e-06
3.24746e-06
4.10091e-06
5.28226e-06
6.15873e-06
6.38139e-06
1.37504e-05
1.46218e-05
1.52496e-05
1.55897e-05
1.56333e-05
1.53477e-05
1.45677e-05
1.31738e-05
1.11373e-05
8.40303e-06
5.12178e-06
2.978e-06
2.27928e-06
2.18425e-06
2.18846e-06
2.32114e-06
2.52843e-06
2.64623e-06
2.6349e-06
2.35956e-06
2.49876e-06
3.0249e-06
4.41188e-06
5.7089e-06
6.37505e-06
1.35818e-05
1.49441e-05
1.59355e-05
1.64345e-05
1.66489e-05
1.64751e-05
1.59876e-05
1.51086e-05
1.35609e-05
1.14157e-05
8.66014e-06
5.69158e-06
3.25552e-06
2.39166e-06
2.05928e-06
1.95931e-06
2.0488e-06
2.06226e-06
2.07111e-06
2.05213e-06
2.22304e-06
2.74828e-06
4.12624e-06
5.55257e-06
6.44468e-06
1.457e-05
1.60738e-05
1.69859e-05
1.73362e-05
1.74241e-05
1.71606e-05
1.66244e-05
1.58845e-05
1.47008e-05
1.29965e-05
1.07536e-05
8.14229e-06
5.51372e-06
3.27428e-06
2.31758e-06
1.99608e-06
1.8724e-06
1.8614e-06
1.86833e-06
1.88256e-06
2.16724e-06
3.02113e-06
4.31887e-06
5.59848e-06
6.46365e-06
1.66262e-05
1.74549e-05
1.77696e-05
1.7743e-05
1.75402e-05
1.71706e-05
1.66163e-05
1.58759e-05
1.48032e-05
1.33912e-05
1.15357e-05
9.32489e-06
6.95021e-06
4.63262e-06
2.86574e-06
2.21741e-06
2.02083e-06
1.97604e-06
2.03937e-06
2.28521e-06
2.82842e-06
3.73988e-06
4.76837e-06
5.80405e-06
6.60674e-06
1.81577e-05
1.85336e-05
1.83943e-05
1.79347e-05
1.73632e-05
1.67989e-05
1.62141e-05
1.55131e-05
1.45614e-05
1.3265e-05
1.16458e-05
9.75286e-06
7.71746e-06
5.68461e-06
4.01023e-06
3.05445e-06
2.78902e-06
2.83541e-06
3.21367e-06
3.78592e-06
4.35229e-06
4.89982e-06
5.48164e-06
6.14421e-06
6.83081e-06
1.99667e-05
1.97381e-05
1.89702e-05
1.79474e-05
1.70177e-05
1.62854e-05
1.56722e-05
1.50011e-05
1.41644e-05
1.30822e-05
1.17792e-05
1.03495e-05
8.89567e-06
7.51205e-06
6.42928e-06
5.82703e-06
5.63426e-06
5.72336e-06
5.94188e-06
6.10983e-06
6.1954e-06
6.24818e-06
6.37108e-06
6.61346e-06
7.12919e-06
2.20597e-05
2.12017e-05
1.98165e-05
1.827e-05
1.69333e-05
1.59654e-05
1.52609e-05
1.46388e-05
1.39568e-05
1.31563e-05
1.22558e-05
1.13434e-05
1.0504e-05
9.73865e-06
9.16232e-06
8.806e-06
8.58765e-06
8.4259e-06
8.24644e-06
7.99673e-06
7.6812e-06
7.36116e-06
7.14076e-06
7.10044e-06
7.41765e-06
2.52447e-05
2.35048e-05
2.14145e-05
1.93426e-05
1.75657e-05
1.62531e-05
1.53598e-05
1.47034e-05
1.4117e-05
1.35133e-05
1.28983e-05
1.23045e-05
1.18199e-05
1.14191e-05
1.10669e-05
1.07486e-05
1.04194e-05
1.00254e-05
9.56243e-06
9.02971e-06
8.45844e-06
7.93593e-06
7.5735e-06
7.46026e-06
7.6949e-06
2.93322e-05
2.62678e-05
2.36083e-05
2.13125e-05
1.93747e-05
1.78323e-05
1.67133e-05
1.59238e-05
1.53411e-05
1.49047e-05
1.45657e-05
1.43232e-05
1.41623e-05
1.40504e-05
1.39172e-05
1.36821e-05
1.33009e-05
1.27487e-05
1.20532e-05
1.12681e-05
1.04591e-05
9.70743e-06
9.12153e-06
8.87571e-06
9.18221e-06
3.2957e-05
2.78974e-05
2.53726e-05
2.36321e-05
2.22171e-05
2.10536e-05
2.01524e-05
1.95223e-05
1.91227e-05
1.89315e-05
1.89214e-05
1.90502e-05
1.92704e-05
1.94961e-05
1.96571e-05
1.9722e-05
1.96715e-05
1.95001e-05
1.92368e-05
1.88935e-05
1.84303e-05
1.77046e-05
1.67093e-05
1.60464e-05
1.7125e-05
2.32225e-05
2.54975e-05
2.63361e-05
2.63507e-05
2.5985e-05
2.55656e-05
2.52134e-05
2.50256e-05
2.4979e-05
2.50344e-05
2.5206e-05
2.54869e-05
2.58657e-05
2.62884e-05
2.67393e-05
2.72838e-05
2.79291e-05
2.87008e-05
2.9622e-05
3.06823e-05
3.16942e-05
3.20411e-05
3.13939e-05
2.95152e-05
2.73578e-05
3.27536e-05
3.43219e-05
3.44292e-05
3.38228e-05
3.31076e-05
3.26126e-05
3.22778e-05
3.21413e-05
3.2157e-05
3.22931e-05
3.25432e-05
3.29132e-05
3.34405e-05
3.40704e-05
3.47826e-05
3.57213e-05
3.69308e-05
3.86616e-05
4.11136e-05
4.43258e-05
4.78383e-05
5.04936e-05
5.23659e-05
5.62072e-05
7.02534e-05
7.85278e-05
5.54498e-05
4.66152e-05
4.1998e-05
4.01154e-05
3.9949e-05
4.04523e-05
4.11636e-05
4.16745e-05
4.20352e-05
4.22178e-05
4.22007e-05
4.2355e-05
4.27237e-05
4.33978e-05
4.44214e-05
4.58281e-05
4.789e-05
5.10013e-05
5.5687e-05
6.52394e-05
7.55663e-05
8.72887e-05
9.44055e-05
0.000133172
0.000139163
5.63854e-05
4.2971e-05
4.11142e-05
4.40067e-05
4.68077e-05
4.573e-05
4.29365e-05
4.00572e-05
3.67442e-05
3.38343e-05
2.96389e-05
2.53257e-05
2.33637e-05
2.25465e-05
1.88644e-05
1.68637e-05
1.93942e-05
2.95556e-05
3.97883e-05
5.18839e-05
6.07638e-05
7.52414e-05
8.03071e-05
8.38601e-05
0.000184853
7.42928e-05
4.01028e-05
3.55496e-05
3.27999e-05
2.68342e-05
2.23715e-05
1.74111e-05
1.43287e-05
1.05029e-05
8.12166e-06
4.06879e-06
1.56705e-06
4.16692e-07
4.30671e-07
9.15367e-08
7.43142e-08
8.72745e-08
7.42424e-07
3.11403e-06
2.83415e-06
4.3042e-06
1.20578e-05
3.12812e-05
0.000102856
0.000141383
5.82905e-05
2.7617e-05
2.25063e-05
1.57621e-05
1.06482e-05
7.90441e-06
4.82736e-06
3.42688e-06
1.75968e-06
1.0011e-06
2.51597e-07
2.44339e-08
1.47211e-08
1.7021e-08
1.76932e-08
1.76135e-08
1.76184e-08
1.76164e-08
1.75043e-08
1.98567e-08
2.82093e-07
4.12422e-06
1.43028e-05
4.8209e-05
7.3675e-05
3.63797e-05
1.96919e-05
1.66351e-05
8.05208e-06
5.42123e-06
2.41973e-06
1.16917e-06
5.26168e-07
1.62028e-07
3.90299e-08
1.2782e-08
1.24493e-08
1.31767e-08
1.50769e-08
1.77773e-08
1.84005e-08
1.84685e-08
1.82874e-08
1.76594e-08
1.8698e-08
1.08651e-07
2.45354e-06
1.01304e-05
2.63713e-05
5.93556e-05
3.20076e-05
1.81458e-05
1.37168e-05
5.62987e-06
3.30566e-06
1.06217e-06
3.02422e-07
5.77744e-08
1.76523e-08
1.25431e-08
1.20622e-08
1.21183e-08
1.3009e-08
1.43909e-08
1.71135e-08
1.79442e-08
1.79835e-08
1.79832e-08
1.73802e-08
1.94971e-08
1.02555e-07
1.24614e-06
5.79688e-06
1.80784e-05
3.59659e-05
2.23527e-05
1.29671e-05
6.87718e-06
2.87064e-06
1.41572e-06
5.58453e-07
2.23918e-07
3.21875e-08
1.60901e-08
1.57359e-08
1.58446e-08
1.58056e-08
1.65038e-08
1.81722e-08
1.91301e-08
1.90612e-08
1.90654e-08
1.90008e-08
1.87524e-08
1.56095e-08
2.57761e-08
8.07103e-07
3.65642e-06
1.47355e-05
)
;

boundaryField
{
    inlet
    {
        type            calculated;
        value           nonuniform List<scalar> 
25
(
2.02105e-08
2.02089e-08
2.0203e-08
2.01991e-08
2.01942e-08
2.01897e-08
2.01854e-08
2.01815e-08
2.01783e-08
2.01759e-08
2.01746e-08
2.01742e-08
2.01746e-08
2.01758e-08
2.01777e-08
2.01802e-08
2.01832e-08
2.01865e-08
2.01897e-08
2.01922e-08
2.01942e-08
2.01956e-08
2.01955e-08
2.01953e-08
2.01954e-08
)
;
    }
    outlet
    {
        type            calculated;
        value           nonuniform List<scalar> 
25
(
3.59659e-05
2.23528e-05
1.29673e-05
6.87723e-06
1.82979e-08
1.85702e-08
1.87285e-08
1.88549e-08
1.88549e-08
1.88549e-08
1.88549e-08
1.88549e-08
1.88549e-08
1.88549e-08
1.88549e-08
1.88549e-08
1.88549e-08
1.88549e-08
1.88549e-08
1.88549e-08
1.88549e-08
1.88549e-08
1.86975e-08
3.65645e-06
1.47355e-05
)
;
    }
    walls
    {
        type            nutkWallFunction;
        blending        stepwise;
        value           uniform 1e-08;
    }
    defaultFaces
    {
        type            empty;
    }
}


// ************************************************************************* //
