/*--------------------------------*- C++ -*----------------------------------*\
| =========                 |                                                 |
| \\      /  F ield         | OpenFOAM: The Open Source CFD Toolbox           |
|  \\    /   O peration     | Version:  2312                                  |
|   \\  /    A nd           | Website:  www.openfoam.com                      |
|    \\/     M anipulation  |                                                 |
\*---------------------------------------------------------------------------*/
FoamFile
{
    version     2.0;
    format      ascii;
    arch        "LSB;label=32;scalar=64";
    class       volScalarField;
    location    "0.7/water";
    object      nut.gas;
}
// * * * * * * * * * * * * * * * * * * * * * * * * * * * * * * * * * * * * * //

dimensions      [0 2 -1 0 0 0 0];

internalField   nonuniform List<scalar> 
1504
(
5.36492273885e-06
4.64541623866e-06
3.69434325431e-06
2.91528418522e-06
2.24132729723e-06
1.68225875938e-06
1.28626713767e-06
1.03081046546e-06
8.73633923783e-07
7.4459002902e-07
5.65298677318e-07
3.07040545572e-07
9.50458647246e-08
3.47247581114e-08
2.80981168237e-08
2.73972289842e-08
2.61098203848e-08
2.55142408419e-08
2.81970828087e-08
4.84291454089e-08
5.70284883503e-06
4.70117502634e-06
3.58499582683e-06
2.82561844462e-06
2.19174499522e-06
1.66900144658e-06
1.28771920314e-06
1.03342695854e-06
8.77935574462e-07
7.52494047527e-07
5.77217749631e-07
3.21922811965e-07
1.05408977887e-07
3.74629495073e-08
2.84255775371e-08
2.74474144559e-08
2.60152030389e-08
2.50033378938e-08
2.64823594994e-08
3.9033860342e-08
6.10110520803e-06
4.90836750054e-06
3.71438057245e-06
2.87940446287e-06
2.21735179891e-06
1.68627127472e-06
1.291197851e-06
1.02944686208e-06
8.75502266444e-07
7.5607739711e-07
5.88265009819e-07
3.39458827498e-07
1.19443329584e-07
4.16316402795e-08
2.90286598708e-08
2.75700382812e-08
2.60580164956e-08
2.47209817705e-08
2.52999383112e-08
3.3453091546e-08
6.54704549187e-06
5.47395379655e-06
4.16666439432e-06
3.11980558554e-06
2.33311021149e-06
1.73976547803e-06
1.30750762186e-06
1.02597059247e-06
8.67503963912e-07
7.54539410202e-07
5.97925367973e-07
3.59507982074e-07
1.37590543269e-07
4.77896587165e-08
3.00741902428e-08
2.77742867205e-08
2.62099544427e-08
2.4595145901e-08
2.45476986368e-08
2.9718845178e-08
6.75512195374e-06
5.87777374482e-06
4.61889819598e-06
3.48137713656e-06
2.56864973086e-06
1.87936908226e-06
1.37519728422e-06
1.04557873127e-06
8.64382788607e-07
7.50680082847e-07
6.05084933643e-07
3.78069300107e-07
1.55836728627e-07
5.5087433359e-08
3.16370549696e-08
2.80641071863e-08
2.64143235374e-08
2.45675221852e-08
2.40715177222e-08
2.72223650894e-08
6.78542734621e-06
6.07853875544e-06
4.93060802949e-06
3.81451004348e-06
2.84469989897e-06
2.06685811593e-06
1.48124105327e-06
1.09070233882e-06
8.73573374009e-07
7.48655038811e-07
6.0890998338e-07
3.91543860072e-07
1.70563311564e-07
6.18745212459e-08
3.33541037619e-08
2.83775350275e-08
2.66036417542e-08
2.4588593446e-08
2.3752832693e-08
2.55490836346e-08
6.6409506926e-06
6.10834382582e-06
5.08936961842e-06
4.03217418406e-06
3.05978890082e-06
2.22885427798e-06
1.58250571168e-06
1.14258322488e-06
8.91418225544e-07
7.49781008773e-07
6.08908776199e-07
3.96977396578e-07
1.78977391407e-07
6.6813390822e-08
3.48193874221e-08
2.8621306825e-08
2.67098106733e-08
2.46016047913e-08
2.35264219934e-08
2.4427699457e-08
6.4777147599e-06
6.03746283851e-06
5.11570705651e-06
4.11940829409e-06
3.16432578151e-06
2.31632328985e-06
1.64346077991e-06
1.18023835799e-06
9.08599394858e-07
7.51484551343e-07
6.04002006992e-07
3.92524859224e-07
1.79767147869e-07
6.9035171047e-08
3.56672407634e-08
2.86841005384e-08
2.6687556401e-08
2.45711798272e-08
2.33683174252e-08
2.36750798858e-08
6.30522814081e-06
5.89662156198e-06
5.02328200986e-06
4.07230333072e-06
3.14365304652e-06
2.31110102155e-06
1.64968558018e-06
1.19322600858e-06
9.17405064051e-07
7.49481748431e-07
5.92160165252e-07
3.77412815235e-07
1.72985290388e-07
6.82632804455e-08
3.5674042338e-08
2.84798035771e-08
2.65108679247e-08
2.45050000513e-08
2.32790506643e-08
2.31693945018e-08
6.20985684352e-06
5.69895510477e-06
4.78152565841e-06
3.86555628088e-06
2.99430173775e-06
2.21970612313e-06
1.60738552249e-06
1.18215125387e-06
9.14136253781e-07
7.4037612675e-07
5.70995388627e-07
3.51783316986e-07
1.59859073017e-07
6.486699157e-08
3.48299470786e-08
2.79826138769e-08
2.61702885283e-08
2.44135365504e-08
2.32535292249e-08
2.28631885895e-08
5.99949996962e-06
5.39743668015e-06
4.40093896697e-06
3.53416976428e-06
2.75715042759e-06
2.07718016232e-06
1.5385812715e-06
1.15442808166e-06
8.99281395861e-07
7.23074588666e-07
5.39161497105e-07
3.17868820417e-07
1.42960810576e-07
5.98246749733e-08
3.33640664951e-08
2.72267663389e-08
2.56671092367e-08
2.42926049471e-08
2.32383465828e-08
2.27252902428e-08
5.80480921829e-06
4.96875820493e-06
4.00215505472e-06
3.19582326528e-06
2.51308591156e-06
1.93191082152e-06
1.46637521304e-06
1.11824383724e-06
8.78061248438e-07
6.98646499316e-07
4.97646282336e-07
2.80515737115e-07
1.25677010838e-07
5.44175313787e-08
3.16198767271e-08
2.62757778954e-08
2.50277444292e-08
2.40975397356e-08
2.32037465124e-08
2.2664696412e-08
5.54066473561e-06
4.66242794684e-06
3.70448811992e-06
2.92129821271e-06
2.31222684789e-06
1.81566085337e-06
1.40478938545e-06
1.08562293573e-06
8.59955846083e-07
6.68415114073e-07
4.51274400076e-07
2.46055584331e-07
1.11075835691e-07
4.98444047328e-08
2.99518598644e-08
2.52281944574e-08
2.43052249263e-08
2.38161732434e-08
2.31632545279e-08
2.257326182e-08
5.20658797907e-06
4.34622354075e-06
3.42810888957e-06
2.70343463795e-06
2.17821433616e-06
1.74714082797e-06
1.37211213732e-06
1.07461267171e-06
8.49886866935e-07
6.34531505043e-07
4.09117275293e-07
2.2018464536e-07
1.01355734915e-07
4.70325511274e-08
2.87133235072e-08
2.42303326816e-08
2.35391017215e-08
2.34402258144e-08
2.30690122095e-08
2.24012465184e-08
4.78251268633e-06
3.92693026877e-06
3.15939140915e-06
2.58381221841e-06
2.1489582684e-06
1.7554413011e-06
1.38763525717e-06
1.08817913965e-06
8.43951635709e-07
6.04805803012e-07
3.81062562202e-07
2.06579502251e-07
9.80671822927e-08
4.67952165146e-08
2.83167192898e-08
2.3432954117e-08
2.27609626694e-08
2.2979701664e-08
2.29488376016e-08
2.22871436828e-08
4.35689687316e-06
3.6001352155e-06
3.10721390971e-06
2.68470658328e-06
2.28101254361e-06
1.84436645797e-06
1.43107845978e-06
1.10846833933e-06
8.42862860148e-07
5.94270748319e-07
3.75948527886e-07
2.08878576898e-07
1.02862052298e-07
4.9792353766e-08
2.90465456617e-08
2.29519872609e-08
2.20415380702e-08
2.24846382537e-08
2.28614548043e-08
2.23498175249e-08
4.29617275109e-06
3.8635383958e-06
3.5348946857e-06
3.0853800489e-06
2.52295092224e-06
1.94121584534e-06
1.47061671342e-06
1.13639472728e-06
8.65345300358e-07
6.17154542403e-07
3.99888975915e-07
2.29898936205e-07
1.16939065369e-07
5.64923414608e-08
3.11968788099e-08
2.30255555492e-08
2.14986150588e-08
2.20432625763e-08
2.28164467638e-08
2.26126575639e-08
5.10203043192e-06
4.8558094792e-06
4.367442354e-06
3.60153690117e-06
2.75793302622e-06
2.04029271826e-06
1.53941902327e-06
1.20243640926e-06
9.31593163289e-07
6.83775508674e-07
4.60236208408e-07
2.75971603871e-07
1.44566348943e-07
6.87426077752e-08
3.53638634686e-08
2.40864502793e-08
2.13267912766e-08
2.17812818032e-08
2.2848643846e-08
2.30693990043e-08
6.53328816099e-06
6.17558607183e-06
5.27099760789e-06
4.10549059538e-06
3.03550712349e-06
2.24315314448e-06
1.70994556845e-06
1.34674572517e-06
1.06097320186e-06
8.04123276658e-07
5.66195468823e-07
3.57033001641e-07
1.93543448521e-07
9.00223072922e-08
4.23301689346e-08
2.6340877755e-08
2.20274990205e-08
2.18612259158e-08
2.31130668741e-08
2.37471005668e-08
7.79361789149e-06
7.15562460605e-06
5.88264001967e-06
4.54959897647e-06
3.42878263995e-06
2.59995605928e-06
2.00135180728e-06
1.57952260203e-06
1.25272310084e-06
9.69727590393e-07
7.1119302302e-07
4.74318434327e-07
2.70432532718e-07
1.24944589242e-07
5.32595471276e-08
2.96938132115e-08
2.36736834812e-08
2.26519387598e-08
2.38135094506e-08
2.4628761197e-08
7.78406058269e-06
7.53306737051e-06
6.27960371275e-06
4.97674304457e-06
3.87155894741e-06
2.99432389435e-06
2.30804885069e-06
1.82712118078e-06
1.45559940994e-06
1.14071574496e-06
8.60588322419e-07
6.03114228931e-07
3.65052601133e-07
1.72769969439e-07
6.84785870298e-08
3.39116877173e-08
2.55756920798e-08
2.42593602908e-08
2.48869896293e-08
2.56752876559e-08
7.80837334286e-06
7.79612049305e-06
6.55948952711e-06
5.24157766856e-06
4.15539371731e-06
3.26947299273e-06
2.53493462101e-06
2.01014794971e-06
1.60146121453e-06
1.26724138664e-06
9.7616322633e-07
7.09554598864e-07
4.51043967414e-07
2.21233002439e-07
8.51111981353e-08
3.827757972e-08
2.70594320615e-08
2.56212413165e-08
2.60705069916e-08
2.68100806796e-08
7.82678176695e-06
7.90746596509e-06
6.596879738e-06
5.25195576659e-06
4.19862776817e-06
3.34234532011e-06
2.63185018059e-06
2.09012264225e-06
1.66654154648e-06
1.32975443219e-06
1.04205107942e-06
7.78307428692e-07
5.11364517286e-07
2.57832709859e-07
9.90455194529e-08
4.20339866552e-08
2.79235002559e-08
2.61596026449e-08
2.70369955598e-08
2.78597411916e-08
7.83939359733e-06
7.77041014102e-06
6.35155884467e-06
5.01254350032e-06
4.01982698687e-06
3.24699358212e-06
2.58262323808e-06
2.06126202456e-06
1.65397853446e-06
1.3322741977e-06
1.0611780277e-06
8.09550883542e-07
5.42705621845e-07
2.79080239642e-07
1.09015277234e-07
4.52137017735e-08
2.85312906337e-08
2.61184428919e-08
2.74183744488e-08
2.86507862502e-08
7.8877887376e-06
7.62011469578e-06
6.11539710104e-06
4.76796937002e-06
3.8313460095e-06
3.09126608659e-06
2.46854810772e-06
1.97570319613e-06
1.59222585976e-06
1.29275744771e-06
1.04541177484e-06
8.09839886096e-07
5.46030212381e-07
2.8261415222e-07
1.13281137559e-07
4.75207925103e-08
2.91436977547e-08
2.59353686579e-08
2.72873614652e-08
2.91275080702e-08
8.04805475115e-06
7.82229187551e-06
6.30871467082e-06
4.86181207208e-06
3.79554314337e-06
2.98603278979e-06
2.36269619071e-06
1.88136526844e-06
1.51211613842e-06
1.23307478482e-06
1.01068380319e-06
7.90387625467e-07
5.29665432779e-07
2.7257324585e-07
1.11683993928e-07
4.82338898381e-08
2.95151028126e-08
2.57681057409e-08
2.69605484984e-08
2.93669115497e-08
8.10719432084e-06
8.07428199207e-06
6.67681144276e-06
5.18303245152e-06
3.97361328509e-06
3.04798492863e-06
2.36032559061e-06
1.84469426349e-06
1.45850181127e-06
1.18040993375e-06
9.70933923994e-07
7.59577688058e-07
5.02907393834e-07
2.56576562481e-07
1.07450403745e-07
4.80661284873e-08
2.97197357324e-08
2.56566150218e-08
2.66277533369e-08
2.95029926498e-08
8.1738243475e-06
8.11902650854e-06
7.02137739056e-06
5.62441079071e-06
4.33918007317e-06
3.30092272084e-06
2.51373422514e-06
1.9185834314e-06
1.47308317001e-06
1.15964296283e-06
9.3662617861e-07
7.25455796451e-07
4.74809843095e-07
2.41117951228e-07
1.03420564277e-07
4.78307405294e-08
2.99257410439e-08
2.56323643762e-08
2.636200477e-08
2.9616552413e-08
8.09697785678e-06
7.96894390779e-06
7.1484417192e-06
5.93865514516e-06
4.69075825529e-06
3.60676608665e-06
2.74456843487e-06
2.06759942059e-06
1.54555364308e-06
1.16963823788e-06
9.12506388812e-07
6.96301006585e-07
4.51633999993e-07
2.29811378718e-07
1.01094954064e-07
4.80183851047e-08
3.02577086476e-08
2.57128934172e-08
2.62229388683e-08
2.97760128921e-08
7.60854172107e-06
7.50468812706e-06
6.92555122219e-06
5.95742847536e-06
4.84943710432e-06
3.81063987917e-06
2.93278889319e-06
2.2079944805e-06
1.62388561599e-06
1.18782451697e-06
8.98309343682e-07
6.77029811022e-07
4.36805257209e-07
2.24208115341e-07
1.01086402794e-07
4.88756415565e-08
3.07826123134e-08
2.59038257134e-08
2.62472327974e-08
3.00073671102e-08
6.92081811679e-06
6.83711643982e-06
6.44377192277e-06
5.71447520344e-06
4.7899544084e-06
3.85325985379e-06
3.00981437722e-06
2.27850780098e-06
1.66512586049e-06
1.19636031618e-06
8.92353925417e-07
6.69448490053e-07
4.31668758979e-07
2.2472987372e-07
1.03600394819e-07
5.05317241291e-08
3.15385917209e-08
2.61946420102e-08
2.63987400047e-08
3.02831850237e-08
6.19909545703e-06
6.03480396053e-06
5.7681126826e-06
5.25880504752e-06
4.53096702423e-06
3.72566464062e-06
2.95346044585e-06
2.25590196584e-06
1.65403512639e-06
1.19038345246e-06
8.94126473127e-07
6.73150374211e-07
4.35477029989e-07
2.30817553916e-07
1.08538783717e-07
5.30259668162e-08
3.25528498139e-08
2.65664028794e-08
2.65702356733e-08
3.04809257187e-08
5.67836050457e-06
5.40210232297e-06
5.10873948213e-06
4.71164260322e-06
4.13984922523e-06
3.46601475687e-06
2.78738246759e-06
2.15613909888e-06
1.60162181196e-06
1.17649489201e-06
9.05103267301e-07
6.86031029759e-07
4.4592912737e-07
2.41327253706e-07
1.15653635029e-07
5.63295892791e-08
3.3838011235e-08
2.70072374237e-08
2.66572212897e-08
3.04308773063e-08
5.20329135774e-06
4.86349799953e-06
4.51835323361e-06
4.16606065723e-06
3.70688794909e-06
3.15277463117e-06
2.57531398953e-06
2.02590670049e-06
1.53783936679e-06
1.17060514614e-06
9.28383810857e-07
7.05398793574e-07
4.6107772921e-07
2.55774193908e-07
1.25086620062e-07
6.05819185978e-08
3.55368523864e-08
2.75794387331e-08
2.66354959727e-08
3.00450338863e-08
4.81351481794e-06
4.43769923261e-06
4.04766413588e-06
3.72030476253e-06
3.34829613118e-06
2.89357496591e-06
2.40338485418e-06
1.92553794295e-06
1.50309648626e-06
1.1939879347e-06
9.67193480927e-07
7.30997783429e-07
4.82646835423e-07
2.76181700776e-07
1.38200357967e-07
6.67619077643e-08
3.81595261185e-08
2.84807222943e-08
2.66145256849e-08
2.94406864394e-08
4.58245962332e-06
4.14806704591e-06
3.76358869002e-06
3.48733990567e-06
3.18404089077e-06
2.78920630381e-06
2.34618601517e-06
1.91058588559e-06
1.53909217549e-06
1.26329064316e-06
1.02522613204e-06
7.70442839114e-07
5.19155705615e-07
3.08916399343e-07
1.59850264669e-07
7.76052688528e-08
4.27567769722e-08
3.01525622539e-08
2.68915982863e-08
2.89111115745e-08
4.47631303309e-06
4.07539462871e-06
3.79621459876e-06
3.57358004688e-06
3.27760654825e-06
2.87716457128e-06
2.43283046403e-06
2.01094497702e-06
1.66004397362e-06
1.37652641558e-06
1.11074687324e-06
8.41824226205e-07
5.87624883852e-07
3.68448175198e-07
2.00601112125e-07
9.82979200721e-08
5.1331355477e-08
3.35027270754e-08
2.7969240715e-08
2.88195445417e-08
4.75496118092e-06
4.47440085472e-06
4.24248729881e-06
3.95117359828e-06
3.56524087939e-06
3.10491880729e-06
2.63560538577e-06
6.8948541655e-06
5.0967422605e-06
3.3894835936e-06
2.27931234302e-06
1.81889392849e-06
1.87488717941e-06
2.2815175488e-06
2.84013385304e-06
3.37257837146e-06
3.77796010323e-06
4.01217057904e-06
4.05887392151e-06
3.9159169505e-06
3.59652968368e-06
3.16467327818e-06
2.82441764041e-06
2.87790836914e-06
3.8633222116e-07
4.42748995892e-06
6.84609716705e-06
6.24190872656e-06
4.5609803792e-06
3.03864084008e-06
2.1327339554e-06
1.8394981295e-06
2.01391648258e-06
2.48413734244e-06
3.05312665513e-06
3.56503493413e-06
3.93803412267e-06
4.13724012595e-06
4.15052628924e-06
3.97752670562e-06
3.63051543806e-06
3.16793891702e-06
2.79285091298e-06
2.84073998956e-06
1.83228436201e-07
3.2376067841e-06
6.07468052851e-06
5.61480087884e-06
4.07126964988e-06
2.74719797164e-06
2.03996433427e-06
1.90154003578e-06
2.18088425071e-06
2.69983763282e-06
3.26945401871e-06
3.75692151539e-06
4.09641944839e-06
4.26063342792e-06
4.24099245761e-06
4.03878886745e-06
3.66549426305e-06
3.17323092172e-06
2.7598935382e-06
2.79239474699e-06
1.1747462807e-07
2.0339014472e-06
5.31983959147e-06
5.02232854395e-06
3.63549587131e-06
2.51703344684e-06
1.99917204885e-06
2.002792618e-06
2.37271822487e-06
2.92622277169e-06
3.48831498969e-06
3.94818505947e-06
4.25329265639e-06
4.38256398459e-06
4.33044899511e-06
4.09981941401e-06
3.7016390475e-06
3.1812329736e-06
2.72681189843e-06
2.7318218167e-06
8.6700829246e-08
1.05528170615e-06
4.57314361802e-06
4.47228192666e-06
3.2594239881e-06
2.34818590869e-06
2.00832929649e-06
2.14095439292e-06
2.58644673004e-06
3.16145232199e-06
3.70922682262e-06
4.1388816727e-06
4.40885278416e-06
4.50323656574e-06
4.41905889125e-06
4.16071776749e-06
3.73908127072e-06
3.19264335373e-06
2.69541541745e-06
2.65965826551e-06
5.43289518491e-08
4.9168320626e-07
3.82801576874e-06
3.97205101185e-06
2.94685794475e-06
2.23964163256e-06
2.065531491e-06
2.31358164083e-06
2.81927296478e-06
3.40408135172e-06
3.93183011783e-06
4.32904258939e-06
4.56323017688e-06
4.62278960274e-06
4.50694339989e-06
4.22156705621e-06
3.77792376664e-06
3.20811980114e-06
2.66776935287e-06
2.57808343547e-06
4.01890568061e-08
2.48468733229e-07
3.08639336662e-06
3.52838495427e-06
2.7003152183e-06
2.19008254821e-06
2.16893424822e-06
2.51787855708e-06
3.06846492729e-06
3.65277960976e-06
4.15567287959e-06
4.51854359902e-06
4.71641434432e-06
4.74126535809e-06
4.5941860607e-06
4.28246945088e-06
3.81829269993e-06
3.22828690249e-06
2.64611370759e-06
2.49067480454e-06
3.32710076603e-08
1.49982811353e-07
2.36785404079e-06
3.14635115162e-06
2.52141949384e-06
2.19807773458e-06
2.31628714394e-06
2.7504254722e-06
3.33116085307e-06
3.90607876732e-06
4.38007004983e-06
4.70704792814e-06
4.86824777567e-06
4.85863596252e-06
4.68088149331e-06
4.34361534232e-06
3.86042250835e-06
3.25377728588e-06
2.63275339327e-06
2.40196004592e-06
2.87126475377e-08
1.03020805777e-07
1.71406644564e-06
2.82901486989e-06
2.41066048648e-06
2.26167426562e-06
2.5043364505e-06
3.00703580299e-06
3.60426773189e-06
4.16228997053e-06
4.60411858676e-06
4.89407154616e-06
5.01851139062e-06
4.97489387366e-06
4.76722322739e-06
4.40536884961e-06
3.90474357097e-06
3.28528688206e-06
2.62996578889e-06
2.31679673104e-06
2.58491699166e-08
7.52299805122e-08
1.17510716476e-06
2.57771078101e-06
2.36682560856e-06
2.37780481228e-06
2.72853242224e-06
3.28294488761e-06
3.88461081335e-06
4.41966824423e-06
4.82689200297e-06
5.07916745936e-06
5.16708068077e-06
5.09017464863e-06
4.8535953322e-06
4.46833873331e-06
3.95195696902e-06
3.32365192324e-06
2.6399899881e-06
2.23985763375e-06
2.41829279002e-08
5.72365181996e-08
7.76596434962e-07
2.38922649796e-06
2.38669008798e-06
2.54208709497e-06
2.98336697299e-06
3.57338405463e-06
4.16933751048e-06
4.6767543795e-06
5.04772274327e-06
5.26213501048e-06
5.31406420205e-06
5.20483431318e-06
4.94060187189e-06
4.53338088005e-06
4.00304602732e-06
3.36990449541e-06
2.66510027685e-06
2.17538754552e-06
2.32983015938e-08
4.45281453325e-08
4.97742626419e-07
2.24953559134e-06
2.46506461274e-06
2.74919316677e-06
3.26318423441e-06
3.87425972257e-06
4.45632335648e-06
4.93265601149e-06
5.26638258049e-06
5.44311486175e-06
5.45983278198e-06
5.31943175223e-06
5.02902090836e-06
4.60154534929e-06
4.05925514034e-06
3.42533155528e-06
2.70773954021e-06
2.12733792349e-06
2.28459156222e-08
3.24368382246e-08
3.04938693532e-07
2.12829243921e-06
2.59481402353e-06
2.99351818062e-06
3.5629968013e-06
4.18259172836e-06
4.74435247492e-06
5.18712575284e-06
5.48309651678e-06
5.62256288059e-06
5.60497266505e-06
5.43467602232e-06
5.11975784313e-06
4.67405041972e-06
4.12211246176e-06
3.4915983509e-06
2.77081457676e-06
2.09985589504e-06
2.26266969996e-08
2.68643941788e-08
1.78347531884e-07
1.97750427434e-06
2.76657891298e-06
3.27004683405e-06
3.87919237767e-06
4.49673411645e-06
5.03312918204e-06
5.44050730209e-06
5.69846566797e-06
5.80117066223e-06
5.75021608076e-06
5.55137559033e-06
5.2138229672e-06
4.75230216875e-06
4.193519637e-06
3.57095492651e-06
2.85807258968e-06
2.0980918839e-06
2.26078064797e-08
2.60205447586e-08
1.06224640486e-07
1.74189308062e-06
2.9668077152e-06
3.57423680879e-06
4.20937729535e-06
4.81595704356e-06
5.32285315495e-06
5.69338176449e-06
5.91319000016e-06
5.97965668334e-06
5.89629325133e-06
5.67035119123e-06
5.31231540357e-06
4.83797151208e-06
4.27595679017e-06
3.66663165925e-06
2.97474068973e-06
2.12939938605e-06
2.26911885364e-08
2.60528227416e-08
7.5083002213e-08
1.37033362715e-06
3.16941505353e-06
3.89954099086e-06
4.55088153864e-06
5.13934926203e-06
5.61347865046e-06
5.94609317437e-06
6.12777748363e-06
6.15860193361e-06
6.04386399671e-06
5.79245989813e-06
5.41656523183e-06
4.93330704001e-06
4.37304720188e-06
3.78375990754e-06
3.12879820603e-06
2.20521233847e-06
2.29123183365e-08
2.6536032254e-08
6.36596196642e-08
8.60916445013e-07
3.31158599867e-06
4.23403330572e-06
4.89988994648e-06
5.46569055362e-06
5.90487747575e-06
6.1990192176e-06
6.34284203548e-06
6.33874119505e-06
6.19379397732e-06
5.91887170594e-06
5.52845449036e-06
5.04158322381e-06
4.49028266185e-06
3.9306894763e-06
3.33318034843e-06
2.34423231868e-06
2.32829462291e-08
2.73020292451e-08
4.58565919757e-08
4.06434924941e-07
3.21854845778e-06
4.55558537273e-06
5.25183860762e-06
5.79477592994e-06
6.19813789187e-06
6.4536364899e-06
6.55991998743e-06
6.52153655534e-06
6.34745255819e-06
6.05100118199e-06
5.64986301791e-06
5.1660448006e-06
4.63390003211e-06
4.11923243453e-06
3.60955145517e-06
2.57917709736e-06
2.37930940832e-08
2.8440050842e-08
4.56825701399e-08
2.15372067364e-07
2.51865841809e-06
4.81325236942e-06
5.59987127002e-06
6.12763864361e-06
6.49603683569e-06
6.71280452564e-06
6.78141583546e-06
6.70856370556e-06
6.5049877975e-06
6.18650611933e-06
5.77447503286e-06
5.29543622673e-06
4.78988477289e-06
4.34218749612e-06
3.97780676084e-06
2.96668862975e-06
2.45870815396e-08
2.99490247801e-08
4.75450016716e-08
1.69870633832e-07
1.27211508146e-06
4.82045575203e-06
5.92676929604e-06
6.46256899122e-06
6.80095974518e-06
6.97961721723e-06
7.0100991085e-06
6.90184711008e-06
6.66729184189e-06
6.32461184299e-06
5.89938425235e-06
5.42542637047e-06
4.95703893552e-06
4.61465886892e-06
4.49766884603e-06
3.62546586194e-06
2.57131400856e-08
3.18589422541e-08
5.03140807042e-08
1.16359985977e-07
5.53579593627e-07
3.99623042974e-06
6.17932691954e-06
6.78866116566e-06
7.11173610274e-06
7.25605979828e-06
7.24885465847e-06
7.10450359136e-06
6.83767451835e-06
6.46909834628e-06
6.02942112414e-06
5.56345597266e-06
5.1512079231e-06
4.98251986333e-06
5.30904024087e-06
4.8390822284e-06
2.71052977227e-08
3.41578096306e-08
5.38139655838e-08
1.11029265456e-07
3.82948849286e-07
2.19514072268e-06
6.13821112958e-06
7.07781948162e-06
7.41937956743e-06
7.54104794033e-06
7.4998717241e-06
7.32032874979e-06
7.02125390186e-06
6.62684396856e-06
6.17379258423e-06
5.71973405738e-06
5.37085505385e-06
5.37741609626e-06
6.21178529172e-06
6.8786232907e-06
2.86377648481e-08
3.67105612342e-08
5.82404743547e-08
1.10635583168e-07
2.72981401906e-07
9.61591379113e-07
5.09504379359e-06
7.2588392194e-06
7.70061044445e-06
7.82646815546e-06
7.76235041621e-06
7.55220870916e-06
7.22320276658e-06
6.80509454857e-06
6.34219777838e-06
5.90604207187e-06
5.61602923628e-06
5.66286181545e-06
6.29894011155e-06
7.94208988109e-06
3.01524542092e-08
3.93888235579e-08
6.33782829636e-08
1.13933355427e-07
2.19542486535e-07
6.01030827645e-07
2.84669410383e-06
7.06196275993e-06
7.91060692209e-06
8.08978476011e-06
8.02545324082e-06
7.7942254936e-06
7.43752004152e-06
6.9918126027e-06
6.50533377701e-06
6.05250121703e-06
5.74108786666e-06
5.64935763295e-06
5.62519698604e-06
5.65840665032e-06
3.15088574778e-08
4.20457305482e-08
6.88676122282e-08
1.19637236303e-07
2.08605917937e-07
4.59545448339e-07
1.23656405622e-06
5.66242643312e-06
7.94870323939e-06
8.28080074506e-06
8.25020592343e-06
8.00809401756e-06
7.61498931816e-06
7.10963628114e-06
6.52454052154e-06
5.89108174337e-06
5.24446154624e-06
4.63464230399e-06
4.08380030611e-06
3.53086096638e-06
3.26597399564e-08
4.46003756171e-08
7.42732671459e-08
1.27531891751e-07
2.07382182883e-07
3.3068830368e-07
7.55222096634e-07
2.98690096941e-06
7.4208255404e-06
8.3201071861e-06
8.367465951e-06
8.12686945051e-06
7.68633054572e-06
7.09118941945e-06
6.36752590894e-06
5.53158756752e-06
4.61368084723e-06
3.70627751192e-06
2.97563710953e-06
2.53217539105e-06
3.37315285071e-08
4.69482689081e-08
7.96836083258e-08
1.36357846616e-07
2.11280727736e-07
3.10245259977e-07
5.87423170748e-07
1.30106598435e-06
5.37387021026e-06
8.04174534592e-06
8.30374970446e-06
8.08670856198e-06
7.60862478893e-06
6.93241146806e-06
6.08975052246e-06
5.11468720662e-06
4.07471788804e-06
3.09413042759e-06
2.40237359086e-06
2.17150768106e-06
3.4977231717e-08
4.9339361681e-08
8.49508030964e-08
1.45316475903e-07
2.18183058675e-07
3.02426131564e-07
4.16464488992e-07
8.31324974941e-07
2.62206212411e-06
6.89736193514e-06
7.95777561264e-06
7.76346864708e-06
7.21656046845e-06
6.42913658693e-06
5.49392084025e-06
4.51520015063e-06
3.57263722372e-06
2.77511777792e-06
2.30263849477e-06
2.28747908839e-06
3.63175168532e-08
5.24232510956e-08
8.97802544655e-08
1.54138827981e-07
2.27332014486e-07
3.02114280535e-07
3.8989420043e-07
6.66842675396e-07
1.24103199042e-06
4.41247317843e-06
7.02966969034e-06
6.94416831434e-06
6.24558243532e-06
5.39938618739e-06
4.58435561888e-06
3.86187140032e-06
3.25780939423e-06
2.81306307789e-06
2.63953962365e-06
2.83329166128e-06
3.77022111377e-08
5.59267550779e-08
9.54737115212e-08
1.61834048975e-07
2.36721088658e-07
3.0483747779e-07
3.7706117264e-07
4.72598388801e-07
8.48175979278e-07
2.10161232538e-06
5.09036098334e-06
5.5938482874e-06
4.90057619167e-06
4.24271661514e-06
3.74996251395e-06
3.41748863177e-06
3.21179360895e-06
3.12761769285e-06
3.24480862858e-06
3.64171055664e-06
3.90719109894e-08
5.94985998608e-08
1.01500117505e-07
1.68979658638e-07
2.44733249436e-07
3.09647960894e-07
3.71192148652e-07
4.41831161559e-07
6.93762758976e-07
1.03227208774e-06
2.68038553029e-06
3.90195561522e-06
3.61004935437e-06
3.23154401697e-06
3.0855266889e-06
3.14152668903e-06
3.31921553136e-06
3.5685103907e-06
3.94245687693e-06
4.51068083439e-06
4.02238191973e-08
6.25786683507e-08
1.06889541169e-07
1.75004060828e-07
2.48587437024e-07
3.11740036815e-07
3.61956221034e-07
4.11586330127e-07
4.61416887483e-07
6.67610381512e-07
1.11398221289e-06
2.23932751029e-06
2.61007573516e-06
2.52700034328e-06
2.61738549672e-06
2.96855756024e-06
3.49389617346e-06
4.0742865128e-06
4.69856760339e-06
5.40113491896e-06
4.0793106445e-08
6.44812044607e-08
1.10418412486e-07
1.78362433397e-07
2.47665996108e-07
3.04228159545e-07
3.4949346038e-07
3.82341694899e-07
4.03022731633e-07
5.00349086235e-07
5.55397989427e-07
1.0101459234e-06
1.87838076754e-06
2.23721648081e-06
2.38908388598e-06
2.84160388359e-06
3.65226984945e-06
4.62292870319e-06
5.57779247316e-06
6.42659584714e-06
4.06004970001e-08
6.46189383195e-08
1.11220850264e-07
1.77840307558e-07
2.42065977527e-07
2.91750188843e-07
3.26520439381e-07
3.51597540026e-07
3.74751854476e-07
3.82071904329e-07
4.38630818099e-07
4.53054878647e-07
6.38335043843e-07
1.93440290073e-06
2.3477867641e-06
2.68247443459e-06
3.56432593111e-06
4.95855210059e-06
6.50630466939e-06
7.72670845093e-06
3.9718296108e-08
6.27221080016e-08
1.09181113069e-07
1.73212807775e-07
2.3207926191e-07
2.76615387826e-07
3.05870592166e-07
3.2326427495e-07
3.32047300146e-07
3.39127000324e-07
3.46015255952e-07
3.34102303692e-07
3.12595372618e-07
4.96122334191e-07
1.96391297915e-06
2.34790913866e-06
2.68338400275e-06
3.70708756875e-06
5.22332886342e-06
8.84435136203e-06
3.84754023466e-08
5.98841345861e-08
1.04393519887e-07
1.64949184827e-07
2.18853594063e-07
2.58822529792e-07
2.84923019161e-07
2.99816986818e-07
3.06764317663e-07
3.09604029579e-07
3.10903187197e-07
3.12153896217e-07
3.12669750697e-07
3.20912118338e-07
4.62330463997e-07
1.04264810653e-06
1.63826843063e-06
1.72929173815e-06
2.36781902936e-06
6.30747872981e-06
3.72596124584e-08
5.72622256921e-08
9.78014593452e-08
1.53786510286e-07
2.03850541213e-07
2.40132904308e-07
2.63556493782e-07
2.77353207781e-07
2.83275742323e-07
2.84377683715e-07
2.82914185528e-07
2.81147133016e-07
2.83663216851e-07
2.97261258726e-07
3.23405890086e-07
3.61794260731e-07
5.90515411836e-07
1.05578289149e-06
1.61062214998e-06
3.46024872411e-06
3.64314831905e-08
5.53556232617e-08
9.19429842445e-08
1.41209102948e-07
1.88210204177e-07
2.23133088758e-07
2.45554892378e-07
2.58461007788e-07
2.64165863487e-07
2.64878290923e-07
2.6344569895e-07
2.64315298367e-07
2.73308507096e-07
2.96861144528e-07
3.38053056456e-07
3.82561389877e-07
4.0576093782e-07
4.46087174987e-07
7.80249201851e-07
2.2826855903e-06
)
;

boundaryField
{
    emptyPatch
    {
        type            empty;
    }
    minY
    {
        type            calculated;
        value           nonuniform List<scalar> 0();
    }
    maxY
    {
        type            calculated;
        value           nonuniform List<scalar> 0();
    }
    maxX
    {
        type            nutkWallFunction;
        blending        stepwise;
        value           uniform 0;
    }
    water_to_heater
    {
        type            nutkWallFunction;
        blending        stepwise;
        value           uniform 0;
    }
    procBoundary3to1
    {
        type            processor;
        value           nonuniform List<scalar> 
41
(
2.20563569738e-06
1.84188221707e-06
1.53112467427e-06
1.24303948984e-06
9.6677327688e-07
7.07297099278e-07
4.72455375924e-07
2.75196265389e-07
1.38223889611e-07
6.77427227578e-08
4.0167728223e-08
3.05115755528e-08
2.95082772792e-08
5.50981861257e-06
5.23718737406e-06
4.85613150001e-06
4.39838047309e-06
3.9019522786e-06
3.3971438522e-06
2.20563569738e-06
2.91565097923e-06
3.62618648539e-08
5.42775477665e-08
8.78844016633e-08
1.31981366339e-07
1.74924583736e-07
2.09691273687e-07
2.33562909051e-07
2.46745785619e-07
2.51269525727e-07
2.5204404039e-07
2.57124349926e-07
2.75746411213e-07
3.16314649851e-07
3.80292914727e-07
4.41197288578e-07
4.41000034895e-07
3.87246904039e-07
3.72503236996e-07
5.27978032726e-07
1.38611859659e-06
)
;
    }
    procBoundary3to2
    {
        type            processor;
        value           nonuniform List<scalar> 
41
(
4.77431025112e-06
4.30035111563e-06
3.62088741278e-06
2.92618632951e-06
2.25266635596e-06
1.6848071357e-06
1.28050478259e-06
1.02309491131e-06
8.63810456944e-07
7.30610966998e-07
5.47357685786e-07
2.89279030336e-07
8.59086948996e-08
3.27504546942e-08
2.78977696347e-08
2.74167035738e-08
2.63460835054e-08
2.6287876851e-08
3.05156371156e-08
7.83863609743e-08
7.564532787e-06
5.66958573092e-06
3.7959001669e-06
2.48094265808e-06
1.84186969353e-06
1.76674692117e-06
2.09486932518e-06
2.63168613769e-06
3.17978124892e-06
3.61609899672e-06
3.8852483485e-06
3.96587873863e-06
3.85384171461e-06
3.56328549922e-06