/*--------------------------------*- C++ -*----------------------------------*\
| =========                 |                                                 |
| \\      /  F ield         | OpenFOAM: The Open Source CFD Toolbox           |
|  \\    /   O peration     | Version:  2312                                  |
|   \\  /    A nd           | Website:  www.openfoam.com                      |
|    \\/     M anipulation  |                                                 |
\*---------------------------------------------------------------------------*/
FoamFile
{
    version     2.0;
    format      ascii;
    arch        "LSB;label=32;scalar=64";
    class       volScalarField;
    location    "0.885/water";
    object      nut.gas;
}
// * * * * * * * * * * * * * * * * * * * * * * * * * * * * * * * * * * * * * //

dimensions      [0 2 -1 0 0 0 0];

internalField   nonuniform List<scalar> 
1504
(
5.27686325364e-06
4.56712635317e-06
3.59391426703e-06
2.80305848669e-06
2.13644919323e-06
1.61138231298e-06
1.24961089009e-06
1.01200031425e-06
8.54204345819e-07
7.15333856265e-07
5.28312975373e-07
2.77808596961e-07
8.53109597393e-08
3.35377898771e-08
2.81510147382e-08
2.73408091274e-08
2.61692093242e-08
2.57957946999e-08
2.8720318402e-08
5.35783851605e-08
5.86665472804e-06
4.72019150586e-06
3.45933191154e-06
2.69744551808e-06
2.09097568712e-06
1.60617556019e-06
1.26212481087e-06
1.02458895478e-06
8.65886555339e-07
7.31199827548e-07
5.49659719502e-07
2.98779558511e-07
9.56617990809e-08
3.57841169497e-08
2.83837312476e-08
2.73703939366e-08
2.6010972324e-08
2.51703525371e-08
2.69239158258e-08
3.99997585836e-08
6.46579567465e-06
5.02690392562e-06
3.54186814793e-06
2.68824315728e-06
2.08847368127e-06
1.62427015422e-06
1.28182614033e-06
1.03478988437e-06
8.7282730541e-07
7.43148716966e-07
5.6957363835e-07
3.21972768125e-07
1.0956432981e-07
3.92683284437e-08
2.88410990004e-08
2.74945765987e-08
2.6004572763e-08
2.47883744372e-08
2.55913209228e-08
3.42145601152e-08
6.74693116775e-06
5.60572558432e-06
4.0983153847e-06
2.95247174711e-06
2.19666517438e-06
1.67168188123e-06
1.29939803625e-06
1.03783090686e-06
8.72830813976e-07
7.5010490149e-07
5.88706640002e-07
3.49370961245e-07
1.28928073039e-07
4.48418008947e-08
2.97133032989e-08
2.77092779875e-08
2.61368505956e-08
2.46044467095e-08
2.46883650827e-08
3.02614769008e-08
6.99033503094e-06
6.08827413659e-06
4.68870107718e-06
3.40228749745e-06
2.42170289924e-06
1.76746678756e-06
1.33504636506e-06
1.04671238029e-06
8.70708600269e-07
7.51363511879e-07
6.03544129916e-07
3.77202182012e-07
1.52846315701e-07
5.30774030312e-08
3.1219466988e-08
2.80225922835e-08
2.63693288843e-08
2.45643943262e-08
2.41160007518e-08
2.75698804701e-08
7.03528055155e-06
6.3821592334e-06
5.1396869439e-06
3.85774509079e-06
2.75932233439e-06
1.96075080486e-06
1.42700234992e-06
1.08227133768e-06
8.78128936378e-07
7.51989389505e-07
6.13544432188e-07
4.00105270632e-07
1.75426362268e-07
6.2514876171e-08
3.33924890052e-08
2.84340391444e-08
2.66402829432e-08
2.46179776952e-08
2.3746915063e-08
2.57371871062e-08
6.9204857355e-06
6.48306342245e-06
5.41088495896e-06
4.19522144249e-06
3.06774074761e-06
2.17580298874e-06
1.54749394707e-06
1.13802042046e-06
8.97270249805e-07
7.55800676822e-07
6.19303569013e-07
4.15279180231e-07
1.92375494964e-07
7.07931938288e-08
3.56412522119e-08
2.88517295075e-08
2.68677940394e-08
2.47065639629e-08
2.3497664695e-08
2.44915516796e-08
6.73883518274e-06
6.46521986423e-06
5.52688030796e-06
4.38638558385e-06
3.27506615973e-06
2.34203964258e-06
1.65073768858e-06
1.19139448905e-06
9.19937629888e-07
7.61563104749e-07
6.20743604299e-07
4.20804371175e-07
2.0100839435e-07
7.62542797406e-08
3.73968531707e-08
2.9145430594e-08
2.6979439081e-08
2.47535672774e-08
2.3322999258e-08
2.36470007604e-08
6.61173826331e-06
6.40429116993e-06
5.53731336179e-06
4.45317235252e-06
3.37262975556e-06
2.42821848684e-06
1.70727428855e-06
1.22383768077e-06
9.36319947736e-07
7.65012553565e-07
6.16561937147e-07
4.15574116452e-07
2.00419836419e-07
7.80262354911e-08
3.82235016059e-08
2.91858913582e-08
2.69241128081e-08
2.47217948631e-08
2.32212140162e-08
2.30878678723e-08
6.48212655121e-06
6.29914455964e-06
5.45775713359e-06
4.41242889386e-06
3.35753565493e-06
2.42498299492e-06
1.70895217561e-06
1.22971581402e-06
9.41199848858e-07
7.62119753834e-07
6.04739415459e-07
3.99039742514e-07
1.91089753718e-07
7.60849702083e-08
3.79368580023e-08
2.88927348835e-08
2.66770149551e-08
2.46372959564e-08
2.31953867809e-08
2.27466909841e-08
6.40211035161e-06
6.16967679441e-06
5.29727350533e-06
4.25483839742e-06
3.23373864811e-06
2.34438064013e-06
1.66689494245e-06
1.21428561832e-06
9.33795578786e-07
7.5086874129e-07
5.83684796647e-07
3.71873139817e-07
1.75034800527e-07
7.12550239165e-08
3.66680411181e-08
2.82738342758e-08
2.62516594614e-08
2.45226249632e-08
2.31952183817e-08
2.25850106887e-08
6.22216901224e-06
5.94292857233e-06
5.00967554388e-06
3.9920564339e-06
3.03200302474e-06
2.21643634371e-06
1.60179921438e-06
1.18535448127e-06
9.15652527718e-07
7.32031796662e-07
5.52986854565e-07
3.36424193548e-07
1.55319162737e-07
6.48403085751e-08
3.4756293524e-08
2.73911241837e-08
2.56702607011e-08
2.43397802457e-08
2.31819562033e-08
2.25349371057e-08
6.03656250493e-06
5.56834028339e-06
4.64561305953e-06
3.67841685362e-06
2.80136191382e-06
2.07609807635e-06
1.53074346173e-06
1.14750307377e-06
8.91424297767e-07
7.08044555522e-07
5.13219900887e-07
2.9690819554e-07
1.35312061983e-07
5.8192473599e-08
3.25948399281e-08
2.63241168421e-08
2.49678464184e-08
2.40931081443e-08
2.31824467676e-08
2.25133370257e-08
5.72716728294e-06
5.2064478751e-06
4.2969457065e-06
3.37357786186e-06
2.58114561333e-06
1.94674986743e-06
1.46083882605e-06
1.10848808636e-06
8.70387501085e-07
6.80273615298e-07
4.67405544008e-07
2.59156059919e-07
1.18032430833e-07
5.24909551281e-08
3.05649247921e-08
2.51909685113e-08
2.42094574201e-08
2.37830427978e-08
2.31601410176e-08
2.2428902428e-08
5.35380356402e-06
4.82069184906e-06
3.94023877708e-06
3.08508668867e-06
2.39320692972e-06
1.84173155995e-06
1.40628650443e-06
1.08643001044e-06
8.5849099792e-07
6.48434628064e-07
4.22865971215e-07
2.29073692097e-07
1.05758751644e-07
4.86802943099e-08
2.90662707594e-08
2.41541293975e-08
2.34307842845e-08
2.33949957711e-08
2.30845967287e-08
2.23257693026e-08
4.94263518767e-06
4.34942558977e-06
3.56177275711e-06
2.84781919222e-06
2.27248400868e-06
1.79356784492e-06
1.39594803952e-06
1.09157637867e-06
8.52402909682e-07
6.17004648747e-07
3.89755589529e-07
2.11031207124e-07
1.00019168467e-07
4.75234597159e-08
2.85084240337e-08
2.33803925384e-08
2.26678600564e-08
2.2937363235e-08
2.30046908518e-08
2.23526809055e-08
4.48956205987e-06
3.87175489293e-06
3.32090436514e-06
2.78675479087e-06
2.29976436245e-06
1.83677291293e-06
1.42691595461e-06
1.10949637521e-06
8.4831465499e-07
5.991262193e-07
3.77278926328e-07
2.08255209372e-07
1.02118765728e-07
4.95684979861e-08
2.91239260664e-08
2.29887611211e-08
2.19938716639e-08
2.24444095286e-08
2.2934666255e-08
2.25640701239e-08
4.29379205247e-06
3.85836589398e-06
3.50824042823e-06
3.03967360544e-06
2.4839106062e-06
1.9199116169e-06
1.46031837587e-06
1.12998578265e-06
8.60083792307e-07
6.09753088849e-07
3.91012017392e-07
2.22261089363e-07
1.1231480225e-07
5.47243110714e-08
3.09261383361e-08
2.31503953219e-08
2.15153748263e-08
2.19928025126e-08
2.28663192655e-08
2.29600431698e-08
4.7942633062e-06
4.6061732379e-06
4.20041658572e-06
3.5028916362e-06
2.69871460694e-06
1.99712180674e-06
1.50492177911e-06
1.17413431334e-06
9.05753097007e-07
6.57508367984e-07
4.3556041783e-07
2.56739072947e-07
1.33095149286e-07
6.40753514533e-08
3.4236152122e-08
2.41194294873e-08
2.14513199088e-08
2.17236708975e-08
2.28603110782e-08
2.35254118249e-08
6.00417799863e-06
5.80996248007e-06
5.07478350946e-06
3.9799187926e-06
2.91947803214e-06
2.13284807891e-06
1.62105074095e-06
1.27839893837e-06
1.00487560909e-06
7.53717269291e-07
5.21049760528e-07
3.21138210685e-07
1.7095210776e-07
8.02737660722e-08
3.96338477412e-08
2.59683329174e-08
2.21847096506e-08
2.18188469761e-08
2.30763937608e-08
2.4257261599e-08
7.58637345366e-06
7.02325194156e-06
5.80120393017e-06
4.39821744351e-06
3.23669651707e-06
2.42277793041e-06
1.86226538881e-06
1.47126469391e-06
1.16784328573e-06
9.00268514079e-07
6.51169452475e-07
4.23973299653e-07
2.34968157937e-07
1.07905484289e-07
4.82283679929e-08
2.86800365164e-08
2.36123431433e-08
2.26697878492e-08
2.36548828011e-08
2.51484917547e-08
8.06562882082e-06
7.56019803229e-06
6.2168336651e-06
4.81291129749e-06
3.66080022798e-06
2.80888607037e-06
2.16946103223e-06
1.71615464467e-06
1.36657845732e-06
1.06854112892e-06
8.00829225255e-07
5.52018228975e-07
3.2457777799e-07
1.50061676767e-07
6.11778347659e-08
3.23263922105e-08
2.52663670079e-08
2.41607365654e-08
2.45788197035e-08
2.62287087691e-08
8.00350978953e-06
7.90786425138e-06
6.58339418882e-06
5.16213639695e-06
4.02396639865e-06
3.14230901835e-06
2.43438700517e-06
1.92826339762e-06
1.53436515417e-06
1.2089309325e-06
9.27548313908e-07
6.6923625903e-07
4.17534552003e-07
1.99832127416e-07
7.75620174543e-08
3.66947059962e-08
2.67469348595e-08
2.54286231767e-08
2.59242283868e-08
2.74270822263e-08
8.01124457168e-06
8.1333544946e-06
6.78355660091e-06
5.32178320091e-06
4.18523243831e-06
3.30072309087e-06
2.59857945466e-06
2.0606204702e-06
1.6338789274e-06
1.29206072864e-06
1.00754175448e-06
7.5137635154e-07
4.90083860919e-07
2.43508983994e-07
9.38421166089e-08
4.11868832556e-08
2.78715990084e-08
2.59827513723e-08
2.69520790897e-08
2.85128371013e-08
8.05655673119e-06
8.19112227732e-06
6.79508592277e-06
5.31565206378e-06
4.18196526951e-06
3.3204972053e-06
2.63667909054e-06
2.09603188957e-06
1.66455240474e-06
1.32127543844e-06
1.04287546186e-06
7.96132029391e-07
5.35002960972e-07
2.74503805889e-07
1.07770200731e-07
4.5592088039e-08
2.88830675839e-08
2.60334846437e-08
2.72585842137e-08
2.9240382407e-08
8.09911899609e-06
8.20767220058e-06
6.83294378747e-06
5.33173314244e-06
4.15939276737e-06
3.28394326982e-06
2.6093447022e-06
2.07657461317e-06
1.65311877338e-06
1.31566008538e-06
1.04698049494e-06
8.10112573939e-07
5.52620088668e-07
2.90576172723e-07
1.18043080887e-07
4.98049898026e-08
3.0071237458e-08
2.60335924665e-08
2.71049014951e-08
2.96291423591e-08
8.07621721644e-06
8.33067079061e-06
7.05885614637e-06
5.51647145547e-06
4.2385601346e-06
3.28734831382e-06
2.58065815852e-06
2.04767454866e-06
1.6303221329e-06
1.29897282152e-06
1.037833532e-06
8.06234432394e-07
5.5138553147e-07
2.93249043923e-07
1.22783082868e-07
5.27271362511e-08
3.11477095908e-08
2.61240806853e-08
2.68560045254e-08
2.98092391299e-08
7.96906915847e-06
8.2736315055e-06
7.25123083763e-06
5.8162913449e-06
4.48567333061e-06
3.42360964315e-06
2.63704387517e-06
2.06458390404e-06
1.63090212768e-06
1.29319985479e-06
1.02832474082e-06
7.93584923721e-07
5.40355887719e-07
2.88840772975e-07
1.24106488226e-07
5.46030667316e-08
3.20497706709e-08
2.62990902469e-08
2.66755644241e-08
2.99189588238e-08
7.88883595495e-06
8.04498370723e-06
7.27256743582e-06
6.04825193914e-06
4.76542982913e-06
3.64515751487e-06
2.77935295813e-06
2.14452194498e-06
1.67104127726e-06
1.30842390701e-06
1.02392938692e-06
7.78691392655e-07
5.26723922164e-07
2.82616142817e-07
1.24369473346e-07
5.60573650324e-08
3.28776199073e-08
2.65592056236e-08
2.66153857382e-08
3.0033381967e-08
7.65046208659e-06
7.61624033104e-06
7.02082282114e-06
6.03537833775e-06
4.89206907799e-06
3.80668966787e-06
2.91836985578e-06
2.24182412016e-06
1.7291040917e-06
1.33349347449e-06
1.02224176876e-06
7.6572494272e-07
5.14903728199e-07
2.77662828723e-07
1.25029050423e-07
5.75451908742e-08
3.3725133425e-08
2.6898687535e-08
2.66852128814e-08
3.02109489948e-08
7.12741872908e-06
6.97832926645e-06
6.52243674974e-06
5.77049854294e-06
4.80941142742e-06
3.82847512967e-06
2.97948157257e-06
2.30142983802e-06
1.76996147433e-06
1.34964290302e-06
1.01858430733e-06
7.56389518617e-07
5.07152807032e-07
2.75517218863e-07
1.26817141277e-07
5.93190205505e-08
3.46480286832e-08
2.7300139207e-08
2.68575123241e-08
3.04795817277e-08
6.68373521155e-06
6.35649688947e-06
5.92372583972e-06
5.3345459157e-06
4.55164197638e-06
3.70652115331e-06
2.93701022679e-06
2.29361537081e-06
1.77054150794e-06
1.34503431947e-06
1.0106013622e-06
7.51233871506e-07
5.04057144314e-07
2.76509204049e-07
1.29910360529e-07
6.14537996324e-08
3.56590567675e-08
2.77338846269e-08
2.70707069877e-08
3.07998899064e-08
6.16886465899e-06
5.74913618531e-06
5.31093724023e-06
4.81430524081e-06
4.18028361813e-06
3.47198819139e-06
2.79996198889e-06
2.21707171684e-06
1.72767013332e-06
1.31913410063e-06
9.99751608393e-07
7.50317125423e-07
5.04643260415e-07
2.79921410984e-07
1.34030605682e-07
6.38675608711e-08
3.67294825961e-08
2.81606613957e-08
2.72447910413e-08
3.10433867827e-08
5.73353014722e-06
5.24466302337e-06
4.7567221553e-06
4.29050186138e-06
3.75941131296e-06
3.17150235033e-06
2.60156605644e-06
2.09488881511e-06
1.65594065347e-06
1.2814238148e-06
9.90955050583e-07
7.53056279393e-07
5.06960280496e-07
2.84646784465e-07
1.38786274449e-07
6.64492852716e-08
3.78309955528e-08
2.85477852976e-08
2.73028974566e-08
3.10652980178e-08
5.30051125467e-06
4.80703804087e-06
4.27583045231e-06
3.81227772372e-06
3.35254145727e-06
2.86758053862e-06
2.39603123371e-06
1.96761097115e-06
1.58078502567e-06
1.2482347751e-06
9.90606184969e-07
7.58268834126e-07
5.09773099519e-07
2.90551215463e-07
1.44349631054e-07
6.93365297251e-08
3.90275766169e-08
2.89207482362e-08
2.72501313653e-08
3.0838452539e-08
4.97758606433e-06
4.4531475442e-06
3.88548877138e-06
3.42769079333e-06
3.03204387957e-06
2.637235507e-06
2.24933989977e-06
1.87926954529e-06
1.53154439646e-06
1.23982660823e-06
1.00424254061e-06
7.66648922903e-07
5.15894332958e-07
3.003250948e-07
1.52338413464e-07
7.33807332426e-08
4.07380839076e-08
2.94928874168e-08
2.71985073081e-08
3.04458839796e-08
4.77617172297e-06
4.17968696683e-06
3.62368847124e-06
3.21208058245e-06
2.88505304402e-06
2.55519665778e-06
2.21090015375e-06
1.86074788066e-06
1.53692260498e-06
1.27154119821e-06
1.03549972063e-06
7.85477748967e-07
5.34255777264e-07
3.20270175742e-07
1.66898838911e-07
8.09537716152e-08
4.39869048913e-08
3.06549306235e-08
2.73287829783e-08
3.00816842437e-08
4.62869094329e-06
4.04160942777e-06
3.60472671139e-06
3.27221701267e-06
2.97343935478e-06
2.64394286684e-06
2.28406887434e-06
6.86427744948e-06
5.05922755849e-06
3.36280560797e-06
2.26562268286e-06
1.81359282614e-06
1.87317315287e-06
2.28014743735e-06
2.83752268249e-06
3.36844761617e-06
3.77271165225e-06
4.00640014327e-06
4.05297295014e-06
3.90986161974e-06
3.59100773753e-06
3.16380335251e-06
2.82762039991e-06
2.85381412521e-06
4.99149642182e-07
4.54837152779e-06
6.86169894583e-06
6.21809656068e-06
4.53220898761e-06
3.01959096892e-06
2.12335978107e-06
1.83543831943e-06
2.01150881885e-06
2.48118205135e-06
3.04879050286e-06
3.55942419834e-06
3.93171268283e-06
4.13087178703e-06
4.14449774247e-06
3.97159699594e-06
3.62477562498e-06
3.16655361468e-06
2.79938787924e-06
2.82958112356e-06
2.12014022914e-07
3.4021042175e-06
6.09490137034e-06
5.59947707811e-06
4.05195800931e-06
2.73505369883e-06
2.03365518644e-06
1.89764072317e-06
2.17700769206e-06
2.69482433624e-06
3.26313580327e-06
3.74971558997e-06
4.08901033712e-06
4.25373408713e-06
4.23499101866e-06
4.03324182377e-06
3.65976737387e-06
3.17098028681e-06
2.7685676568e-06
2.79560040436e-06
1.23986462285e-07
2.19594257188e-06
5.34756292369e-06
5.01641820689e-06
3.62527652593e-06
2.51033591506e-06
1.99441472127e-06
1.99790019811e-06
2.36660939247e-06
2.91871660408e-06
3.47979778347e-06
3.93930888862e-06
4.24481828169e-06
4.37523076634e-06
4.32465144063e-06
4.09494210416e-06
3.69623370483e-06
3.17782344741e-06
2.73592619413e-06
2.74875549208e-06
9.09177506558e-08
1.14116894935e-06
4.60977626437e-06
4.47592770874e-06
3.25710479244e-06
2.34505054392e-06
2.00350386338e-06
2.13391853447e-06
2.5774097138e-06
3.15110278063e-06
3.69838067693e-06
4.12834358664e-06
4.39940855856e-06
4.49562242785e-06
4.4136762449e-06
4.15682222724e-06
3.73437153869e-06
3.18786827909e-06
2.70295887421e-06
2.68783233264e-06
5.69981402181e-08
5.08987441556e-07
3.86501520006e-06
3.98440516617e-06
2.95048164166e-06
2.23792545186e-06
2.0590307698e-06
2.30338889698e-06
2.80680943486e-06
3.39073722074e-06
3.9187063166e-06
4.31700384401e-06
4.55302989824e-06
4.61512717893e-06
4.50222546079e-06
4.21897604033e-06
3.77432718111e-06
3.20188685158e-06
2.67157046655e-06
2.6133518616e-06
4.17060129235e-08
2.45696678632e-07
3.1013605781e-06
3.54756426628e-06
2.70718503358e-06
2.187565641e-06
2.15937065677e-06
2.50387881029e-06
3.05246354883e-06
3.63663243134e-06
4.14060125817e-06
4.50537469624e-06
4.70581347697e-06
4.73386562305e-06
4.59040211431e-06
4.28148129674e-06
3.81622632436e-06
3.22061659198e-06
2.64397113843e-06
2.52771282322e-06
3.4401453128e-08
1.47588707142e-07
2.33513973875e-06
3.16933548988e-06
2.52837497728e-06
2.19279332151e-06
2.30280605551e-06
2.73258443911e-06
3.31205912526e-06
3.88775241392e-06
4.36369345675e-06
4.69332412265e-06
4.85771390829e-06
4.85184528521e-06
4.67827303216e-06
4.34445569273e-06
3.86025336e-06
3.24478993728e-06
2.62254426204e-06
2.43494021423e-06
2.94824309947e-08
1.03974522845e-07
1.62599624358e-06
2.85151475952e-06
2.4147832379e-06
2.25236952597e-06
2.48691595994e-06
2.98607544819e-06
3.58307916957e-06
4.14280448163e-06
4.58732381864e-06
4.8804908132e-06
5.00854249343e-06
4.96902200212e-06
4.76594856762e-06
4.40815388216e-06
3.90676279186e-06
3.27518942575e-06
2.60964580373e-06
2.34001199064e-06
2.62966768259e-08
7.78749171503e-08
1.05301100792e-06
2.59478006546e-06
2.3662714998e-06
2.36433750081e-06
2.70811847965e-06
3.26029293858e-06
3.86279330608e-06
4.40028647106e-06
4.81066348294e-06
5.06642515185e-06
5.15810700039e-06
5.08542623383e-06
4.85369132381e-06
4.47306448455e-06
3.9563882632e-06
3.31278365887e-06
2.60766971239e-06
2.24811245375e-06
2.4363029747e-08
5.85290724614e-08
6.55330321008e-07
2.39767004029e-06
2.38123934503e-06
2.52555593731e-06
2.96175778994e-06
3.5509397506e-06
4.14854667079e-06
4.65876530414e-06
5.03297034646e-06
5.25079873318e-06
5.30636774643e-06
5.20126879146e-06
4.94197965578e-06
4.53995004803e-06
4.01009275685e-06
3.35880800859e-06
2.61933259283e-06
2.1639779788e-06
2.32898484795e-08
4.25080984252e-08
4.04911205806e-07
2.25023430768e-06
2.45626092738e-06
2.73172495512e-06
3.24266975996e-06
3.85402914362e-06
4.43810959578e-06
4.91714603676e-06
5.25378290584e-06
5.43352631536e-06
5.4534993842e-06
5.31695607822e-06
5.03149137653e-06
4.60981931274e-06
4.06917243601e-06
3.41480757455e-06
2.6472717326e-06
2.09165722819e-06
2.27390056499e-08
3.10302231009e-08
2.51129995627e-07
2.1272342832e-06
2.58568235574e-06
2.97770506137e-06
3.54581018224e-06
4.16625844407e-06
4.72985789935e-06
5.17478129521e-06
5.47297826523e-06
5.61478605259e-06
5.59988725638e-06
5.43307528332e-06
5.1230891036e-06
4.68392865677e-06
4.135307434e-06
3.48283443583e-06
2.69450034889e-06
2.03482456434e-06
2.24774450764e-08
2.72163453398e-08
1.59116471829e-07
1.98545017679e-06
2.76109116257e-06
3.25820331206e-06
3.86696259141e-06
4.48533207771e-06
5.02291941695e-06
5.43155096079e-06
5.69081213791e-06
5.79503599848e-06
5.74613304556e-06
5.55040010068e-06
5.217838254e-06
4.76382749818e-06
4.21067081599e-06
3.56569464396e-06
2.76492370938e-06
1.99734701232e-06
2.24283338148e-08
2.60305448482e-08
1.06549524395e-07
1.77065822839e-06
2.97027813712e-06
3.56832706674e-06
4.20317578374e-06
4.81001861884e-06
5.31709961638e-06
5.68775275336e-06
5.9078042455e-06
5.97490905918e-06
5.89297075705e-06
5.66984334708e-06
5.31702105655e-06
4.85147347831e-06
4.29819530614e-06
3.66743125617e-06
2.86434364398e-06
1.98411700622e-06
2.25408775007e-08
2.58750773625e-08
7.95881506378e-08
1.44019800068e-06
3.1914773154e-06
3.90190844845e-06
4.55167361687e-06
5.1392284111e-06
5.6121812377e-06
5.94359642439e-06
6.12438403969e-06
6.15497716742e-06
6.0411328367e-06
5.79242924033e-06
5.42224397153e-06
4.94952805079e-06
4.40214559617e-06
3.79425332674e-06
3.00132376302e-06
2.00232209736e-06
2.27843168237e-08
2.63470765752e-08
6.77636315891e-08
1.00067851916e-06
3.37747511976e-06
4.24772105381e-06
4.90825605136e-06
5.47122077671e-06
5.90756089463e-06
6.1990825414e-06
6.34090900552e-06
6.33585386155e-06
6.19151511272e-06
5.91953200994e-06
5.53579930033e-06
5.0619399685e-06
4.52909040481e-06
3.95616618206e-06
3.18945179719e-06
2.06340451986e-06
2.32047097366e-08
2.72030341851e-08
5.2613498042e-08
5.56125216428e-07
3.41281689324e-06
4.58485759129e-06
5.26706188688e-06
5.80445265439e-06
6.20326756856e-06
6.45493430257e-06
6.55844818878e-06
6.51881530905e-06
6.34562392227e-06
6.05313917824e-06
5.6607741762e-06
5.19406762613e-06
4.68856103934e-06
4.16919832493e-06
3.45152922251e-06
2.18690402864e-06
2.37714539e-08
2.84327738251e-08
4.64924382955e-08
2.79385973375e-07
3.03092948778e-06
4.87332361838e-06
5.6199852738e-06
6.13862034053e-06
6.50114520833e-06
6.7135064745e-06
6.77929254402e-06
6.70575022505e-06
6.50456927251e-06
6.19309184586e-06
5.79533145162e-06
5.342915078e-06
4.87982591315e-06
4.44346118529e-06
3.81714747673e-06
2.40586468133e-06
2.45258720969e-08
3.00861737136e-08
4.82969524566e-08
1.88778057997e-07
1.96342099476e-06
5.0106275168e-06
5.95101477705e-06
6.47221825343e-06
6.8037838727e-06
6.9782354175e-06
7.00663595449e-06
6.89904729236e-06
6.66931850937e-06
6.33808244256e-06
5.93512136087e-06
5.50193859351e-06
5.10028342451e-06
4.79629451541e-06
4.34056914781e-06
2.78490015615e-06
2.56120631275e-08
3.21167349156e-08
5.11784452067e-08
1.38589821339e-07
8.38580792993e-07
4.63017411295e-06
6.22102589956e-06
6.79592675981e-06
7.11113489728e-06
7.25200753446e-06
7.24402470516e-06
7.10204649733e-06
6.84255685521e-06
6.48970966836e-06
6.08005055252e-06
5.66830298686e-06
5.34191228196e-06
5.213275651e-06
5.03766568312e-06
3.44159753333e-06
2.70273990719e-08
3.44998052686e-08
5.4702018175e-08
1.13764459698e-07
4.26596394028e-07
3.1026881187e-06
6.29869417397e-06
7.08397867324e-06
7.41593912371e-06
7.53511932826e-06
7.49473664471e-06
7.31927156806e-06
7.02956685969e-06
6.65405770427e-06
6.23701029919e-06
5.84826966754e-06
5.60247489657e-06
5.6648724456e-06
5.90072371093e-06
4.62678482938e-06
2.86613023952e-08
3.71227096583e-08
5.89706085253e-08
1.12019065356e-07
3.27843967473e-07
1.31553808826e-06
5.64677045252e-06
7.27888900286e-06
7.69706635672e-06
7.82119892758e-06
7.75916327692e-06
7.55404467885e-06
7.23464972821e-06
6.83475034807e-06
6.40580419092e-06
6.02962530377e-06
5.83266378957e-06
5.99385610765e-06
6.64809690424e-06
6.71920552355e-06
3.03148515539e-08
3.98355476344e-08
6.39381161579e-08
1.1445577593e-07
2.21124220712e-07
6.45690229293e-07
3.50699447922e-06
7.18024286611e-06
7.91096611979e-06
8.08767194973e-06
8.02436557138e-06
7.79514630503e-06
7.44091668275e-06
6.99723160168e-06
6.50722379779e-06
6.02829999252e-06
5.63284122716e-06
5.39984420743e-06
5.49691343506e-06
6.91777649185e-06
3.17970801068e-08
4.24825676588e-08
6.92595197833e-08
1.19654750764e-07
2.08372219638e-07
4.9041303739e-07
1.42595451151e-06
5.99691431286e-06
7.97071536171e-06
8.28732031234e-06
8.25376356485e-06
8.00701691077e-06
7.60575612424e-06
7.08635031643e-06
6.47650993068e-06
5.79836463363e-06
5.07475971337e-06
4.36154058631e-06
3.81465791744e-06
3.7702402397e-06
3.30332803937e-08
4.49604616356e-08
7.45357128258e-08
1.27461649949e-07
2.07039500496e-07
3.31028003547e-07
7.70169702618e-07
3.21495864177e-06
7.51239336457e-06
8.34965081694e-06
8.38559251855e-06
8.1305030411e-06
7.67045786615e-06
7.0496817401e-06
6.29311297513e-06
5.41627514865e-06
4.45459849805e-06
3.51817230941e-06
2.8253408616e-06
2.60118358205e-06
3.40941332803e-08
4.72263880244e-08
7.98844174953e-08
1.36447769947e-07
2.11573561259e-07
3.11769098501e-07
5.9406673352e-07
1.32683104307e-06
5.45176975676e-06
8.11507121284e-06
8.34742241508e-06
8.09486657787e-06
7.57588033011e-06
6.85402318177e-06
5.96282397203e-06
4.9540965419e-06
3.9111546837e-06
2.97034354791e-06
2.37021239887e-06
2.27717771148e-06
3.51426079866e-08
4.94112470832e-08
8.52143425102e-08
1.45771374245e-07
2.19334458181e-07
3.05641733071e-07
4.23835307672e-07
8.46509800952e-07
2.59809467358e-06
6.96469670294e-06
8.01791097193e-06
7.7426507708e-06
7.11695009005e-06
6.26445174136e-06
5.30595708282e-06
4.34963090999e-06
3.4721890452e-06
2.77609583407e-06
2.4312071492e-06
2.51283965524e-06
3.63303246032e-08
5.2165051248e-08
8.98034781448e-08
1.54940704995e-07
2.28770122986e-07
3.06052044019e-07
3.99611586029e-07
6.78525510119e-07
1.24995821895e-06
4.38276878049e-06
7.07894320581e-06
6.91925868718e-06
6.17231809586e-06
5.33470729818e-06
4.55698109081e-06
3.88610108327e-06
3.34694628879e-06
2.99052981991e-06
2.93221475788e-06
3.17141918429e-06
3.75689179158e-08
5.55733867823e-08
9.51257044823e-08
1.61513988653e-07
2.37986226576e-07
3.09201386897e-07
3.88014021237e-07
4.93169723464e-07
8.85588846127e-07
2.07342750448e-06
5.14600637259e-06
5.77080040535e-06
5.1201123547e-06
4.48580764825e-06
3.99284197277e-06
3.65186044864e-06
3.45511588015e-06
3.41731869592e-06
3.61250565854e-06
3.98445541247e-06
3.88717061855e-08
5.9245424651e-08
1.01075963328e-07
1.67386720417e-07
2.44519862859e-07
3.15004522715e-07
3.83540873861e-07
4.64668183863e-07
7.22916625667e-07
1.06475811599e-06
2.75367611882e-06
4.35685965253e-06
4.20073416697e-06
3.78331807045e-06
3.54551744844e-06
3.51028751119e-06
3.63830780862e-06
3.89194142486e-06
4.29605855004e-06
4.76563975877e-06
4.01764030853e-08
6.28341368853e-08
1.06947199781e-07
1.73173713247e-07
2.4770761537e-07
3.17068275227e-07
3.78640124462e-07
4.41103631373e-07
5.04231544981e-07
7.60214174233e-07
1.201851963e-06
2.61155081984e-06
3.34247249034e-06
3.24069447948e-06
3.18373784737e-06
3.38938538308e-06
3.81651544547e-06
4.35595880501e-06
4.95497701052e-06
5.49595568772e-06
4.12888646826e-08
6.59635141952e-08
1.1202048017e-07
1.77395356447e-07
2.49182219255e-07
3.13233760506e-07
3.6824542018e-07
4.21821269323e-07
4.67033708912e-07
5.43050968659e-07
6.92186487508e-07
1.04631319516e-06
1.98444351635e-06
2.58339936355e-06
2.8750840194e-06
3.25347002161e-06
3.93181056827e-06
4.77304951534e-06
5.60879547185e-06
6.25742654172e-06
4.20502573766e-08
6.82250151861e-08
1.15655045018e-07
1.79667099631e-07
2.47793867866e-07
3.07140255516e-07
3.54742557976e-07
3.94638181083e-07
4.33523074548e-07
4.69249850501e-07
4.8375207018e-07
5.91546468266e-07
6.03844333997e-07
7.93150722759e-07
1.42220889094e-06
2.51258159163e-06
3.51221872905e-06
4.76359994888e-06
6.11799068027e-06
7.06264235078e-06
4.23467691952e-08
6.90221173937e-08
1.17514819919e-07
1.80381989981e-07
2.43893225157e-07
2.98793538802e-07
3.41028361743e-07
3.73416908685e-07
4.00877205296e-07
4.24229429142e-07
4.35460592265e-07
4.24552465072e-07
4.05532374328e-07
4.24830551108e-07
4.43568460408e-07
6.18509994846e-07
8.99013234174e-07
1.15068385406e-06
3.8268299154e-06
6.95757808042e-06
4.2152500861e-08
6.86663629822e-08
1.17817843629e-07
1.79933022686e-07
2.38906969639e-07
2.88520396203e-07
3.26425376655e-07
3.53964827531e-07
3.74228330037e-07
3.87630448636e-07
3.93472682738e-07
4.00043518193e-07
4.20227015757e-07
4.48969927821e-07
4.588965348e-07
4.50344153211e-07
4.67085230141e-07
5.28643716306e-07
8.68694244784e-07
4.08092414246e-06
4.16846556278e-08
6.80706318473e-08
1.16430846988e-07
1.78148175117e-07
2.33699877468e-07
2.7799567387e-07
3.11190176723e-07
3.33970938106e-07
3.4707886599e-07
3.52117915299e-07
3.61951406302e-07
4.04929128113e-07
4.82175251319e-07
5.28540698544e-07
4.50879976953e-07
3.17592593127e-07
2.86013078166e-07
3.16104427271e-07
4.8098347428e-07
2.10299390373e-06
4.12945624308e-08
6.77471564692e-08
1.1458630157e-07
1.7501948237e-07
2.28248506239e-07
2.68145926349e-07
2.96066523407e-07
3.13504883747e-07
3.21750803527e-07
3.35497821481e-07
3.89295566403e-07
4.87170259068e-07
5.11253170232e-07
3.82477568106e-07
2.66203287315e-07
2.25664356817e-07
2.22711912831e-07
2.56121807042e-07
3.86375079865e-07
1.51217706888e-06
)
;

boundaryField
{
    emptyPatch
    {
        type            empty;
    }
    minY
    {
        type            calculated;
        value           nonuniform List<scalar> 0();
    }
    maxY
    {
        type            calculated;
        value           nonuniform List<scalar> 0();
    }
    water_to_cooler
    {
        type            nutkWallFunction;
        blending        stepwise;
        value           uniform 0;
    }
    water_to_heater
    {
        type            nutkWallFunction;
        blending        stepwise;
        value           uniform 0;
    }
    procBoundary3to1
    {
        type            processor;
        value           nonuniform List<scalar> 
41
(
1.92416489979e-06
1.60779886686e-06
1.34146284094e-06
1.08929514304e-06
8.29685972313e-07
5.79031585663e-07
3.61532140816e-07
1.9625226379e-07
9.63368633918e-08
5.04064011837e-08
3.30159117457e-08
2.79249915099e-08
2.99818685217e-08
4.78393016741e-06
4.35152504493e-06
4.00591043719e-06
3.64153162059e-06
3.25684172e-06
2.84923048934e-06
1.92416489979e-06
2.44000473321e-06
4.11701000168e-08
6.76544537579e-08
1.13383328625e-07
1.70089273918e-07
2.22241450216e-07
2.59625750467e-07
2.82419824515e-07
2.942180078e-07
3.08552253143e-07
3.55940270103e-07
4.35610304919e-07
4.28826916755e-07
3.3401076888e-07
2.52741817408e-07
2.18306899622e-07
2.07978231519e-07
2.10720278086e-07
2.45954971157e-07
3.39971530167e-07
1.22263792805e-06
)
;
    }
    procBoundary3to2
    {
        type            processor;
        value           nonuniform List<scalar> 
41
(
4.66382633081e-06
4.19303931708e-06
3.5034896126e-06
2.79358110215e-06
2.12743280325e-06
1.59799254768e-06
1.23302996685e-06
9.96091894949e-07
8.37204935047e-07
6.92699145233e-07
5.00178403914e-07
2.53663458136e-07
7.5907073117e-08
3.18288707993e-08
2.80035336936e-08
2.7402599988e-08
2.64710492783e-08
2.66428894114e-08
3.09644758797e-08
8.2334645454e-08
7.52991061032e-06
5.62546213695e-06
3.76206898419e-06
2.46224994279e-06
1.83442223501e-06
1.76496021569e-06
2.09455698815e-06
2.63048667032e-06
3.17696932991e-06
3.61187488764e-06
3.88012022518e-06
3.96024338302e-06
3.84788305169e-06
3.55810670776e-06