/*--------------------------------*- C++ -*----------------------------------*\
| =========                 |                                                 |
| \\      /  F ield         | OpenFOAM: The Open Source CFD Toolbox           |
|  \\    /   O peration     | Version:  2312                                  |
|   \\  /    A nd           | Website:  www.openfoam.com                      |
|    \\/     M anipulation  |                                                 |
\*---------------------------------------------------------------------------*/
FoamFile
{
    version     2.0;
    format      ascii;
    arch        "LSB;label=32;scalar=64";
    class       volScalarField;
    location    "0.355/water";
    object      alphat.gas;
}
// * * * * * * * * * * * * * * * * * * * * * * * * * * * * * * * * * * * * * //

dimensions      [1 -1 -1 0 0 0 0];

internalField   nonuniform List<scalar> 
1503
(
1.96435521009e-07
8.22088417546e-08
3.56962503959e-08
2.44302452117e-08
9.31568433117e-08
6.88684487487e-07
2.9417465228e-06
6.67595265116e-06
1.01096809129e-05
1.22923087517e-05
1.34356683153e-05
1.39675639392e-05
1.41899114402e-05
1.42694909855e-05
1.42887683541e-05
1.42855396077e-05
1.42759053975e-05
1.42660931587e-05
1.42581307809e-05
1.42524191889e-05
9.00687280421e-07
6.43574087679e-07
3.32009927676e-07
1.77691688659e-07
7.4916175012e-08
5.69307621747e-08
1.20351206224e-07
7.02380391175e-07
3.05314764573e-06
6.99065603748e-06
1.04077690562e-05
1.24918553513e-05
1.35524625864e-05
1.40305546319e-05
1.42201230743e-05
1.42799859637e-05
1.4287358524e-05
1.42769869355e-05
1.4263301873e-05
1.42516598179e-05
1.23979361958e-06
1.07554371389e-06
7.16685873224e-07
3.97789160874e-07
2.21060071186e-07
1.05640874143e-07
7.61986519118e-08
1.7903869922e-07
9.59956862932e-07
3.44426892499e-06
7.11380606735e-06
1.0308193735e-05
1.23714566052e-05
1.34907326595e-05
1.4024433424e-05
1.42465054994e-05
1.43201743699e-05
1.43308675906e-05
1.43193517361e-05
1.43034745094e-05
1.47106535794e-06
1.33397790945e-06
9.83138840358e-07
6.20941677215e-07
4.04896171217e-07
1.92369683469e-07
1.02932525657e-07
9.86219783586e-08
3.67344895691e-07
1.70279373426e-06
4.64078373691e-06
8.1016237417e-06
1.08757903217e-05
1.26506656503e-05
1.36280133658e-05
1.41022044714e-05
1.43009197327e-05
1.43650841031e-05
1.43713633868e-05
1.4357605992e-05
1.64209452902e-06
1.52548384341e-06
1.17710724484e-06
8.07860949509e-07
4.90318932068e-07
3.26204240624e-07
1.40647708601e-07
9.13455545308e-08
1.76251588349e-07
8.650397907e-07
2.99084292988e-06
6.2248063928e-06
9.34266699973e-06
1.1639505165e-05
1.30657858726e-05
1.38430225542e-05
1.42163355182e-05
1.43682839107e-05
1.44121703993e-05
1.44103632497e-05
1.74887449475e-06
1.66146988768e-06
1.32533626955e-06
9.55461913701e-07
6.29856924117e-07
3.61314804607e-07
2.21719280922e-07
9.48852272131e-08
1.05848887294e-07
4.37638598765e-07
1.88745976497e-06
4.70927900205e-06
7.91217404316e-06
1.05692622554e-05
1.23918433514e-05
1.34824522201e-05
1.40610405894e-05
1.43294241502e-05
1.44306533856e-05
1.44520397041e-05
1.78791866955e-06
1.72536221148e-06
1.41484631231e-06
1.06028183557e-06
7.3890589226e-07
4.66343858498e-07
2.46424490177e-07
1.3096732116e-07
7.21977418119e-08
2.12841189783e-07
1.13242786622e-06
3.49051005669e-06
6.62899462272e-06
9.51370390294e-06
1.16608293079e-05
1.3047379913e-05
1.38428215909e-05
1.42471416563e-05
1.44224530402e-05
1.44779588965e-05
1.79699145554e-06
1.75040104692e-06
1.45998636953e-06
1.12388555564e-06
8.15650009536e-07
5.50014744471e-07
3.25020096977e-07
1.60814538941e-07
7.1689417322e-08
9.38333072589e-08
6.06461574787e-07
2.49588395498e-06
5.49220517285e-06
8.51238450539e-06
1.09151889423e-05
1.25657304912e-05
1.35744435049e-05
1.41245132823e-05
1.43861368051e-05
1.44852284789e-05
1.80162450578e-06
1.76026345535e-06
1.47943036568e-06
1.15791174015e-06
8.66003696205e-07
6.1399982179e-07
3.94563277847e-07
2.07009203234e-07
9.82060916206e-08
4.99693436972e-08
2.4851873754e-07
1.64029712941e-06
4.46648418679e-06
7.57410193209e-06
1.01801828988e-05
1.20599406404e-05
1.32691335322e-05
1.39666537227e-05
1.43219932964e-05
1.44720367538e-05
1.79830839809e-06
1.76091542645e-06
1.48381271004e-06
1.17281010797e-06
8.97743177341e-07
6.62129647698e-07
4.52347643666e-07
2.6289282638e-07
1.11367557325e-07
5.12726482137e-08
8.06950473658e-08
8.81359976236e-07
3.49644863814e-06
6.67657741115e-06
9.45586270305e-06
1.15386847942e-05
1.29347025976e-05
1.37774469552e-05
1.42304524654e-05
1.44367672987e-05
1.78731336774e-06
1.75105964873e-06
1.4752585255e-06
1.17506736956e-06
9.18463458055e-07
6.99386789829e-07
4.99471369595e-07
3.11739799032e-07
1.46898859088e-07
4.79566566036e-08
4.0780362123e-08
3.26388014247e-07
2.49432069388e-06
5.74070049134e-06
8.69612157508e-06
1.09846101172e-05
1.25677659785e-05
1.3555698953e-05
1.41102579668e-05
1.43789027468e-05
1.76717698134e-06
1.73214668771e-06
1.45983742624e-06
1.17390027865e-06
9.36257112731e-07
7.30783987204e-07
5.37853625969e-07
3.52701750544e-07
1.79825997106e-07
5.87969504432e-08
3.30866585241e-08
1.03011767137e-07
1.45520841842e-06
4.65451933526e-06
7.80925786479e-06
1.03486739492e-05
1.21459160679e-05
1.32957737267e-05
1.39617636443e-05
1.42991653192e-05
1.75240112921e-06
1.71878895318e-06
1.45444171654e-06
1.18388758128e-06
9.59718861684e-07
7.60385479118e-07
5.7019922347e-07
3.87239430639e-07
2.09727061382e-07
7.25914077136e-08
2.51842463737e-08
4.3257763966e-08
6.03849103035e-07
3.31865971004e-06
6.67561946505e-06
9.56653082858e-06
1.16473681659e-05
1.29922235728e-05
1.37850578461e-05
1.41991004564e-05
1.75433400062e-06
1.72235928803e-06
1.47616236301e-06
1.21729515507e-06
9.93333059543e-07
7.89844922427e-07
5.99100831224e-07
4.18410832747e-07
2.3915169681e-07
9.08037300288e-08
2.85341209425e-08
2.83118288237e-08
1.75724264183e-07
1.91400869143e-06
5.26906913302e-06
8.58319281167e-06
1.10414802062e-05
1.26340492644e-05
1.357837069e-05
1.40802014147e-05
1.80949122087e-06
1.80109592349e-06
1.5630877206e-06
1.28435236617e-06
1.03442145501e-06
8.17067238026e-07
6.25382184139e-07
4.48476248539e-07
2.72349071937e-07
1.17024856735e-07
3.5589848329e-08
2.05079166487e-08
5.24337766347e-08
8.34605674223e-07
3.69171975694e-06
7.35766670995e-06
1.02910442611e-05
1.22043374016e-05
1.33367710635e-05
1.39426446868e-05
1.95902272055e-06
1.96537414458e-06
1.68983822994e-06
1.35307701257e-06
1.06559764902e-06
8.36910652959e-07
6.4808405457e-07
4.79611100116e-07
3.13469761177e-07
1.5174518395e-07
4.6553583759e-08
1.92795833688e-08
2.87801865564e-08
2.45245745664e-07
2.17627165598e-06
5.91066944529e-06
9.36871848157e-06
1.16839872678e-05
1.30518367928e-05
1.3784136255e-05
2.11171559434e-06
2.08697104911e-06
1.7543744651e-06
1.3813073812e-06
1.07782349593e-06
8.47221838911e-07
6.65812988997e-07
5.11118811377e-07
3.58794342173e-07
1.94366926724e-07
6.24871097056e-08
2.14287716553e-08
1.88653830074e-08
5.98121961702e-08
9.59841931676e-07
4.3444414019e-06
8.26681795199e-06
1.10545531058e-05
1.27118557574e-05
1.35993300903e-05
2.12275908636e-06
2.10305396043e-06
1.77527589702e-06
1.39503022583e-06
1.08351668396e-06
8.5230180936e-07
6.78567145597e-07
5.37456559068e-07
3.99859195539e-07
2.38274357542e-07
8.29946480374e-08
2.45797960453e-08
1.8032665818e-08
3.4878270735e-08
2.50941661757e-07
2.80127279039e-06
7.02088557194e-06
1.03074393198e-05
1.23044255627e-05
1.33804558535e-05
2.1558004282e-06
2.1337500026e-06
1.7962870495e-06
1.40636768255e-06
1.08821884399e-06
8.55945400793e-07
6.87847066983e-07
5.57880066107e-07
4.32744645968e-07
2.75304867821e-07
1.02649210081e-07
2.79499831323e-08
1.77438636927e-08
2.2642491177e-08
7.71776794946e-08
1.3631480577e-06
5.67427190841e-06
9.43885213212e-06
1.1816509455e-05
1.31180757819e-05
2.16864811149e-06
2.15056509453e-06
1.80985147491e-06
1.41402950628e-06
1.09092551602e-06
8.57935499036e-07
6.94132816693e-07
5.73246388399e-07
4.58597625301e-07
3.04025944893e-07
1.17569403864e-07
3.01220233909e-08
1.72975923531e-08
2.03804599338e-08
4.91973175462e-08
4.3096234332e-07
4.24631876018e-06
8.45176903364e-06
1.12356163058e-05
1.28019160342e-05
2.17434132496e-06
2.16026027852e-06
1.81803673262e-06
1.41745516382e-06
1.0906275019e-06
8.57668425277e-07
6.9857659195e-07
5.86873389786e-07
4.8104642024e-07
3.25430663073e-07
1.27149238316e-07
3.1099441051e-08
1.67768662633e-08
1.85753334399e-08
3.01225539502e-08
1.58800116271e-07
2.87233994117e-06
7.37047795269e-06
1.05515881787e-05
1.2421152654e-05
2.17102509028e-06
2.16928312541e-06
1.82555661791e-06
1.41895051939e-06
1.08903834643e-06
8.57351141193e-07
7.04545588585e-07
6.02762056394e-07
5.0193931936e-07
3.40599011687e-07
1.33471341754e-07
3.17390322204e-08
1.64360208437e-08
1.72980945469e-08
2.43099608222e-08
9.18762231833e-08
1.69083700159e-06
6.17284598366e-06
9.74524317895e-06
1.19623165313e-05
2.17396462551e-06
2.18055720517e-06
1.83273085594e-06
1.42069087304e-06
1.08946178442e-06
8.60634495395e-07
7.15307382641e-07
6.21488379066e-07
5.19958968391e-07
3.51161052653e-07
1.39099033819e-07
3.29668914611e-08
1.64366403497e-08
1.66492996187e-08
2.06848224569e-08
5.82603948811e-08
8.79655827647e-07
4.87850448933e-06
8.79892502349e-06
1.14099783366e-05
2.18366965976e-06
2.1909574284e-06
1.8369079257e-06
1.42221895511e-06
1.0928398306e-06
8.68926245482e-07
7.3114820892e-07
6.40699968735e-07
5.34463407078e-07
3.58855984356e-07
1.45832243615e-07
3.53558693303e-08
1.67694604185e-08
1.65594223904e-08
1.90845261881e-08
4.03121130416e-08
4.23946699268e-07
3.58369849746e-06
7.70839498882e-06
1.07490410952e-05
2.20479943271e-06
2.20241190694e-06
1.84018402996e-06
1.42415538149e-06
1.09908528254e-06
8.81851761253e-07
7.49671572364e-07
6.58405923916e-07
5.45541552525e-07
3.63851072429e-07
1.53135470487e-07
3.8505226946e-08
1.72579086839e-08
1.68277178769e-08
1.87949666624e-08
2.96873928539e-08
1.86326821904e-07
2.37781706632e-06
6.47885056188e-06
9.96572815156e-06
2.21597411272e-06
2.20320751305e-06
1.83555791316e-06
1.42342603182e-06
1.10758099829e-06
8.98734621117e-07
7.69282522884e-07
6.74109442949e-07
5.52030909108e-07
3.64906613351e-07
1.58773254732e-07
4.13084469081e-08
1.78078195058e-08
1.72327142667e-08
1.91018978085e-08
2.22229696894e-08
7.94614926764e-08
1.38377965452e-06
5.16377802384e-06
9.05682931987e-06
2.2116088921e-06
2.18296631936e-06
1.81600544686e-06
1.4205074567e-06
1.12191474368e-06
9.21185177608e-07
7.90289497216e-07
6.86903662316e-07
5.51857599814e-07
3.60999345926e-07
1.61009481708e-07
4.43509607255e-08
1.84439784166e-08
1.74628139909e-08
1.95342160963e-08
2.19041055588e-08
4.58249342555e-08
6.91879207932e-07
3.87472933647e-06
8.0349273238e-06
2.17789727172e-06
2.13618334533e-06
1.79064662988e-06
1.42885451459e-06
1.1505633841e-06
9.51727939902e-07
8.12223320017e-07
6.93634433368e-07
5.43229126159e-07
3.51406538988e-07
1.63370185157e-07
4.90868881511e-08
1.91874075344e-08
1.75226373809e-08
1.96683184415e-08
2.18614194616e-08
3.39636732712e-08
2.78016783385e-07
2.69304255319e-06
6.91341649168e-06
2.13364824188e-06
2.09848130565e-06
1.80135127699e-06
1.4738281744e-06
1.20066629628e-06
9.88866292298e-07
8.30125792185e-07
6.88803875221e-07
5.26949641345e-07
3.45191076195e-07
1.71978407753e-07
5.56656877136e-08
2.02465700502e-08
1.75167328772e-08
1.9459030492e-08
2.1529208365e-08
2.48881021488e-08
1.00825519269e-07
1.67323855455e-06
5.71153879245e-06
2.16158126047e-06
2.16382000823e-06
1.90019485664e-06
1.57045139917e-06
1.26613164793e-06
1.02140181054e-06
8.34294253662e-07
6.75035893213e-07
5.16304972136e-07
3.51666527556e-07
1.88466571364e-07
6.5294727066e-08
2.19853008321e-08
1.75486608462e-08
1.91406633853e-08
2.09798100901e-08
2.33063515734e-08
5.32986120407e-08
8.76661416861e-07
4.47923114558e-06
2.2813052983e-06
2.32707808877e-06
2.06413751461e-06
1.68351716805e-06
1.32613404428e-06
1.04511113713e-06
8.3416490531e-07
6.68162011933e-07
5.21754450855e-07
3.74654713523e-07
2.16496189136e-07
8.05351546697e-08
2.5009965488e-08
1.77703836334e-08
1.89025428609e-08
2.04198254888e-08
2.21230986184e-08
3.76930976772e-08
3.50134003946e-07
3.2705811553e-06
2.44366671333e-06
2.52992397335e-06
2.22623646648e-06
1.79016540379e-06
1.39559106741e-06
1.08147273047e-06
8.48001715279e-07
6.78200469679e-07
5.44285736143e-07
4.13555688987e-07
2.59250737358e-07
1.05056958452e-07
3.02950379148e-08
1.83503820865e-08
1.88435481499e-08
2.00408831639e-08
2.12139489732e-08
2.56954203444e-08
1.207800593e-07
2.12805668793e-06
2.59028552056e-06
2.66901026476e-06
2.3172761204e-06
1.88435038592e-06
1.47925815106e-06
1.13422845016e-06
8.77506785377e-07
7.00852743547e-07
5.7530420061e-07
4.60259714492e-07
3.13484572315e-07
1.41002309641e-07
3.90534715832e-08
1.94651121483e-08
1.89879686265e-08
1.98792519102e-08
2.06050232456e-08
2.35130071782e-08
6.27327175794e-08
1.13337997857e-06
2.65510623931e-06
2.72371603238e-06
2.36359386405e-06
1.94355288706e-06
1.54661831125e-06
1.18642923542e-06
9.09865422046e-07
7.24949783145e-07
6.03906883096e-07
5.02924982536e-07
3.68550609427e-07
1.84844997002e-07
5.18981840659e-08
2.123625456e-08
1.92805284535e-08
1.9870750039e-08
2.01640640121e-08
2.21579543324e-08
4.20498714529e-08
4.41132595595e-07
2.69619580878e-06
2.77242206592e-06
2.41181680243e-06
1.98729525823e-06
1.58762562451e-06
1.22114962914e-06
9.32607757568e-07
7.41943957533e-07
6.24010037946e-07
5.34115906137e-07
4.13341882705e-07
2.27829668548e-07
6.79575316033e-08
2.37203106293e-08
1.96499954108e-08
1.9922478742e-08
1.97864075133e-08
2.11169366125e-08
2.98905747546e-08
1.53984953018e-07
2.74016347547e-06
2.82595488918e-06
2.46484833136e-06
2.02578902571e-06
1.61446567762e-06
1.23863455504e-06
9.43923917354e-07
7.51705822872e-07
6.36823885176e-07
5.5419481326e-07
4.42588046943e-07
2.60253459065e-07
8.45261843182e-08
2.69237355138e-08
2.00743924352e-08
1.99702086985e-08
1.94976120006e-08
2.02650858115e-08
2.64467307071e-08
8.54736768939e-08
2.7694461675e-06
2.86894339366e-06
2.51156950335e-06
2.05689005753e-06
1.6278199068e-06
1.24165856403e-06
9.46456237816e-07
7.57335391747e-07
6.46278684777e-07
5.68096577238e-07
4.6044484051e-07
2.79464202041e-07
9.66119687254e-08
3.00010363297e-08
2.05461034135e-08
2.00302338226e-08
1.93310545688e-08
1.95545824216e-08
2.38501331712e-08
6.29721037958e-08
2.78556454944e-06
2.89938811864e-06
2.54667432627e-06
2.07722901808e-06
1.62735733231e-06
1.23225141159e-06
9.42125735769e-07
7.60173557515e-07
6.54265955685e-07
5.78585057312e-07
4.70367866459e-07
2.8806133807e-07
1.03149872368e-07
3.21921206785e-08
2.09588961309e-08
2.01096107461e-08
1.92632331944e-08
1.90409497982e-08
2.1870795547e-08
3.9707714078e-08
1.42489006294e-05
1.42472546698e-05
1.42470414525e-05
1.42479379433e-05
1.42496500884e-05
1.42516505969e-05
1.4252642425e-05
1.42493662412e-05
1.42339414965e-05
1.41880786427e-05
1.4070955652e-05
1.3795294087e-05
1.318519014e-05
1.19210854236e-05
9.54848008154e-06
5.86981461228e-06
2.10428524107e-06
3.49345863646e-07
1.09197251791e-07
4.96675935961e-07
1.42438406752e-05
1.42398966747e-05
1.4238970067e-05
1.42400303908e-05
1.42416131083e-05
1.42407990284e-05
1.42310924e-05
1.41981773805e-05
1.41118468799e-05
1.39118318581e-05
1.34860711429e-05
1.26460587549e-05
1.11247427871e-05
8.67269385123e-06
5.39067789158e-06
2.23724749522e-06
5.35667579916e-07
1.40482691835e-07
2.56527041858e-07
9.86654068429e-07
1.42905678311e-05
1.42827448949e-05
1.42791036783e-05
1.42773876342e-05
1.42735443631e-05
1.42594818798e-05
1.42186587887e-05
1.41184214315e-05
1.38981446343e-05
1.34541395352e-05
1.26282501363e-05
1.12202033771e-05
9.06410183055e-06
6.21878207313e-06
3.23761174502e-06
1.10962158663e-06
2.75213389326e-07
1.73217549263e-07
5.16494942087e-07
1.44080376982e-06
1.43412080541e-05
1.43287639994e-05
1.43201313693e-05
1.43113437585e-05
1.42941546999e-05
1.42525003869e-05
1.41561032833e-05
1.39511502197e-05
1.35495904197e-05
1.28227955101e-05
1.16127102684e-05
9.78216802338e-06
7.3265610735e-06
4.53694162518e-06
2.0823778761e-06
6.52746853546e-07
2.1166742908e-07
2.8492006886e-07
8.53818670764e-07
1.81176450262e-06
1.43942129182e-05
1.43773494385e-05
1.4361442126e-05
1.43404312794e-05
1.43004535661e-05
1.4215502333e-05
1.40403199895e-05
1.37022776373e-05
1.30965535306e-05
1.20931980912e-05
1.05688761437e-05
8.47554906093e-06
5.94463644466e-06
3.38278145836e-06
1.41364639708e-06
4.40583168463e-07
2.23708705723e-07
4.70649867229e-07
1.19613608044e-06
2.08037960973e-06
1.44411193114e-05
1.44206552428e-05
1.43951885753e-05
1.43563367616e-05
1.42836902889e-05
1.41406306766e-05
1.38682369698e-05
1.33809394703e-05
1.25699044208e-05
1.13224993337e-05
9.56585341533e-06
7.3358384371e-06
4.85548741525e-06
2.56936805374e-06
1.00330087001e-06
3.42037249792e-07
2.9001196582e-07
7.0985107974e-07
1.48766965448e-06
2.26220710421e-06
1.44776164518e-05
1.44545971808e-05
1.44171909996e-05
1.43546679161e-05
1.42398127474e-05
1.4026060058e-05
1.36439997218e-05
1.30022761898e-05
1.1999005188e-05
1.05496712728e-05
8.63387094452e-06
6.35472830785e-06
3.98963843887e-06
1.97972356494e-06
7.43716665664e-07
3.0928698809e-07
4.06738193631e-07
9.65415420055e-07
1.71167492802e-06
2.38158062506e-06
1.45005708528e-05
1.44760703364e-05
1.44243236092e-05
1.43324361021e-05
1.41668228883e-05
1.38727052391e-05
1.33742875704e-05
1.25811740922e-05
1.14061031755e-05
9.79689413511e-06
7.78058402936e-06
5.51007926949e-06
3.29174297391e-06
1.54344969801e-06
5.80537786943e-07
3.23936377432e-07
5.6619147944e-07
1.20377950684e-06
1.87611526762e-06
2.457715673e-06
1.45075819213e-05
1.44827172338e-05
1.44143645277e-05
1.42878996361e-05
1.40644084876e-05
1.3683312728e-05
1.3066673196e-05
1.21305164987e-05
1.08066564537e-05
9.07520176584e-06
7.00318080652e-06
4.77892972572e-06
2.72211007815e-06
1.21797884872e-06
4.84322655462e-07
3.78960332629e-07
7.52487806337e-07
1.40734551758e-06
1.99491282366e-06
2.50398631099e-06
1.44969061429e-05
1.44728406466e-05
1.43858716799e-05
1.42203327076e-05
1.39334679187e-05
1.34616121472e-05
1.27285428371e-05
1.16606501537e-05
1.021077014e-05
8.38899239991e-06
6.29491562331e-06
4.14180796045e-06
2.25344724079e-06
9.76793199181e-07
4.38293051141e-07
4.70218723964e-07
9.46306922197e-07
1.57318308958e-06
2.0800583895e-06
2.52956678885e-06
1.44677733791e-05
1.44456359039e-05
1.4338313369e-05
1.41300006829e-05
1.37758575154e-05
1.32118389385e-05
1.23666527557e-05
1.11795934937e-05
9.62477431249e-06
7.73905833574e-06
5.64829400649e-06
3.58357837052e-06
1.86726629595e-06
8.02423188155e-07
4.32682752525e-07
5.91818592274e-07
1.1315686591e-06
1.70586156387e-06
2.14052243506e-06
2.54079640971e-06
1.44206224134e-05
1.44013875468e-05
1.42721633296e-05
1.40181053881e-05
1.35941601249e-05
1.29383961679e-05
1.19869400816e-05
1.06934033774e-05
9.05242939341e-06
7.12437070843e-06
5.05644332277e-06
3.09304946463e-06
1.5509387993e-06
6.82528233567e-07
4.61669874682e-07
7.34846044899e-07
1.29895565119e-06
1.81174487138e-06
2.18287602642e-06
2.54207907257e-06
1.43570022367e-05
1.43414172697e-05
1.41887928224e-05
1.38865710661e-05
1.33913616918e-05
1.26455115966e-05
1.15943670625e-05
1.02064453271e-05
8.49568697468e-06
6.54302361283e-06
4.51357373316e-06
2.66220722526e-06
1.2954576595e-06
6.07909150878e-07
5.21153393594e-07
8.88782365868e-07
1.44550919063e-06
1.89651874694e-06
2.21190283575e-06
2.53646975432e-06
1.42790008906e-05
1.42676385401e-05
1.40900487939e-05
1.37375916988e-05
1.3170369772e-05
1.23368098192e-05
1.11926959915e-05
9.72149758884e-06
7.95509228181e-06
5.99266884731e-06
4.01500284295e-06
2.28536842684e-06
1.09381675616e-06
5.71593793096e-07
6.07022668666e-07
1.04392696267e-06
1.57223862522e-06
1.96471879112e-06
2.23104722681e-06
2.52604825141e-06
1.41882374321e-05
1.41817604696e-05
1.39775792862e-05
1.3573016181e-05
1.29334533118e-05
1.20148679215e-05
1.07842563418e-05
9.23978232457e-06
7.43000875341e-06
5.47071881853e-06
3.55702638628e-06
1.95840154816e-06
9.40012991623e-07
5.68363136979e-07
7.14211985894e-07
1.19321791749e-06
1.6817776679e-06
2.01990571892e-06
2.24277136371e-06
2.51216954612e-06
1.40848001003e-05
1.40844581245e-05
1.38521846126e-05
1.33938203189e-05
1.26818229106e-05
1.16809425354e-05
1.03698701484e-05
8.7610942812e-06
6.9188658777e-06
4.97454345281e-06
3.13682791249e-06
1.67813400904e-06
8.2865330292e-07
5.94294332408e-07
8.36707428132e-07
1.33275350796e-06
1.77697180511e-06
2.064885657e-06
2.24884463718e-06
2.49565631642e-06
1.39666408315e-05
1.39749347227e-05
1.371353315e-05
1.31999338543e-05
1.24155620801e-05
1.13350319026e-05
9.94906887347e-06
8.2841535885e-06
6.41956866767e-06
4.50180266047e-06
2.75252640317e-06
1.44199243338e-06
7.54980202924e-07
6.46158292481e-07
9.68247543021e-07
1.46123437439e-06
1.8603211302e-06
2.10186625389e-06
2.25057135408e-06
2.47697227079e-06
1.38297705281e-05
1.38510882542e-05
1.35603653929e-05
1.29904887478e-05
1.21339393005e-05
1.09762809334e-05
9.52060390514e-06
7.80719603167e-06
5.93010002748e-06
4.05094182305e-06
2.40333510324e-06
1.2478143434e-06
7.15009178182e-07
7.20768273936e-07
1.1032130039e-06
1.57895629997e-06
1.93387938932e-06
2.13257519244e-06
2.24896339009e-06
2.45638899991e-06
1.36688715662e-05
1.3710008996e-05
1.33909499749e-05
1.27642880251e-05
1.18359332382e-05
1.06035896897e-05
9.08313749262e-06
7.32871314699e-06
5.44924264943e-06
3.62175398055e-06
2.08967754086e-06
1.09370398802e-06
7.05521173684e-07
8.14504841991e-07
1.23726418507e-06
1.68690012563e-06
1.99930087716e-06
2.15835929714e-06
2.24486098197e-06
2.43413743862e-06
1.34778093673e-05
1.35483346423e-05
1.32034270981e-05
1.25202212779e-05
1.15207554103e-05
1.02162423195e-05
8.63594977711e-06
6.8481873855e-06
4.97725794944e-06
3.21580249814e-06
1.81304002619e-06
9.77831545903e-07
7.23816889842e-07
9.23194888782e-07
1.36753516058e-06
1.78616675539e-06
2.05790616722e-06
2.18026425213e-06
2.2390015191e-06
2.41052237591e-06
1.3249670315e-05
1.33622521179e-05
1.29959043185e-05
1.22575073814e-05
1.11882333202e-05
9.81439313324e-06
8.17947810611e-06
6.36662507388e-06
4.51630403234e-06
2.83645271475e-06
1.57541301475e-06
8.98184000266e-07
7.67307247714e-07
1.04235948395e-06
1.49244787307e-06
1.87774520921e-06
2.11074437455e-06
2.19909415056e-06
2.23203982627e-06
2.38597941075e-06
1.29762521039e-05
1.3147317731e-05
1.27664215301e-05
1.19757663397e-05
1.08389538303e-05
9.39924531874e-06
7.71549839836e-06
5.88669375329e-06
4.07039451392e-06
2.48833991055e-06
1.37840564971e-06
8.52379308266e-07
8.33118828968e-07
1.16768036796e-06
1.6113460654e-06
1.96248377119e-06
2.15865553633e-06
2.21545471375e-06
2.22453169693e-06
2.36106703573e-06
1.2648091378e-05
1.28984842799e-05
1.25129252364e-05
1.16749106349e-05
1.04740780041e-05
8.97281317733e-06
7.24685464822e-06
5.412392004e-06
3.64484215314e-06
2.17633001904e-06
1.22238815957e-06
8.37643041751e-07
9.17898251414e-07
1.29546420029e-06
1.72413894216e-06
2.04113564545e-06
2.20232907666e-06
2.22978599128e-06
2.21690001205e-06
2.33640584474e-06
1.22553377584e-05
1.26105380754e-05
1.22333318663e-05
1.13548999117e-05
1.00948940683e-05
8.5373778831e-06
6.77688055623e-06
4.94840541862e-06
3.24535694609e-06
1.90431968089e-06
1.10608937904e-06
8.50928820315e-07
1.01789776509e-06
1.42293011454e-06
1.8310489346e-06
2.11440206308e-06
2.24234825687e-06
2.2423895498e-06
2.20940443594e-06
2.31259235779e-06
1.17891070597e-05
1.22789251128e-05
1.19257760436e-05
1.101556956e-05
9.70241005268e-06
8.09498262663e-06
6.30885548878e-06
4.49946073178e-06
2.87712861238e-06
1.67436148748e-06
1.0268235502e-06
8.89075765807e-07
1.12927614134e-06
1.54825846909e-06
1.93246355371e-06
2.18294653848e-06
2.279215746e-06
2.25345419566e-06
2.20213028081e-06
2.29011925543e-06
1.1243977822e-05
1.19008206898e-05
1.15890943844e-05
1.06567713572e-05
9.29730702807e-06
7.64729288372e-06
5.84578644132e-06
4.06993923772e-06
2.544197659e-06
1.4864371946e-06
9.81134166219e-07
9.48913326643e-07
1.24845558615e-06
1.67044419975e-06
2.02884924469e-06
2.24738517428e-06
2.3133649341e-06
2.26308281094e-06
2.19500092883e-06
2.26932378995e-06
1.06188657168e-05
1.14755910644e-05
1.12232569219e-05
1.02787611998e-05
8.88027195467e-06
7.19586489247e-06
5.39056591641e-06
3.66381629979e-06
2.24923545195e-06
1.33883998682e-06
9.65455416124e-07
1.02729463848e-06
1.37238904152e-06
1.78905424375e-06
2.12069319038e-06
2.30827061393e-06
2.34516748034e-06
2.27132096767e-06
2.18780674054e-06
2.25036644661e-06
9.91269659201e-06
1.10035093728e-05
1.08291697459e-05
9.88244909695e-06
8.45242298026e-06
6.74260028976e-06
4.94632958443e-06
3.28478799281e-06
1.99362548094e-06
1.22884093168e-06
9.76502096611e-07
1.12109752592e-06
1.49867812153e-06
1.90399097789e-06
2.20846415354e-06
2.36608590739e-06
2.37494566519e-06
2.27818560678e-06
2.18023706442e-06
2.23322230947e-06
9.12079492606e-06
1.04836937897e-05
1.04079819404e-05
9.46938354061e-06
8.01559430807e-06
6.29011431708e-06
4.5167275875e-06
2.93631923129e-06
1.77761747468e-06
1.15329588598e-06
1.01134232295e-06
1.22725599828e-06
1.62556707138e-06
2.01532833986e-06
2.29259700383e-06
2.42125433709e-06
2.40299096125e-06
2.28369112064e-06
2.17190534493e-06
2.21766118849e-06
8.23837617321e-06
9.9137268688e-06
9.96072046246e-06
9.04166999847e-06
7.57240954976e-06
5.84181448883e-06
4.10585900212e-06
2.62141827924e-06
1.60042554573e-06
1.10904240634e-06
1.06728917003e-06
1.34286618232e-06
1.75187303631e-06
2.1232353906e-06
2.37349945839e-06
2.47415831056e-06
2.42958263165e-06
2.28787098536e-06
2.16236808785e-06
2.20320469509e-06
7.26237064844e-06
9.29035591402e-06
9.48838229232e-06
8.60186110997e-06
7.12607453681e-06
5.40157867648e-06
3.71780003928e-06
2.34219423451e-06
1.46033711218e-06
1.09312169026e-06
1.14178525699e-06
1.46535547097e-06
1.87689909219e-06
2.22795901787e-06
2.45156698202e-06
2.52515357384e-06
2.45499782933e-06
2.29079527729e-06
2.15115014498e-06
2.18907399002e-06
6.19421897146e-06
8.60962134661e-06
8.99187371136e-06
8.15262243007e-06
6.67982856844e-06
4.97308327777e-06
3.35591662644e-06
2.09948340569e-06
1.35496800382e-06
1.10290949929e-06
1.23237906854e-06
1.59264873899e-06
2.00034369356e-06
2.32982019379e-06
2.5271865936e-06
2.57456730784e-06
2.47950755473e-06
2.29258468438e-06
2.13779176752e-06
2.17416680351e-06
5.05998074105e-06
7.8698734201e-06
8.4720879795e-06
7.69616827201e-06
6.23618578481e-06
4.55908179252e-06
3.02236108011e-06
1.89285219871e-06
1.28169535101e-06
1.13619094093e-06
1.33678453215e-06
1.72325014777e-06
2.12219692746e-06
2.42918815092e-06
2.60071834149e-06
2.62267892792e-06
2.50335991832e-06
2.29342003078e-06
2.12192349299e-06
2.15711277682e-06
3.91069294857e-06
7.0781894488e-06
7.93095411005e-06
7.23386583519e-06
5.79634832826e-06
4.16106301459e-06
2.71809766915e-06
1.72105029552e-06
1.23813780256e-06
1.19115338349e-06
1.45294798283e-06
1.85619248497e-06
2.24261287289e-06
2.52642201467e-06
2.67245813587e-06
2.66969342394e-06
2.52675867122e-06
2.29354370277e-06
2.10335533008e-06
2.13643884685e-06
2.76937761197e-06
6.25049516547e-06
7.37197256765e-06
6.766171615e-06
5.36019865365e-06
3.779615215e-06
2.44351743629e-06
1.58270124659e-06
1.22248029766e-06
1.26625771099e-06
1.57904774635e-06
1.99086472836e-06
2.36176504029e-06
2.62179558448e-06
2.74259948466e-06
2.71572393819e-06
2.54984936184e-06
2.29325043985e-06
2.08214911417e-06
2.11082784221e-06
1.65060294682e-06
5.40156784664e-06
6.79832451247e-06
6.29278836701e-06
4.92720333026e-06
3.41560656145e-06
2.19939082354e-06
1.47688074921e-06
1.23349410362e-06
1.35999175793e-06
1.71340760652e-06
2.12678481234e-06
2.47971724731e-06
2.71543863811e-06
2.8112175424e-06
2.76079892058e-06
2.57272397954e-06
2.29286884114e-06
2.05863823345e-06
2.07938782416e-06
7.68416228085e-07
4.53432865038e-06
6.21249454963e-06
5.81394638615e-06
4.49829869913e-06
3.0717092569e-06
1.98754559871e-06
1.40325501623e-06
1.27023789591e-06
1.47059669298e-06
1.85438519908e-06
2.26341921088e-06
2.59635886859e-06
2.80732851287e-06
2.87828988266e-06
2.80489354366e-06
2.59543662305e-06
2.29271766365e-06
2.03332347717e-06
2.04172441013e-06
3.17756552187e-07
3.6423729485e-06
5.62005335672e-06
)
;

boundaryField
{
    emptyPatch
    {
        type            empty;
    }
    minY
    {
        type            zeroGradient;
    }
    maxY
    {
        type            calculated;
        value           nonuniform List<scalar> 0();
    }
    water_to_cooler
    {
        type            compressible::alphatWallBoilingWallFunction;
        phaseType       vapor;
        relax           constant 1;
        partitioningModel
        {
            type            Lavieville;
            alphaCrit       0.2;
        }
        otherPhase      liquid;
        dmdt            uniform 0;
        dDep            uniform 1e-05;
        qQuenching      uniform 0;
        alphatConv      uniform 0;
        value           uniform 3.01273722487e-05;
    }
    water_to_heater
    {
        type            compressible::alphatWallBoilingWallFunction;
        phaseType       vapor;
        relax           constant 1;
        partitioningModel
        {
            type            Lavieville;
            alphaCrit       0.2;
        }
        otherPhase      liquid;
        dmdt            uniform 0;
        dDep            uniform 1e-05;
        qQuenching      uniform 0;
        alphatConv      uniform 0;
        value           nonuniform List<scalar> 
61
(
5.58033648191e-11
1.04322269197e-07
1.04322269197e-07
1.0432142965e-07
1.0432142965e-07
1.04322269197e-07
1.04322269197e-07
7.86808932361e-08
4.83294016747e-08
4.07838569875e-08
4.07838569875e-08
4.04573177589e-08
4.04573177589e-08
4.16988575587e-08
4.16988575587e-08
4.0332079358e-08
4.19600965978e-08
4.01390279322e-08
4.01390279322e-08
4.12665133767e-08
4.12665133767e-08
4.00690454077e-08
4.00690454077e-08
3.32029607468e-08
2.64571370074e-08
4.13542636817e-08
4.13542636817e-08
1.08219068952e-07
1.08219068952e-07
1.20450317597e-07
1.20450317597e-07
1.13772289419e-07
1.23769251204e-07
1.13940794179e-07
1.13940794179e-07
1.2368039298e-07
1.2368039298e-07
1.13799297693e-07
1.13799297693e-07
1.21400105799e-07
1.13772289419e-07
1.17212757208e-07
1.17212757208e-07
1.13312274247e-07
1.13312274247e-07
9.95965442721e-08
9.95965442721e-08
5.26070636567e-08
2.95017219677e-08
3.27806940769e-08
3.27806940769e-08