/*--------------------------------*- C++ -*----------------------------------*\
| =========                 |                                                 |
| \\      /  F ield         | OpenFOAM: The Open Source CFD Toolbox           |
|  \\    /   O peration     | Version:  2312                                  |
|   \\  /    A nd           | Website:  www.openfoam.com                      |
|    \\/     M anipulation  |                                                 |
\*---------------------------------------------------------------------------*/
FoamFile
{
    version     2.0;
    format      ascii;
    arch        "LSB;label=32;scalar=64";
    class       volScalarField;
    location    "38";
    object      pMean;
}
// * * * * * * * * * * * * * * * * * * * * * * * * * * * * * * * * * * * * * //

dimensions      [1 -1 -2 0 0 0 0];

internalField   nonuniform List<scalar> 
1875
(
107174
107154
107106
107073
107046
107026
107013
107005
107000
106999
107000
107002
107005
107008
107011
107015
107018
107024
107031
107041
107055
107074
107096
107130
107146
106921
106899
106870
106850
106834
106823
106815
106810
106808
106808
106809
106812
106815
106818
106821
106824
106828
106832
106838
106846
106856
106869
106884
106905
106922
106762
106751
106739
106729
106721
106714
106708
106703
106700
106698
106697
106698
106701
106704
106709
106714
106721
106727
106735
106743
106751
106759
106768
106778
106787
106631
106624
106615
106606
106598
106591
106584
106578
106573
106569
106568
106567
106569
106572
106577
106583
106591
106599
106608
106617
106626
106635
106643
106650
106655
106534
106530
106524
106518
106512
106506
106500
106496
106491
106488
106486
106486
106487
106490
106494
106500
106506
106513
106519
106526
106533
106540
106546
106552
106555
106437
106435
106431
106425
106419
106413
106407
106402
106398
106395
106392
106392
106392
106394
106397
106401
106406
106411
106416
106422
106428
106434
106441
106446
106449
106346
106345
106342
106337
106331
106326
106320
106316
106312
106309
106307
106306
106306
106306
106308
106309
106312
106314
106318
106322
106327
106333
106338
106343
106345
106246
106245
106242
106238
106232
106226
106221
106216
106212
106209
106207
106206
106205
106205
106205
106206
106207
106209
106212
106215
106219
106224
106229
106233
106234
106143
106143
106141
106137
106132
106126
106121
106117
106112
106108
106105
106103
106102
106101
106100
106100
106101
106102
106104
106107
106111
106115
106119
106123
106124
106032
106032
106030
106026
106022
106017
106012
106007
106002
105998
105994
105991
105989
105987
105987
105987
105988
105989
105991
105993
105996
106000
106004
106007
106008
105919
105919
105916
105914
105910
105905
105901
105896
105891
105886
105881
105878
105875
105873
105872
105873
105873
105875
105877
105879
105882
105886
105889
105892
105894
105802
105802
105799
105797
105793
105789
105785
105780
105775
105770
105766
105762
105760
105758
105757
105757
105757
105759
105761
105764
105767
105771
105773
105776
105778
105685
105684
105681
105679
105676
105672
105669
105665
105660
105656
105652
105649
105646
105645
105645
105645
105646
105648
105650
105653
105656
105659
105662
105665
105667
105567
105565
105563
105561
105558
105556
105553
105550
105547
105544
105541
105538
105537
105536
105536
105537
105539
105541
105543
105545
105548
105551
105554
105557
105559
105451
105449
105447
105445
105443
105442
105440
105439
105437
105435
105434
105433
105433
105433
105434
105435
105436
105438
105440
105441
105444
105446
105450
105453
105455
105338
105336
105334
105332
105330
105329
105329
105329
105329
105328
105328
105329
105329
105331
105332
105333
105335
105337
105339
105340
105342
105344
105347
105350
105352
105230
105228
105226
105224
105222
105221
105221
105222
105222
105223
105225
105226
105228
105229
105231
105232
105234
105236
105238
105239
105241
105243
105245
105247
105248
105125
105123
105121
105119
105117
105116
105115
105116
105116
105117
105119
105122
105124
105126
105128
105130
105132
105133
105135
105137
105138
105141
105142
105144
105144
105021
105020
105018
105016
105013
105012
105010
105010
105010
105011
105013
105015
105018
105020
105023
105025
105027
105029
105031
105033
105035
105037
105039
105040
105040
104918
104916
104915
104912
104910
104908
104905
104904
104903
104904
104905
104908
104911
104913
104916
104919
104921
104923
104924
104926
104929
104931
104932
104934
104934
104815
104813
104812
104809
104807
104804
104802
104800
104799
104798
104799
104801
104804
104806
104809
104811
104813
104815
104817
104818
104820
104822
104823
104825
104826
104713
104712
104710
104708
104706
104703
104700
104698
104696
104695
104695
104696
104698
104700
104702
104704
104706
104707
104708
104710
104711
104713
104714
104716
104717
104611
104609
104608
104606
104603
104601
104598
104595
104593
104592
104591
104592
104593
104594
104596
104598
104599
104600
104601
104602
104604
104605
104606
104608
104609
104508
104507
104505
104503
104500
104497
104494
104491
104489
104487
104487
104487
104487
104488
104489
104490
104491
104492
104493
104495
104496
104498
104499
104501
104501
104404
104403
104401
104399
104396
104393
104390
104388
104385
104383
104382
104382
104382
104382
104383
104383
104384
104385
104386
104387
104389
104390
104392
104393
104394
104299
104298
104297
104294
104291
104289
104286
104283
104281
104278
104277
104276
104276
104276
104276
104276
104277
104278
104279
104281
104283
104284
104286
104287
104288
104193
104192
104190
104189
104186
104183
104180
104177
104175
104173
104171
104170
104170
104169
104169
104170
104170
104171
104173
104175
104177
104178
104180
104181
104182
104085
104085
104083
104081
104079
104076
104073
104070
104068
104066
104065
104064
104064
104064
104064
104065
104066
104067
104069
104070
104072
104074
104076
104077
104078
103978
103978
103976
103974
103971
103968
103965
103963
103961
103960
103959
103959
103959
103960
103961
103962
103963
103965
103967
103968
103970
103971
103973
103974
103975
103872
103872
103870
103868
103865
103862
103860
103858
103856
103855
103855
103855
103856
103857
103858
103860
103861
103863
103864
103866
103867
103869
103870
103871
103872
103766
103765
103763
103762
103759
103757
103755
103753
103752
103751
103751
103751
103752
103753
103754
103756
103758
103760
103761
103763
103764
103765
103766
103767
103767
103659
103658
103657
103655
103653
103651
103649
103648
103647
103646
103646
103646
103646
103647
103649
103651
103653
103654
103656
103657
103658
103659
103660
103661
103662
103552
103551
103550
103548
103546
103544
103543
103542
103541
103540
103540
103540
103541
103542
103544
103546
103547
103549
103550
103551
103552
103553
103554
103555
103556
103446
103445
103443
103441
103439
103437
103436
103435
103434
103434
103434
103435
103437
103438
103440
103441
103442
103443
103445
103446
103447
103448
103448
103449
103450
103339
103338
103337
103335
103333
103331
103330
103328
103328
103327
103328
103329
103331
103333
103335
103336
103338
103339
103340
103341
103342
103343
103343
103344
103345
103234
103233
103231
103229
103227
103226
103224
103223
103222
103222
103222
103223
103225
103227
103230
103231
103232
103234
103235
103236
103237
103237
103238
103239
103239
103129
103128
103127
103125
103123
103121
103119
103118
103118
103117
103118
103119
103120
103122
103123
103125
103126
103127
103128
103129
103131
103131
103132
103133
103133
103025
103025
103023
103022
103020
103018
103017
103015
103015
103014
103015
103015
103016
103016
103017
103018
103019
103020
103021
103022
103023
103024
103026
103027
103027
102923
102922
102921
102920
102918
102917
102915
102914
102913
102913
102912
102912
102913
102913
102913
102914
102914
102915
102915
102916
102917
102918
102919
102921
102921
102820
102819
102818
102817
102816
102814
102813
102812
102811
102810
102810
102810
102809
102810
102810
102810
102810
102811
102811
102811
102812
102813
102814
102816
102816
102716
102716
102715
102714
102712
102711
102710
102709
102708
102707
102706
102706
102705
102705
102706
102706
102707
102707
102707
102707
102708
102709
102710
102711
102712
102613
102612
102611
102610
102608
102607
102605
102604
102603
102602
102601
102601
102600
102601
102601
102601
102602
102602
102603
102603
102604
102605
102606
102607
102608
102508
102507
102506
102505
102503
102502
102500
102499
102498
102497
102496
102495
102495
102495
102496
102496
102497
102498
102498
102499
102500
102501
102503
102503
102504
102402
102402
102401
102399
102398
102396
102395
102394
102393
102392
102391
102390
102390
102390
102390
102391
102392
102393
102394
102395
102396
102397
102398
102399
102399
102296
102295
102294
102293
102292
102291
102289
102288
102287
102286
102285
102285
102285
102285
102285
102285
102285
102286
102288
102289
102290
102291
102292
102293
102294
102189
102189
102187
102186
102185
102184
102183
102182
102181
102180
102180
102179
102179
102178
102178
102178
102179
102180
102181
102183
102184
102186
102187
102188
102189
102083
102082
102081
102079
102078
102077
102076
102075
102074
102073
102072
102072
102072
102072
102072
102072
102073
102074
102076
102077
102079
102080
102082
102083
102084
101976
101975
101974
101972
101971
101970
101969
101968
101967
101966
101965
101965
101965
101965
101966
101967
101969
101970
101971
101973
101974
101976
101977
101978
101979
101870
101869
101868
101867
101866
101865
101863
101862
101861
101860
101859
101859
101860
101861
101862
101863
101865
101867
101868
101869
101871
101872
101873
101874
101874
101766
101765
101764
101763
101762
101760
101759
101757
101756
101755
101755
101755
101755
101757
101759
101760
101762
101763
101765
101766
101767
101768
101769
101770
101771
101661
101660
101660
101658
101657
101655
101654
101652
101651
101651
101651
101651
101652
101654
101655
101657
101659
101660
101661
101663
101664
101665
101665
101666
101666
101557
101556
101555
101554
101552
101551
101549
101548
101547
101547
101547
101547
101548
101550
101551
101552
101554
101555
101556
101557
101558
101560
101560
101561
101561
101453
101452
101451
101449
101448
101447
101446
101445
101444
101443
101443
101443
101444
101444
101445
101446
101447
101448
101449
101451
101452
101453
101454
101455
101455
101349
101348
101347
101346
101345
101344
101343
101342
101342
101341
101341
101340
101340
101340
101340
101340
101341
101342
101343
101344
101345
101346
101348
101348
101349
101247
101247
101246
101244
101243
101242
101242
101241
101240
101240
101239
101239
101238
101237
101237
101236
101236
101237
101237
101239
101240
101241
101242
101243
101244
101146
101146
101145
101144
101142
101141
101141
101140
101139
101139
101139
101138
101137
101136
101135
101134
101134
101134
101134
101135
101136
101137
101139
101139
101141
101046
101045
101044
101043
101042
101040
101039
101039
101038
101037
101037
101036
101036
101035
101035
101034
101034
101033
101033
101034
101035
101036
101037
101038
101039
100944
100943
100942
100941
100940
100939
100938
100937
100936
100935
100935
100934
100934
100934
100934
100934
100933
100933
100933
100934
100935
100936
100938
100939
100940
100842
100841
100841
100839
100838
100837
100836
100835
100835
100834
100834
100833
100833
100833
100833
100833
100834
100834
100835
100835
100837
100838
100840
100841
100842
100742
100741
100740
100739
100738
100737
100736
100735
100735
100734
100734
100733
100733
100733
100733
100733
100733
100734
100735
100737
100739
100741
100742
100743
100744
100644
100642
100642
100641
100640
100639
100638
100637
100637
100636
100636
100635
100634
100634
100633
100634
100635
100636
100638
100640
100642
100644
100646
100646
100647
100546
100544
100544
100543
100542
100541
100540
100539
100539
100538
100537
100537
100536
100535
100535
100535
100536
100538
100540
100542
100545
100546
100548
100548
100549
100451
100449
100449
100448
100447
100446
100445
100445
100444
100443
100442
100442
100441
100440
100440
100441
100442
100444
100446
100448
100450
100451
100452
100453
100454
100354
100352
100352
100351
100350
100350
100349
100348
100347
100346
100345
100345
100344
100344
100344
100345
100346
100348
100350
100351
100353
100354
100355
100355
100357
100265
100263
100263
100262
100262
100261
100260
100260
100259
100258
100257
100257
100257
100257
100257
100258
100259
100259
100261
100262
100263
100263
100264
100264
100266
100168
100166
100166
100165
100165
100164
100164
100163
100162
100161
100161
100161
100160
100161
100161
100161
100162
100163
100163
100164
100164
100165
100166
100166
100167
100079
100078
100078
100078
100077
100077
100076
100076
100076
100076
100076
100076
100077
100076
100076
100077
100077
100077
100077
100077
100077
100076
100076
100075
100076
100015
100016
100017
100016
100016
100016
100016
100015
100015
100015
100015
100015
100015
100015
100015
100016
100016
100016
100016
100016
100016
100016
100016
100015
100014
100002
100002
100002
100002
100002
100002
100002
100002
100002
100002
100002
100002
100002
100002
100002
100002
100002
100002
100002
100002
100002
100002
100002
100002
100002
100001
100001
100001
100001
100001
100001
100001
100001
100001
100001
100001
100001
100001
100001
100001
100001
100001
100001
100001
100001
100001
100001
100001
100001
100001
100001
100001
100001
100001
100001
100001
100001
100001
100001
100001
100001
100001
100001
100001
100001
100001
100001
100001
100001
100001
100001
100001
100001
100001
100001
100001
100001
100001
100001
100001
100001
100001
100001
100001
100001
100001
100001
100001
100001
100001
100001
100001
100001
100001
100001
100001
100001
100001
100001
100001
100000
100000
100000
100000
100000
100000
100000
100000
100000
100000
100000
100000
100000
100000
100000
100000
100000
100000
100000
100000
100000
100000
100000
100000
100000
100000
100000
100000
100000
100000
100000
100000
100000
100000
100000
100000
100000
100000
100000
100000
100000
100000
100000
100000
100000
100000
100000
100000
100000
100000
100000
100000
100000
100000
100000
100000
100000
100000
100000
100000
100000
100000
100000
100000
100000
100000
100000
100000
100000
100000
100000
100000
100000
100000
100000
)
;

boundaryField
{
    inlet
    {
        type            calculated;
        value           nonuniform List<scalar> 
25
(
107203
107183
107135
107103
107075
107055
107041
107033
107028
107026
107027
107029
107032
107035
107038
107041
107045
107051
107058
107069
107083
107102
107124
107159
107174
)
;
    }
    outlet
    {
        type            calculated;
        value           uniform 100000;
    }
    walls
    {
        type            calculated;
        value           nonuniform List<scalar> 
150
(
107174
106921
106762
106631
106534
106437
106346
106246
106143
106032
105919
105802
105685
105567
105451
105338
105230
105125
105021
104918
104815
104713
104611
104508
104404
104299
104193
104085
103978
103872
103766
103659
103552
103446
103339
103234
103129
103025
102923
102820
102716
102613
102508
102402
102296
102189
102083
101976
101870
101766
101661
101557
101453
101349
101247
101146
101046
100944
100842
100742
100644
100546
100451
100354
100265
100168
100079
100015
100002
100001
100001
100001
100000
100000
100000
107146
106922
106787
106655
106555
106449
106345
106234
106124
106008
105894
105778
105667
105559
105455
105352
105248
105144
105040
104934
104826
104717
104609
104501
104394
104288
104182
104078
103975
103872
103767
103662
103556
103450
103345
103239
103133
103027
102921
102816
102712
102608
102504
102399
102294
102189
102084
101979
101874
101771
101666
101561
101455
101349
101244
101141
101039
100940
100842
100744
100647
100549
100454
100357
100266
100167
100076
100014
100002
100001
100001
100001
100000
100000
100000
)
;
    }
    defaultFaces
    {
        type            empty;
    }
}


// ************************************************************************* //
