/*--------------------------------*- C++ -*----------------------------------*\
| =========                 |                                                 |
| \\      /  F ield         | OpenFOAM: The Open Source CFD Toolbox           |
|  \\    /   O peration     | Version:  2312                                  |
|   \\  /    A nd           | Website:  www.openfoam.com                      |
|    \\/     M anipulation  |                                                 |
\*---------------------------------------------------------------------------*/
FoamFile
{
    version     2.0;
    format      ascii;
    arch        "LSB;label=32;scalar=64";
    class       surfaceScalarField;
    location    "0.48/water";
    object      phi;
}
// * * * * * * * * * * * * * * * * * * * * * * * * * * * * * * * * * * * * * //

dimensions      [0 3 -1 0 0 0 0];

oriented        oriented;

internalField   nonuniform List<scalar> 
2914
(
1.5376934624e-07
5.07455092201e-07
1.61822987094e-07
6.58555011425e-07
2.03498015267e-07
8.23175691946e-07
2.47967826947e-07
9.16514251832e-07
2.81521007902e-07
9.85437921709e-07
2.98570864963e-07
1.04384275564e-06
2.93367539355e-07
1.09549308286e-06
2.53490440023e-07
1.1362344024e-06
1.46902859521e-07
1.13311174854e-06
2.52052553205e-08
8.64137850536e-07
-4.87547049491e-08
7.31948469172e-07
-8.29649325443e-08
6.68773698542e-07
-9.76246829165e-08
6.56578067487e-07
-1.04142898812e-07
6.67665317768e-07
-1.08872557666e-07
6.88610954217e-07
-1.13980573801e-07
7.09610966456e-07
-1.18234388192e-07
7.25092217544e-07
-1.1982877622e-07
7.32916161132e-07
-1.16880227765e-07
7.33361300391e-07
7.36144085451e-07
-1.04101486077e-07
2.18834384014e-07
4.48111326953e-07
2.27815715252e-07
6.3296988138e-07
2.64317831695e-07
7.79505422803e-07
2.99358022463e-07
8.77294766014e-07
3.30586555651e-07
9.51356517778e-07
3.56005397317e-07
1.01651605494e-06
3.75084132415e-07
1.07512425243e-06
3.85743634123e-07
1.12479693697e-06
3.71634438012e-07
1.14682994151e-06
1.8815771445e-07
1.04753948931e-06
9.9778748615e-08
8.20411627415e-07
4.7412074427e-08
7.21248054906e-07
1.75933570064e-08
6.86481409872e-07
-6.07728832779e-10
6.85926153706e-07
-1.35068350173e-08
7.01564874206e-07
-2.56598045845e-08
7.21820600865e-07
-3.65187810113e-08
7.36009192883e-07
-4.43268124577e-08
7.40784992863e-07
-4.78959523782e-08
7.36992997912e-07
7.35193697417e-07
-4.68794160078e-08
1.9363490225e-07
4.14261862569e-07
2.46012991395e-07
5.60848645863e-07
2.91487297945e-07
7.23034302876e-07
3.24491794907e-07
8.38416976564e-07
3.49309197999e-07
9.23260323564e-07
3.69256495099e-07
9.94467945943e-07
3.82519254964e-07
1.06054906426e-06
3.85954998748e-07
1.12054108949e-06
3.6820436741e-07
1.16415236552e-06
2.966632767e-07
1.11894221894e-06
2.14987285971e-07
9.02130429432e-07
1.57569416842e-07
7.7876347359e-07
1.18837911523e-07
7.25303276281e-07
9.18120144704e-08
7.13017533409e-07
7.1878688937e-08
7.21549178117e-07
5.43184895929e-08
7.39432984699e-07
3.84049823291e-08
7.51978385181e-07
2.61034869262e-08
7.53143915582e-07
1.80940283421e-08
7.45064343868e-07
7.40201534011e-07
1.3150864428e-08
2.0832577429e-07
3.6488423912e-07
2.49971652007e-07
4.98509718136e-07
3.24295976772e-07
6.38030865569e-07
3.46745607295e-07
8.09560856527e-07
3.61865719625e-07
9.04549099628e-07
3.73997439318e-07
9.80282442509e-07
3.8495865118e-07
1.04828294385e-06
3.92216432506e-07
1.11250028639e-06
3.91904588492e-07
1.16402441334e-06
3.57811581397e-07
1.15287138124e-06
2.97870435923e-07
9.62088903271e-07
2.44846077466e-07
8.31874247188e-07
2.03337127441e-07
7.66903215595e-07
1.7116762154e-07
7.4525703368e-07
1.45582409807e-07
7.47183894116e-07
1.23717404159e-07
7.61345837904e-07
1.03975904516e-07
7.71771233164e-07
8.86602314738e-08
7.68515739195e-07
7.82159356784e-08
7.55568311641e-07
7.48588657584e-07
6.98940137074e-08
1.61015370544e-07
3.68223857856e-07
1.64428602143e-07
4.80095393231e-07
2.22471648827e-07
5.72839179947e-07
2.79171678293e-07
7.48232406527e-07
3.11105312655e-07
8.69683993442e-07
3.35328777244e-07
9.54227402848e-07
3.54628528946e-07
1.02786244271e-06
3.71747317538e-07
1.0946802114e-06
3.8423638068e-07
1.15114500983e-06
3.84246297816e-07
1.15270560823e-06
3.51023143971e-07
9.95320462116e-07
3.09713098436e-07
8.73262345784e-07
2.70569124256e-07
8.06136504032e-07
2.36834802489e-07
7.79064257046e-07
2.07640050445e-07
7.76429207433e-07
1.82067531357e-07
7.86961592252e-07
1.59393718185e-07
7.94494855566e-07
1.42265623374e-07
7.85696565706e-07
1.30643859453e-07
7.67249111755e-07
7.58695281531e-07
1.2059955299e-07
1.27646493471e-07
4.07881641508e-07
1.22328802038e-07
4.73030204386e-07
1.38490456146e-07
5.51266125964e-07
2.26274581826e-07
6.57196016267e-07
2.6933164825e-07
8.24281999266e-07
2.95872571114e-07
9.26185700497e-07
3.17249796258e-07
1.005541795e-06
3.37720842992e-07
1.07364185525e-06
3.61633134039e-07
1.12691491609e-06
3.88909227281e-07
1.1253083683e-06
3.82820104225e-07
1.00142157569e-06
3.54301114397e-07
9.01854088227e-07
3.20308686234e-07
8.40214095084e-07
2.87285565445e-07
8.12158486699e-07
2.56488540776e-07
8.07274830136e-07
2.28158243462e-07
8.15331995737e-07
2.03593948695e-07
8.1910186043e-07
1.85963098084e-07
8.03380869109e-07
1.74704077734e-07
7.78563733705e-07
7.69156482023e-07
1.6430837801e-07
1.10056404205e-07
4.66622082658e-07
9.45313027213e-08
4.77112216663e-07
9.26180899663e-08
5.48578553618e-07
1.13425377324e-07
6.3431616845e-07
1.84923741813e-07
7.51384111759e-07
2.26780592418e-07
8.83321403386e-07
2.54279247209e-07
9.77387367378e-07
2.82770803289e-07
1.04475152903e-06
3.23433183462e-07
1.08604476173e-06
3.87402523544e-07
1.06127113653e-06
3.99061996613e-07
9.89788350189e-07
3.81244034439e-07
9.19744998671e-07
3.52446683774e-07
8.69093128518e-07
3.20969001396e-07
8.43703491447e-07
2.89718681103e-07
8.38569751113e-07
2.5957025336e-07
8.45515912114e-07
2.34274639163e-07
8.444446471e-07
2.17471789101e-07
8.20230126032e-07
2.07953639988e-07
7.88144914439e-07
7.77546204768e-07
1.9962504907e-07
1.11562363323e-07
5.24559475598e-07
8.34329178595e-08
4.93698115223e-07
6.38162633452e-08
5.64159020402e-07
5.43503929928e-08
6.42423655729e-07
7.48527886576e-08
7.30187431868e-07
1.23948372412e-07
8.33722375605e-07
1.76448076447e-07
9.24537527982e-07
2.36954203838e-07
9.84029994454e-07
3.11660093849e-07
1.01123584764e-06
3.70914274948e-07
1.00200796593e-06
3.90810382178e-07
9.69947715113e-07
3.84432136546e-07
9.26206671472e-07
3.62935422527e-07
8.90673210665e-07
3.34879444528e-07
8.71825414192e-07
3.04222328945e-07
8.69268929741e-07
2.72705823206e-07
8.77070655313e-07
2.47189289726e-07
8.69996735362e-07
2.31306164391e-07
8.36168168716e-07
2.22998947541e-07
7.96493274487e-07
7.8943839448e-07
2.11146415289e-07
1.32634272534e-07
5.6017503286e-07
9.31768393089e-08
5.21539475955e-07
6.40790389917e-08
5.89589910682e-07
2.82217625014e-08
6.77361299375e-07
2.55812535734e-08
7.32569733037e-07
6.43064138956e-08
7.94805092328e-07
1.27316610162e-07
8.61399567578e-07
1.9859681808e-07
9.12686254084e-07
2.66530732808e-07
9.43299547519e-07
3.18186473859e-07
9.50398307094e-07
3.48538906454e-07
9.39672262038e-07
3.55440655235e-07
9.19390614601e-07
3.44918775056e-07
9.01272526672e-07
3.23457201882e-07
8.93343656366e-07
2.93907649754e-07
8.98853963468e-07
2.63143560897e-07
9.07864323565e-07
2.38501698669e-07
8.94691368185e-07
2.23459972141e-07
8.51250492997e-07
2.15327485658e-07
8.04674499134e-07
8.29183001807e-07
1.75683614141e-07
1.47383732564e-07
5.79022205694e-07
1.06181417147e-07
5.51734762608e-07
7.79752186028e-08
6.14494252572e-07
3.09187919198e-08
7.23755293001e-07
1.54210542945e-09
7.61939801566e-07
1.79135915132e-08
7.78454799121e-07
7.02798585309e-08
8.09052736079e-07
1.37180978877e-07
8.45828609981e-07
2.02915737815e-07
8.77631932677e-07
2.56199736246e-07
8.9719588123e-07
2.91265454027e-07
9.04692998423e-07
3.05926750506e-07
9.04808757392e-07
3.0319410222e-07
9.04066953714e-07
2.86934302508e-07
9.09643596023e-07
2.59819808336e-07
9.25998845771e-07
2.32268441132e-07
9.35467172237e-07
2.09382025116e-07
9.17614830405e-07
1.94136418826e-07
8.66549035227e-07
1.73625106648e-07
8.25270889109e-07
9.08284363613e-07
9.466128566e-08
1.68805628921e-07
5.72209659141e-07
1.3848996836e-07
5.69381918262e-07
1.17189598478e-07
6.31975023207e-07
7.33224864195e-08
7.66800158856e-07
3.24049088051e-08
8.0291118728e-07
2.79269345411e-08
7.83058767548e-07
5.94845384214e-08
7.77593572897e-07
1.10449993287e-07
7.94944331114e-07
1.64915102808e-07
8.23245787212e-07
2.10428150091e-07
8.51759269764e-07
2.4041036935e-07
8.74780877397e-07
2.52908250543e-07
8.92369918867e-07
2.50996349862e-07
9.06024472966e-07
2.37727639161e-07
9.22948534239e-07
2.16591420513e-07
9.47184654421e-07
1.92940896276e-07
9.59159688105e-07
1.6704680587e-07
9.43565152244e-07
1.26612403686e-07
9.07074894119e-07
5.28934166125e-08
8.99042045144e-07
9.71204068351e-07
-9.80938733641e-09
1.80383435953e-07
5.50328230419e-07
1.69338320359e-07
5.65705476866e-07
1.53750716174e-07
6.42277793223e-07
1.23924305445e-07
7.95190718732e-07
9.69716797665e-08
8.29705376193e-07
9.10233830399e-08
7.89118696497e-07
1.09689821926e-07
7.59046983557e-07
1.44205513036e-07
7.60524913251e-07
1.81203317921e-07
7.86330114201e-07
2.10166168978e-07
8.22870161039e-07
2.26796523091e-07
8.5821680731e-07
2.31015336325e-07
8.88210310428e-07
2.25003292818e-07
9.12087999952e-07
2.11706029552e-07
9.36293087089e-07
1.95207667587e-07
9.63725260235e-07
1.67486918767e-07
9.86917348862e-07
9.94045153734e-08
1.01171442309e-06
-3.32198056531e-08
1.03974962583e-06
-1.48106999033e-07
1.01413231209e-06
9.72778699368e-07
-1.49469836424e-07
1.73175081376e-07
5.36416907767e-07
1.64048968459e-07
5.59480532781e-07
1.46684204788e-07
6.54064648954e-07
1.56955223454e-07
7.83123456155e-07
1.78574719646e-07
8.07600311252e-07
1.9610095453e-07
7.71511245904e-07
2.16540423537e-07
7.38645618538e-07
2.40550903441e-07
7.36579768229e-07
2.59128592117e-07
7.67816690266e-07
2.66105664579e-07
8.15949665057e-07
2.62422194527e-07
8.61944963423e-07
2.51186847862e-07
8.99477812609e-07
2.32775257804e-07
9.30515554528e-07
2.07864930556e-07
9.61203730537e-07
1.74747429922e-07
9.96825694031e-07
1.07589497218e-07
1.0540688805e-06
-4.59364211191e-08
1.16531136743e-06
-2.86791340524e-07
1.28083187533e-06
-3.44250494996e-07
1.07180156631e-06
9.24761695057e-07
-2.96055664687e-07
1.49023492548e-07
5.5476319945e-07
1.22800332617e-07
5.73194502217e-07
1.21762895508e-07
6.50625405395e-07
1.82709806265e-07
7.20373396615e-07
2.5771265989e-07
7.31679717377e-07
3.14556010841e-07
7.14209637095e-07
3.47323077329e-07
7.05687903829e-07
3.5899922601e-07
7.24845872366e-07
3.4898780306e-07
7.77822933982e-07
3.20913999741e-07
8.44032199657e-07
2.84029134948e-07
8.98848191997e-07
2.40635177384e-07
9.4289845229e-07
1.85873633889e-07
9.85340176603e-07
1.14436109308e-07
1.03275017595e-06
1.68180690208e-08
1.09464530934e-06
-1.17966019167e-07
1.18909628836e-06
-2.80484780971e-07
1.32806826445e-06
-3.82831059271e-07
1.38345468917e-06
-3.92334106681e-07
1.0815466838e-06
8.62520330994e-07
-3.29915233444e-07
1.5324431753e-07
5.66119182713e-07
1.26924303913e-07
5.86069302413e-07
1.5473825256e-07
6.17468360316e-07
2.29260167196e-07
6.43005096303e-07
3.15797789133e-07
6.43441800955e-07
3.87209219425e-07
6.41825608057e-07
4.31138501638e-07
6.61243767798e-07
4.31116804785e-07
7.24624292302e-07
3.85698084582e-07
8.23157759964e-07
3.17691939787e-07
9.12059028177e-07
2.40006956838e-07
9.76605048074e-07
1.51583055202e-07
1.03140925895e-06
5.31044898971e-08
1.08391482206e-06
-5.21635212989e-08
1.13814531552e-06
-1.53898648636e-07
1.19654490711e-06
-2.27915861988e-07
1.26330751777e-06
-2.30918245361e-07
1.33128421165e-06
-2.07238141504e-07
1.35998509929e-06
-2.54393594949e-07
1.12889928237e-06
8.35173900995e-07
-2.26888608554e-07
1.83706220293e-07
5.4057173677e-07
1.82038286613e-07
5.6946501954e-07
2.1369903853e-07
5.77229838691e-07
2.75798616803e-07
5.76410922255e-07
3.4719909921e-07
5.6958878804e-07
4.11001668153e-07
5.76708257347e-07
4.58133924862e-07
6.13425274465e-07
4.4974193848e-07
7.32673941158e-07
3.75729694423e-07
8.97040258851e-07
2.96580013498e-07
9.91208113551e-07
2.18773493344e-07
1.05447154919e-06
1.43303655916e-07
1.10697887327e-06
7.02338598878e-08
1.15710868007e-06
3.41622952171e-09
1.20511758422e-06
-5.31157681562e-08
1.25325071496e-06
-9.28564021597e-08
1.30323925038e-06
-1.16520517492e-07
1.35515008328e-06
-1.389488146e-07
1.38262152358e-06
-7.75827072897e-08
1.06772520988e-06
8.36225722801e-07
-7.84828930621e-08
1.97825921411e-07
4.97675867735e-07
2.07874796263e-07
5.37594883612e-07
2.32029213943e-07
5.42784905957e-07
2.75364619026e-07
5.28116589986e-07
3.25487372788e-07
5.17077882375e-07
3.71883911454e-07
5.29188960636e-07
4.08616842786e-07
5.76183423286e-07
3.57618740847e-07
7.83443924856e-07
2.96852315156e-07
9.57754157079e-07
2.45035022155e-07
1.04304641024e-06
1.96221934084e-07
1.10335884524e-06
1.48346151473e-07
1.15495009588e-06
1.02858120466e-07
1.20271954145e-06
5.92972795368e-08
1.24882147036e-06
1.91537698889e-08
1.29356064832e-06
-1.52900228472e-08
1.33786622062e-06
-3.50453248879e-08
1.3751013914e-06
4.94829512012e-09
1.34283094366e-06
5.48283880469e-08
1.01802515257e-06
8.4303078654e-07
4.81661101154e-08
1.98641729401e-07
4.55839720986e-07
2.01022579991e-07
5.13465494207e-07
2.15007731947e-07
5.19057460729e-07
2.41595468412e-07
4.97291389536e-07
2.71493031317e-07
4.85415585634e-07
2.98104192696e-07
5.01906165366e-07
3.15434229319e-07
5.58645043304e-07
2.57759379655e-07
8.41039907374e-07
2.15688309887e-07
9.99826189778e-07
1.8022594443e-07
1.07856890945e-06
1.47863636812e-07
1.13580428769e-06
1.16458126651e-07
1.1864650508e-06
8.42602224913e-08
1.23504202163e-06
4.9946882737e-08
1.2832817527e-06
1.19070249141e-08
1.33176642564e-06
-2.93717542311e-08
1.37932806467e-06
-6.70591636889e-08
1.41298485075e-06
9.52044527313e-08
1.18076042695e-06
1.39388270953e-07
9.74004895326e-07
8.51604795312e-07
1.30944599304e-07
1.86804323382e-07
4.2742176756e-07
1.79237803376e-07
5.01169350992e-07
1.84371341951e-07
5.05693035226e-07
1.98362423363e-07
4.80090823879e-07
2.11809990541e-07
4.70832851888e-07
2.2021903943e-07
4.93187249028e-07
2.1774706149e-07
5.61102306178e-07
1.7053447902e-07
8.88271605518e-07
1.38082367883e-07
1.03233782113e-06
1.13359183028e-07
1.10337251455e-06
9.12082879537e-08
1.15806016936e-06
6.9595475116e-08
1.20819415119e-06
4.67229564397e-08
1.25805013815e-06
2.2497664508e-08
1.30765782578e-06
-2.06935383634e-09
1.35650367534e-06
-1.91092793799e-08
1.39655194387e-06
6.36021891792e-08
1.33046501692e-06
1.56366931157e-07
1.08816819011e-06
1.90269292577e-07
9.40242937199e-07
8.69240015437e-07
1.72753566608e-07
1.65775380869e-07
4.24554871821e-07
1.50018565488e-07
5.00404385863e-07
1.49533789215e-07
4.99925770704e-07
1.54845293326e-07
4.72555811293e-07
1.55412980217e-07
4.69603934276e-07
1.48718712031e-07
4.99785271295e-07
1.29718731334e-07
5.80174942145e-07
9.21074729034e-08
9.25961412602e-07
6.98529476646e-08
1.0546819755e-06
5.24258503669e-08
1.12090578114e-06
3.6532153481e-08
1.17406859888e-06
1.93405747526e-08
1.22551565744e-06
6.34784018011e-10
1.27689825995e-06
-2.05142798132e-08
1.32896498357e-06
-4.01080521755e-08
1.37627056243e-06
-2.01247548824e-08
1.37675381699e-06
1.43005534704e-07
1.16751106616e-06
2.04241788054e-07
1.02708506125e-06
2.16843924711e-07
9.27764261155e-07
8.9494944769e-07
1.91256225672e-07
1.49111969601e-07
4.39945299711e-07
1.27942839294e-07
5.07237500518e-07
1.21737695218e-07
5.0118718307e-07
1.18685543259e-07
4.74049336984e-07
1.08212083246e-07
4.79719893413e-07
8.95071736871e-08
5.18502629743e-07
5.79414806594e-08
6.11843925413e-07
3.82206183716e-08
9.457907297e-07
2.40979039543e-08
1.06891634243e-06
1.11414872098e-08
1.13397830309e-06
-2.72690961016e-09
1.188064442e-06
-1.69723641552e-08
1.23989788275e-06
-3.26488900996e-08
1.29272518027e-06
-4.59119191704e-08
1.34239101618e-06
-3.36721711057e-08
1.36420610467e-06
1.24803968831e-07
1.21845335602e-06
1.97338366242e-07
1.09513131608e-06
2.3334380248e-07
9.91206574545e-07
2.21830414639e-07
9.39387501119e-07
9.28724136357e-07
1.88158768053e-07
1.28367697675e-07
4.79351248198e-07
1.04922359419e-07
5.18317100416e-07
9.59250040922e-08
5.06086665964e-07
8.62146714043e-08
4.82657870352e-07
6.70976370975e-08
4.986856714e-07
3.92588414121e-08
5.46407076041e-07
1.66642976343e-09
6.49550368342e-07
1.73544692764e-08
9.30221835389e-07
7.56956454413e-09
1.07881512132e-06
-5.40211661044e-09
1.14707219686e-06
-1.87877352649e-08
1.2015823777e-06
-3.16952981252e-08
1.25294904018e-06
-3.85355022129e-08
1.29972009683e-06
-1.95275939298e-08
1.32354908786e-06
1.11934117949e-07
1.23291201947e-06
1.93141379479e-07
1.13740081146e-06
2.41407027892e-07
1.04699574715e-06
2.4635180491e-07
9.86369608867e-07
2.19508131144e-07
9.66333863033e-07
9.76823294246e-07
1.71535955333e-07
1.13588957138e-07
5.37859158992e-07
8.3864684649e-08
5.37264751196e-07
7.22083559331e-08
5.14419196388e-07
5.61059982318e-08
4.98105938672e-07
2.99012891959e-08
5.24906526968e-07
-3.38451878686e-09
5.79786744857e-07
-3.83307275542e-08
6.84607638631e-07
2.85000173666e-09
8.89167351962e-07
5.81512176151e-09
1.07597102766e-06
-4.64481199695e-09
1.15765782931e-06
-1.84190967933e-08
1.21549434304e-06
-2.04431137795e-08
1.25511974247e-06
6.18220136949e-09
1.27325078244e-06
1.14890485434e-07
1.21499653286e-06
1.94916998576e-07
1.15303319582e-06
2.46812817321e-07
1.08563554874e-06
2.63673250138e-07
1.03024621733e-06
2.43053337145e-07
1.00709099802e-06
2.01501888684e-07
1.00799050831e-06
1.03208617944e-06
1.46348606239e-07
1.0777227058e-07
6.03135564273e-07
6.16579690434e-08
5.74378821647e-07
4.44830269496e-08
5.29582582728e-07
2.10968040304e-08
5.2139766637e-07
-9.96741486532e-09
5.56104677513e-07
-4.37385747234e-08
6.13655682091e-07
-7.24929108867e-08
7.13476087061e-07
-5.87655449817e-08
8.75570733643e-07
-1.56621750225e-08
1.03299757436e-06
-4.69415762015e-09
1.14681991786e-06
8.14511858655e-10
1.21012428403e-06
4.15892806956e-08
1.21448922422e-06
1.28085589035e-07
1.1868991617e-06
1.94389477783e-07
1.14883254804e-06
2.45746807459e-07
1.10180630131e-06
2.70187691656e-07
1.06131496016e-06
2.58122305268e-07
1.04242995495e-06
2.20813306702e-07
1.04449961351e-06
1.58391568988e-07
1.07051649704e-06
1.08513362168e-06
1.05482508188e-07
8.74657111319e-08
6.85923690813e-07
1.54486631932e-08
6.40902430769e-07
-1.11074446923e-08
5.56002569165e-07
-3.96427782421e-08
5.50164778406e-07
-7.06030332617e-08
5.8720148237e-07
-1.00053033199e-07
6.43214762595e-07
-1.20402483453e-07
7.3394869516e-07
-1.06633486046e-07
8.61938281586e-07
-6.6680666989e-08
9.9318426579e-07
-1.32503265982e-08
1.09352837305e-06
4.49027316719e-08
1.1521133381e-06
1.10895614289e-07
1.14863646069e-06
1.71942095528e-07
1.1259880813e-06
2.26211194139e-07
1.09469159751e-06
2.56791142486e-07
1.07134450388e-06
2.53868639096e-07
1.06435602573e-06
2.21275383431e-07
1.07510694726e-06
1.65001607952e-07
1.10084583788e-06
1.01534512614e-07
1.13412029383e-06
1.13499065206e-06
5.18232122258e-08
5.68137546371e-08
7.94212006909e-07
-5.23219238422e-08
7.47254732161e-07
-9.32261968181e-08
5.97618849953e-07
-1.24248878006e-07
5.81537253496e-07
-1.51278886885e-07
6.14387761454e-07
-1.73511060596e-07
6.65562041686e-07
-1.81545624646e-07
7.42116320223e-07
-1.61263955342e-07
8.41807671489e-07
-1.11680302765e-07
9.43758629444e-07
-4.3800980431e-08
1.02580427625e-06
3.32241456673e-08
1.07524114974e-06
1.05018228495e-07
1.07699031479e-06
1.68945674591e-07
1.06219582814e-06
2.093445362e-07
1.05441093439e-06
2.15656164978e-07
1.06513690771e-06
1.90911271743e-07
1.08919740928e-06
1.41785471321e-07
1.12433010827e-06
7.90794778251e-08
1.16370356974e-06
3.18724039336e-08
1.18148119667e-06
1.1657627824e-06
1.24479765498e-09
2.33307267194e-08
9.40408693187e-07
-1.28095222884e-07
8.99575114512e-07
-1.77686832136e-07
6.49166681113e-07
-2.04798807452e-07
6.09193985255e-07
-2.22997056624e-07
6.32746827667e-07
-2.35132296968e-07
6.77787397458e-07
-2.32585120255e-07
7.39665185076e-07
-2.06131439414e-07
8.154721277e-07
-1.53739739268e-07
8.91499648613e-07
-8.19056900392e-08
9.54108620041e-07
-1.22559503553e-09
9.9469598909e-07
6.96725379444e-08
1.00621266402e-06
1.22139373011e-07
1.00983273244e-06
1.41180845785e-07
1.03546656335e-06
1.27511399704e-07
1.07891116246e-06
8.7234060126e-08
1.12960546845e-06
3.64010680467e-08
1.17532980606e-06
-2.2098525879e-09
1.20249069913e-06
-2.59909932514e-08
1.20543661735e-06
1.16780372213e-06
-2.78644807438e-08
-3.39670674342e-08
1.16398761292e-06
-1.75237783356e-07
1.05151539624e-06
-2.21475260014e-07
6.9778387149e-07
-2.37467716303e-07
6.25909246332e-07
-2.42109218822e-07
6.37597632892e-07
-2.41731771962e-07
6.7749382022e-07
-2.33777136642e-07
7.31778500966e-07
-2.10380654904e-07
7.92150251418e-07
-1.66773284985e-07
8.47975278713e-07
-1.06964869797e-07
8.94389248097e-07
-4.05286786128e-08
9.28347944077e-07
1.5551300732e-08
9.50212804555e-07
4.69434014841e-08
9.78520633942e-07
4.57944177176e-08
1.0367155613e-06
1.66177788197e-08
1.10822686728e-06
-1.89235826054e-08
1.16532453021e-06
-4.25925847685e-08
1.19919300721e-06
-5.17331639692e-08
1.21182770754e-06
-4.35850982795e-08
1.19748437953e-06
1.15393714952e-06
-2.95539852714e-08
-4.45249237181e-08
1.397806543e-06
-1.36771108588e-07
1.13153614595e-06
-1.7229985598e-07
7.33295104126e-07
-1.83195290164e-07
6.37251697485e-07
-1.82922586624e-07
6.37549698632e-07
-1.78675191399e-07
6.73348860372e-07
-1.72663530923e-07
7.258348031e-07
-1.60890752336e-07
7.80438287446e-07
-1.3816651796e-07
8.25310523826e-07
-1.04453533126e-07
8.60735611168e-07
-6.60722110481e-08
8.90026925199e-07
-3.36325312646e-08
9.17834219061e-07
-2.15927687924e-08
9.66565204736e-07
-3.85520768694e-08
1.05380713193e-06
-6.19866530251e-08
1.1318448629e-06
-7.13043086267e-08
1.1748440653e-06
-6.74578053559e-08
1.19555155398e-06
-4.83934021814e-08
1.19296519857e-06
-2.15587475952e-08
1.17083261556e-06
1.13879671937e-06
-6.26542432583e-09
2.78214158189e-09
1.50899258243e-06
-2.89655711007e-08
1.15442771208e-06
-5.94512043343e-08
7.59455692105e-07
-7.5761475813e-08
6.52391067541e-07
-8.24209675346e-08
6.44119516362e-07
-8.4924969554e-08
6.75910973644e-07
-8.63304947021e-08
7.27293173469e-07
-8.55812394521e-08
7.79743794373e-07
-8.08264677396e-08
8.20607005724e-07
-7.12874893065e-08
8.51250772671e-07
-5.8971364287e-08
8.77762527446e-07
-4.77135176784e-08
9.06634730167e-07
-4.93214837572e-08
9.68265560485e-07
-6.7332568882e-08
1.07198059192e-06
-7.18435985077e-08
1.13655152099e-06
-6.33272228626e-08
1.1665315075e-06
-3.98408675821e-08
1.1722704685e-06
-7.08843804662e-09
1.16040519912e-06
2.029441303e-08
1.14361951547e-06
1.12822515084e-06
3.10162764609e-08
-1.9346952572e-08
1.61374204002e-06
4.5422746002e-08
1.09368489993e-06
3.04179137177e-08
7.69662038409e-07
1.62331287248e-08
6.64632300852e-07
6.564765547e-09
6.53339324716e-07
-1.79468185623e-09
6.84236042287e-07
-1.03420399672e-08
7.35869908916e-07
-1.74652883802e-08
7.86907243436e-07
-2.29509079852e-08
8.26139778732e-07
-2.60740351691e-08
8.54418355921e-07
-2.794351588e-08
8.79681260276e-07
-2.90640600339e-08
9.07811787163e-07
-3.65153813153e-08
9.75815394761e-07
-4.38537871291e-08
1.0794916892e-06
-3.76787596624e-08
1.13057188962e-06
-1.73382434528e-08
1.14639267658e-06
1.39263913511e-08
1.14119886026e-06
4.35519316809e-08
1.1309539922e-06
6.3521561028e-08
1.1238092039e-06
1.11778861635e-06
7.41140993452e-08
8.55675308091e-08
1.5610364456e-06
1.06459676984e-07
1.05878205206e-06
9.8934603458e-08
7.69605618138e-07
8.95831767252e-08
6.71171508039e-07
7.98877544517e-08
6.62304529556e-07
6.75748899143e-08
6.96441113429e-07
5.41224203442e-08
7.49327851939e-07
4.1689270762e-08
7.99375164103e-07
2.98529414052e-08
8.38013873311e-07
1.86522199236e-08
8.65662951768e-07
8.63299569715e-09
8.89748052502e-07
-8.65133751412e-10
9.17351843918e-07
-6.86571007445e-09
9.81919192222e-07
-5.0476666342e-09
1.07784535829e-06
1.09689943779e-08
1.11474602162e-06
3.69934962057e-08
1.12055690269e-06
6.36866022769e-08
1.11467970275e-06
8.43802308852e-08
1.11042339153e-06
1.02122067228e-07
1.10623114207e-06
1.09861672017e-06
1.21463596321e-07
1.69573680453e-07
1.43490638867e-06
1.66304007563e-07
1.02156812585e-06
1.57913682924e-07
7.64013578455e-07
1.51088104219e-07
6.73765245e-07
1.39659728893e-07
6.72757143102e-07
1.22656003315e-07
7.13289087072e-07
1.05236734101e-07
7.667400221e-07
8.88636541114e-08
8.15771808513e-07
7.23295055619e-08
8.54585544942e-07
5.53446642273e-08
8.82688292399e-07
3.865986972e-08
9.06477718713e-07
2.34060323198e-08
9.32665496082e-07
1.84364765589e-08
9.86970645724e-07
2.82232131841e-08
1.06823019113e-06
4.85906280687e-08
1.0945604199e-06
7.07119185646e-08
1.0986113664e-06
8.7493008981e-08
1.0980678637e-06
1.02742011349e-07
1.09534945373e-06
1.22861605501e-07
1.08629223068e-06
1.06798122392e-06
1.5367889675e-07
2.21190466649e-07
1.28046139993e-06
2.12608141786e-07
9.71635918803e-07
2.03589852418e-07
7.52556161162e-07
1.93546310318e-07
6.7806904248e-07
1.76369311867e-07
6.88820919443e-07
1.5485952051e-07
7.3460627086e-07
1.34762240961e-07
7.86822229641e-07
1.15864083352e-07
8.34702238724e-07
9.63567583601e-08
8.74133365926e-07
7.52421064185e-08
9.03857907001e-07
5.38137572764e-08
9.2796665401e-07
3.31720469199e-08
9.53360794202e-07
2.6855553342e-08
9.93408069944e-07
3.52162621918e-08
1.06002658274e-06
4.7452913643e-08
1.08249261678e-06
5.74272215848e-08
1.08880863082e-06
6.49871717589e-08
1.09069176489e-06
7.55003628952e-08
1.08503241034e-06
9.59214560109e-08
1.06607275418e-06
1.03116675135e-06
1.32935650304e-07
2.27946315108e-07
1.14034781889e-06
2.17149518747e-07
9.23728626183e-07
1.98187674475e-07
7.50993654593e-07
1.80757499327e-07
6.9036332541e-07
1.61188613059e-07
7.07449142491e-07
1.42601271674e-07
7.53049629661e-07
1.26283185612e-07
8.03159797282e-07
1.11093994494e-07
8.49942123252e-07
9.48260723772e-08
8.90474039567e-07
7.62309655389e-08
9.2253173106e-07
5.64809853214e-08
9.47803235338e-07
3.75660346997e-08
9.72369089516e-07
2.22278109869e-08
1.00883077993e-06
1.45364402103e-08
1.06790668708e-06
7.01414695243e-09
1.09022102997e-06
-3.92301808697e-09
1.09996454244e-06
-1.54846476361e-08
1.10248634199e-06
-1.85540660697e-08
1.08834701185e-06
-3.58582022258e-10
1.04812220288e-06
9.91273065103e-07
3.9762987491e-08
2.16426793148e-07
1.033267217e-06
1.99788810881e-07
8.90146459462e-07
1.64964121337e-07
7.66953799749e-07
1.35036545597e-07
7.15650348234e-07
1.13011334375e-07
7.28735696185e-07
1.00189714031e-07
7.65817826599e-07
9.36576194218e-08
8.09741457072e-07
8.99001394119e-08
8.53776948512e-07
8.50019931941e-08
8.95452788045e-07
7.57404685513e-08
9.31870122454e-07
5.95633120908e-08
9.64065241564e-07
3.73375971483e-08
9.94640973992e-07
5.07150348473e-09
1.0412575601e-06
-1.81112410995e-08
1.09126429836e-06
-4.63616189877e-08
1.11865867227e-06
-8.20547403485e-08
1.13585841604e-06
-1.16638869352e-07
1.13730046875e-06
-1.31240447067e-07
1.10320081458e-06
-1.13598480999e-07
1.03072690693e-06
9.43789294914e-07
-6.58909270669e-08
1.86702317671e-07
1.71279388052e-07
1.44743757789e-07
1.19771829651e-07
1.02138720395e-07
9.27210751683e-08
9.05212754068e-08
9.21504133881e-08
9.60575449079e-08
9.61453035285e-08
8.97244060294e-08
6.84415985908e-08
3.33663669165e-08
4.56078927404e-09
-3.16642745728e-08
-7.54137239404e-08
-1.11037102583e-07
-1.20823286766e-07
-9.85611092497e-08
-4.89726038419e-08
-7.74653881133e-08
5.49685980039e-07
-7.44931286875e-08
4.62910294134e-07
-6.92896997743e-08
3.85304790278e-07
-7.37542223287e-08
3.25682766545e-07
-9.71142880494e-08
3.16804833758e-07
-8.4494675717e-08
2.36968203943e-07
-6.60447331963e-08
1.52716398635e-07
-5.00759815472e-08
7.99072497124e-08
-3.59488755746e-08
2.41536723612e-08
-2.2848442822e-08
2.20746662679e-08
-1.24931694409e-08
3.89925816728e-08
-8.11876738966e-09
3.5882478303e-08
-9.35451758314e-09
1.83074024507e-08
-6.99133046969e-09
3.06298864292e-09
-3.44143949852e-09
-6.14080202972e-10
-1.11031165967e-09
-6.63952962753e-08
7.41020166499e-07
-3.63791680394e-08
7.89403796171e-07
-3.16329819457e-08
7.81246748894e-07
-3.33210200577e-08
6.77058553434e-07
-3.78611017629e-08
5.54307582469e-07
-3.66940294763e-08
4.61791706778e-07
-3.67825171347e-08
3.85444638261e-07
-7.01391403493e-08
3.59129795216e-07
-7.87816194128e-08
3.25559183852e-07
-6.29061298657e-08
2.2117608635e-07
-4.7107090611e-08
1.36953298251e-07
-3.52514801426e-08
6.80622584136e-08
-2.65700018463e-08
1.54743866563e-08
-1.58338767485e-08
1.13573707129e-08
-6.81478446847e-09
3.00134849992e-08
-1.89210400707e-09
3.09971195303e-08
-5.36736943699e-09
2.18037065538e-08
-5.72754544378e-09
3.42663389496e-09
-2.94551731719e-09
-3.39587371438e-09
-4.0556767381e-09
-3.17869858293e-08
7.26009228138e-07
-3.26174646895e-09
7.61035909356e-07
3.24228546179e-09
7.74918669143e-07
1.17280028059e-09
6.79257991894e-07
-4.53383665494e-09
5.60086600861e-07
-8.11759128083e-09
4.65440215108e-07
-2.91503752837e-08
4.06557711024e-07
-7.02356267756e-08
4.00327002012e-07
-6.12137171297e-08
3.16646576201e-07
-4.4414414598e-08
2.04445304339e-07
-3.2416099466e-08
1.24979141875e-07
-2.40446782294e-08
5.96960852599e-08
-1.8800804624e-08
1.02312687117e-08
-1.05347603462e-08
3.10498170764e-09
-2.65531544416e-09
2.2170351168e-08
1.89109077147e-09
2.64870600438e-08
-4.64051740384e-10
2.4188434297e-08
-3.98753369785e-09
6.95885737662e-09
-2.36316129432e-09
-5.01961887717e-09
-6.41868607828e-09
1.37597437288e-08
7.25471561058e-07
2.85428397882e-08
7.46379250616e-07
3.31494370122e-08
7.70478376034e-07
2.86030120995e-08
6.83937445759e-07
2.00772201791e-08
5.68703910433e-07
3.75494254222e-09
4.81840587503e-07
-4.16097846571e-08
4.52025083359e-07
-5.67711349913e-08
4.15633699316e-07
-4.39606654729e-08
3.03956495959e-07
-3.10618228971e-08
1.91606115994e-07
-2.24837723352e-08
1.1641837935e-07
-1.63858796074e-08
5.36007828896e-08
-1.28901038669e-08
6.73586421557e-09
-7.24895629376e-09
-2.52628027763e-09
-4.16960667619e-10
1.53711801688e-08
3.12147445003e-09
2.29849209888e-08
3.01777305067e-09
2.43264141326e-08
-2.01824852586e-09
1.20119661199e-08
-1.81787502508e-09
-5.21812470744e-09
-8.23640724859e-09
6.27484313832e-08
7.32683204018e-07