/*--------------------------------*- C++ -*----------------------------------*\
| =========                 |                                                 |
| \\      /  F ield         | OpenFOAM: The Open Source CFD Toolbox           |
|  \\    /   O peration     | Version:  2312                                  |
|   \\  /    A nd           | Website:  www.openfoam.com                      |
|    \\/     M anipulation  |                                                 |
\*---------------------------------------------------------------------------*/
FoamFile
{
    version     2.0;
    format      ascii;
    arch        "LSB;label=32;scalar=64";
    class       volScalarField;
    location    "4/fluidRegion";
    object      p;
}
// * * * * * * * * * * * * * * * * * * * * * * * * * * * * * * * * * * * * * //

dimensions      [1 -1 -2 0 0 0 0];

internalField   nonuniform List<scalar> 
40
(
139489
138467
137445
136423
135401
134379
133357
132334
131312
130290
128914
127184
125453
123723
121992
120260
118527
116792
115055
113315
111572
109826
108076
106322
104565
102803
101037
99267.1
97492.3
95713.2
94310
93283.6
92255.3
91225.1
90192.7
89158.3
88121.8
87083.2
86042.4
84999.4
)
;

boundaryField
{
    inlet
    {
        type            calculated;
        value           uniform 140000;
    }
    outlet
    {
        type            calculated;
        value           uniform 84476.8;
    }
    fixedWalls
    {
        type            empty;
    }
}


// ************************************************************************* //
