/*--------------------------------*- C++ -*----------------------------------*\
| =========                 |                                                 |
| \\      /  F ield         | OpenFOAM: The Open Source CFD Toolbox           |
|  \\    /   O peration     | Version:  2312                                  |
|   \\  /    A nd           | Website:  www.openfoam.com                      |
|    \\/     M anipulation  |                                                 |
\*---------------------------------------------------------------------------*/
FoamFile
{
    version     2.0;
    format      ascii;
    arch        "LSB;label=32;scalar=64";
    class       volScalarField;
    location    "0.125/water";
    object      alphat.gas;
}
// * * * * * * * * * * * * * * * * * * * * * * * * * * * * * * * * * * * * * //

dimensions      [1 -1 -1 0 0 0 0];

internalField   nonuniform List<scalar> 
1504
(
2.67268014467e-06
2.70768408895e-06
2.35332090148e-06
1.93074937022e-06
1.55527699301e-06
1.24283544206e-06
9.98718971482e-07
8.21259884132e-07
6.99373342668e-07
6.09453768027e-07
5.10096819306e-07
3.56358064744e-07
1.5256313941e-07
2.41461462318e-08
1.49806281553e-09
2.18499099179e-10
7.53050796368e-11
2.73185864558e-11
1.24507416178e-11
1.33398456587e-11
2.66027242088e-06
2.70184765962e-06
2.35552223536e-06
1.94285364839e-06
1.57509595923e-06
1.2641343909e-06
1.01645532573e-06
8.35331506739e-07
7.12107532413e-07
6.24758250798e-07
5.3342513139e-07
3.91321260812e-07
1.89146681611e-07
3.5299156669e-08
2.27735921939e-09
3.07987323756e-10
1.04949478923e-10
3.80002367365e-11
1.51283698492e-11
1.28798637428e-11
2.64816889338e-06
2.68984344937e-06
2.35030242178e-06
1.94535769636e-06
1.58479995617e-06
1.27662805245e-06
1.02829879866e-06
8.4630621601e-07
7.23164855839e-07
6.37424119904e-07
5.50495410867e-07
4.15620167032e-07
2.14674099483e-07
4.37132320791e-08
3.01588476703e-09
4.12186827432e-10
1.43415667969e-10
5.32666741459e-11
1.95269595742e-11
1.31424293702e-11
2.61860989551e-06
2.67101011963e-06
2.34006533591e-06
1.94109484332e-06
1.58521914333e-06
1.27941827312e-06
1.03274445387e-06
8.52795161423e-07
7.31567830638e-07
6.47281000885e-07
5.62183186296e-07
4.3028245219e-07
2.27667553374e-07
4.73518711483e-08
3.49963106975e-09
5.24149054268e-10
1.92227074719e-10
7.45220507127e-11
2.66055345435e-11
1.46541029182e-11
2.58934243729e-06
2.65053926354e-06
2.32529429991e-06
1.93048027141e-06
1.57634048481e-06
1.27226581916e-06
1.02956813281e-06
8.54408811651e-07
7.368619947e-07
6.54318659917e-07
5.69560369048e-07
4.36549348002e-07
2.28667351614e-07
4.61278421273e-08
3.66104894484e-09
6.42587790925e-10
2.53590009462e-10
1.03841459669e-10
3.76127858794e-11
1.7580933388e-11
2.5582425804e-06
2.62980276022e-06
2.30863584013e-06
1.91325112734e-06
1.55753259969e-06
1.25538628875e-06
1.01965588273e-06
8.51904201639e-07
7.39583606529e-07
6.59309519281e-07
5.73734365331e-07
4.35469376396e-07
2.19510536891e-07
4.14291745616e-08
3.606960126e-09
7.75052407339e-10
3.30993490892e-10
1.43815877215e-10
5.44035546134e-11
2.28012340184e-11
2.54843345816e-06
2.62454399586e-06
2.30135447592e-06
1.89552163801e-06
1.53199759725e-06
1.23223627412e-06
1.00585402459e-06
8.47099648312e-07
7.41003547032e-07
6.63379104292e-07
5.75593737115e-07
4.28032205879e-07
2.02967546951e-07
3.52979233901e-08
3.52546670225e-09
9.37810034631e-10
4.295967178e-10
1.98211588884e-10
7.97016108937e-11
3.18208812154e-11
2.54674585238e-06
2.63322093908e-06
2.30474207415e-06
1.88137275699e-06
1.50624416265e-06
1.20934306636e-06
9.92246650477e-07
8.42387324072e-07
7.42845167835e-07
6.68045594588e-07
5.76305859872e-07
4.15472523975e-07
1.8267307277e-07
2.97000345177e-08
3.60504114898e-09
1.15598331449e-09
5.5861199015e-10
2.73666982027e-10
1.17431413504e-10
4.69522884522e-11
2.56463861568e-06
2.65407916329e-06
2.31693091866e-06
1.87470561851e-06
1.48747859276e-06
1.19217610543e-06
9.82077986707e-07
8.40058488755e-07
7.47253538746e-07
6.75524815228e-07
5.76823271295e-07
3.99629941008e-07
1.63145554811e-07
2.61251610214e-08
4.02258872318e-09
1.47162281413e-09
7.37378636671e-10
3.78966626889e-10
1.73665696343e-10
7.18483380048e-11
2.585607415e-06
2.67994232896e-06
2.33407315057e-06
1.87693025527e-06
1.48000351333e-06
1.18353541083e-06
9.77516742018e-07
8.42237981242e-07
7.56566996369e-07
6.87047616037e-07
5.7723194666e-07
3.83975593541e-07
1.49040947421e-07
2.55178809536e-08
5.00197459084e-09
1.96920791338e-09
9.94525576044e-10
5.27665958082e-10
2.58209882959e-10
1.11956881282e-10
2.62406579684e-06
2.70735284038e-06
2.35157470487e-06
1.88500443079e-06
1.48183773438e-06
1.18325410219e-06
9.79698518674e-07
8.50534766676e-07
7.71993469839e-07
7.01343928266e-07
5.78645456185e-07
3.73978150106e-07
1.44332530901e-07
2.8742722739e-08
6.99354405331e-09
2.79092485468e-09
1.38361738407e-09
7.43094315979e-10
3.86416554901e-10
1.75031526064e-10
2.66656665465e-06
2.73694871896e-06
2.37302206466e-06
1.89990612244e-06
1.49156956599e-06
1.19090733115e-06
9.89055689415e-07
8.65233836854e-07
7.91332044026e-07
7.17018557892e-07
5.8500854121e-07
3.75535024529e-07
1.5227591098e-07
3.74830341414e-08
1.08713752495e-08
4.25659147521e-09
2.0231433815e-09
1.07043717894e-09
5.81275213475e-10
2.72393465525e-10
2.70699309021e-06
2.76514011206e-06
2.39590501154e-06
1.92034046961e-06
1.50891798487e-06
1.20649224954e-06
1.0052049984e-06
8.84492360699e-07
8.12128030774e-07
7.35183348266e-07
6.00282701563e-07
3.93505760645e-07
1.76443546712e-07
5.51500887038e-08
1.85759508335e-08
7.18203688028e-09
3.20926511539e-09
1.61483874379e-09
8.76980936147e-10
4.20452942378e-10
2.73136342046e-06
2.78452121296e-06
2.41595340841e-06
1.94305940835e-06
1.53171656371e-06
1.2285194457e-06
1.0269498349e-06
9.06730131748e-07
8.33931469296e-07
7.57060755176e-07
6.26366914271e-07
4.29965632901e-07
2.21098738775e-07
8.75713233888e-08
3.46304506493e-08
1.37026920583e-08
5.74360439399e-09
2.64288965906e-09
1.33344350808e-09
6.36825339115e-10
2.73366168831e-06
2.78762794069e-06
2.42374851668e-06
1.95997077992e-06
1.55458492895e-06
1.25344167948e-06
1.05247367468e-06
9.31763000602e-07
8.57654794004e-07
7.82979498967e-07
6.62215637532e-07
4.82833310976e-07
2.85595557232e-07
1.42632732656e-07
6.73849923392e-08
2.88711178576e-08
1.17512454798e-08
4.85161792099e-09
2.10820836213e-09
9.31702751765e-10
2.71942971131e-06
2.76771930487e-06
2.40960038599e-06
1.95998795413e-06
1.56670630302e-06
1.27422199063e-06
1.0790501134e-06
9.59853247498e-07
8.84834645868e-07
8.12874482856e-07
7.0414146761e-07
5.44368994893e-07
3.64441185582e-07
2.20823516776e-07
1.23982274273e-07
6.02637541483e-08
2.54716680033e-08
9.77340869398e-09
3.59416653733e-09
1.31959358569e-09
2.68619989225e-06
2.72584598566e-06
2.37170912101e-06
1.93639198351e-06
1.5615955272e-06
1.28701123868e-06
1.10550527366e-06
9.92299247453e-07
9.1719894952e-07
8.45776648235e-07
7.46003134427e-07
6.05298229288e-07
4.48816820648e-07
3.12623903252e-07
2.0100724544e-07
1.10721141012e-07
5.02285329012e-08
1.85160208043e-08
5.87832618118e-09
1.83409580032e-09
2.61383814809e-06
2.64399303562e-06
2.30145360798e-06
1.88922200603e-06
1.54369579425e-06
1.29712770508e-06
1.13632760049e-06
1.0322014853e-06
9.55707731568e-07
8.80291570838e-07
7.8451225508e-07
6.61322670887e-07
5.27563443936e-07
4.01758292072e-07
2.83852924085e-07
1.72202743955e-07
8.27410298548e-08
2.90874304169e-08
8.02779279177e-09
2.25977980463e-09
2.500000588e-06
2.52725790783e-06
2.21271114368e-06
1.83783665829e-06
1.53283517339e-06
1.32141871086e-06
1.18274140624e-06
1.08452079891e-06
1.00168212228e-06
9.1761309922e-07
8.21284963624e-07
7.0966339685e-07
5.92128349797e-07
4.76030866236e-07
3.56588640422e-07
2.29411162206e-07
1.116407045e-07
3.57975789883e-08
8.7351091602e-09
2.37158059687e-09
2.39092511261e-06
2.42438975293e-06
2.14075577839e-06
1.81124098214e-06
1.55433195786e-06
1.37936936723e-06
1.25610818216e-06
1.15346559568e-06
1.05562080141e-06
9.57317181935e-07
8.55396136017e-07
7.48691159584e-07
6.40812184258e-07
5.30894515385e-07
4.10245328711e-07
2.69807970361e-07
1.24759302166e-07
3.47047617956e-08
7.82220722755e-09
2.24610274382e-09
2.34298095902e-06
2.3791605993e-06
2.11386487438e-06
1.83133354488e-06
1.62359947858e-06
1.47833010347e-06
1.35630998124e-06
1.23540859548e-06
1.11347197431e-06
9.95932984842e-07
8.84747927489e-07
7.77979994237e-07
6.74253536836e-07
5.67237584501e-07
4.43741022842e-07
2.88162285165e-07
1.17117429206e-07
2.75664335433e-08
6.28140283046e-09
2.05242924892e-09
2.35166188774e-06
2.38845385713e-06
2.13632037163e-06
1.89766692167e-06
1.73255187947e-06
1.60512559292e-06
1.4715388089e-06
1.32229264258e-06
1.16932176202e-06
1.02909509929e-06
9.06321170547e-07
7.96612201548e-07
6.94684898837e-07
5.89701663457e-07
4.59721126697e-07
2.8378720108e-07
9.32029879545e-08
1.92227623248e-08
5.2286709614e-09
1.84201648406e-09
2.35158612045e-06
2.38374818742e-06
2.17026682304e-06
1.98452535408e-06
1.85315321001e-06
1.73469694227e-06
1.5858865854e-06
1.40303500687e-06
1.215218502e-06
1.0513775883e-06
9.16687460174e-07
8.04471875503e-07
7.06333894419e-07
6.03312384488e-07
4.60251352498e-07
2.56510168126e-07
6.52899403457e-08
1.41204300436e-08
4.63868945747e-09
1.62989782139e-09
2.31625267484e-06
2.38181400439e-06
2.23470384649e-06
2.08064502579e-06
1.95695551006e-06
1.83423626443e-06
1.66895728715e-06
1.45654130173e-06
1.23906175465e-06
1.05605533506e-06
9.13180844985e-07
8.03083457616e-07
7.11765096969e-07
6.07015090204e-07
4.44866555398e-07
2.09034617519e-07
4.8143577712e-08
1.20200296048e-08
4.19408986622e-09
1.41331284455e-09
2.37384616034e-06
2.52804673916e-06
2.38938108739e-06
2.17130541755e-06
2.01179413352e-06
1.8609807746e-06
1.67348965129e-06
1.44881720342e-06
1.22009290179e-06
1.03369340933e-06
8.94242207546e-07
7.95365811982e-07
7.14004497944e-07
6.03580894734e-07
4.17579927505e-07
1.67869259324e-07
3.92117855512e-08
1.09323903937e-08
3.78837040008e-09
1.20583006673e-09
2.76315993574e-06
2.97363339841e-06
2.58387783243e-06
2.17035390956e-06
1.95770869224e-06
1.78165761981e-06
1.58888854231e-06
1.37479494012e-06
1.15813154979e-06
9.83568666338e-07
8.59669477166e-07
7.8062389872e-07
7.10573395273e-07
5.92855758568e-07
3.75374745691e-07
1.3641280099e-07
3.38627025203e-08
1.00469150897e-08
3.37767089067e-09
1.01888504324e-09
3.35837078484e-06
3.35009865883e-06
2.41528842345e-06
1.92624214667e-06
1.76692836024e-06
1.61202321942e-06
1.43708328312e-06
1.24927339936e-06
1.06022829173e-06
9.08714798729e-07
8.12649062164e-07
7.59168719305e-07
6.97807608193e-07
5.62118881785e-07
3.18009665845e-07
1.09693353272e-07
2.94866166076e-08
9.05124488935e-09
2.95175893388e-09
8.58330789742e-10
3.55754139916e-06
3.39760093647e-06
2.18493033344e-06
1.66222846969e-06
1.54374253303e-06
1.41118858263e-06
1.25172213793e-06
1.08937988005e-06
9.34516970688e-07
8.22963171186e-07
7.66702733623e-07
7.3583194374e-07
6.696853134e-07
4.96453354432e-07
2.53042431334e-07
8.64999418471e-08
2.49766367941e-08
7.87391971153e-09
2.52476558349e-09
7.30134480535e-10
3.454602017e-06
3.89878197459e-06
2.57896013074e-06
1.71672111096e-06
1.43775901181e-06
1.28403162094e-06
1.11539775621e-06
9.57179344647e-07
8.29093922606e-07
7.60953630844e-07
7.38421336918e-07
7.10953358311e-07
6.13287079906e-07
4.08740678306e-07
1.91600099029e-07
6.65074090069e-08
2.04392026795e-08
6.6314590637e-09
2.1376052241e-09
6.3707728305e-10
3.5930580318e-06
4.38992266551e-06
3.39675001003e-06
2.24348255125e-06
1.59737295007e-06
1.30882879619e-06
1.10888027234e-06
9.31858180684e-07
8.02183364939e-07
7.4848122353e-07
7.28568310702e-07
6.77690079415e-07
5.36133243715e-07
3.18848145342e-07
1.41582035481e-07
5.03993897718e-08
1.63847504314e-08
5.50843706714e-09
1.82830355874e-09
5.81155588099e-10
3.68516198689e-06
4.6862122383e-06
4.03230275635e-06
2.94403291144e-06
2.06802990009e-06
1.51189447991e-06
1.21689717446e-06
1.00666992613e-06
8.51669014203e-07
7.73016763383e-07
7.25125817819e-07
6.35298918526e-07
4.56094390687e-07
2.42645630386e-07
1.04405328399e-07
3.83718669475e-08
1.31503586576e-08
4.62311784616e-09
1.6154562982e-09
5.62607883435e-10
3.62657532745e-06
4.7878392476e-06
4.43221441511e-06
3.4940032246e-06
2.57121495601e-06
1.86193632143e-06
1.40090693729e-06
1.11463914531e-06
9.17530459485e-07
7.99770752218e-07
7.18413315234e-07
5.91885535977e-07
3.85110613489e-07
1.85050424552e-07
7.82354818285e-08
2.98684257087e-08
1.07866742291e-08
4.00554257814e-09
1.50390162028e-09
5.86251459801e-10
3.4750165721e-06
4.71970814568e-06
4.61164054988e-06
3.85633624821e-06
2.98784295105e-06
2.23027692387e-06
1.63494526583e-06
1.24570607739e-06
9.85101725194e-07
8.20365655019e-07
7.07711938619e-07
5.55518987405e-07
3.27214298831e-07
1.43395630436e-07
6.0269725393e-08
2.4072188147e-08
9.1957421753e-09
3.64530539754e-09
1.49606390395e-09
6.59992789884e-10
3.26883396024e-06
4.55389843118e-06
4.62246109352e-06
4.03906065452e-06
3.25724037818e-06
2.50017868356e-06
1.86166860527e-06
1.39225828121e-06
1.06432127232e-06
8.4647608264e-07
6.9691983124e-07
5.2370239724e-07
2.81602714147e-07
1.13780761015e-07
4.81463526819e-08
2.02855652247e-08
8.26191223651e-09
3.54071979574e-09
1.60506206257e-09
7.82271032469e-10
3.03701006548e-06
4.27484129492e-06
4.47233621292e-06
4.05849141551e-06
3.39281872167e-06
2.67574576066e-06
2.02600288115e-06
1.51293284e-06
1.13700047914e-06
8.75089649625e-07
6.89205475705e-07
4.93463997751e-07
2.45087636422e-07
9.31709046769e-08
4.03108382263e-08
1.80773518154e-08
7.93619646247e-09
3.70290856621e-09
1.85823139952e-09
9.3612459246e-10
2.88514651399e-06
3.93350966266e-06
4.19781942086e-06
3.93686531734e-06
3.39687888072e-06
2.7415828976e-06
2.10622120352e-06
1.58100318332e-06
1.18280318519e-06
8.94841288005e-07
6.81732908749e-07
4.65388045939e-07
2.15542943783e-07
7.94235076593e-08
3.58276503901e-08
1.72395696605e-08
8.22944482532e-09
4.21842017435e-09
2.24832331881e-09
1.09362590287e-09
2.8309811017e-06
3.64722624851e-06
3.90369029139e-06
3.73897424157e-06
3.29602332729e-06
2.70181865629e-06
2.09884711153e-06
1.58824954995e-06
1.19242388804e-06
8.97913721216e-07
6.7005028652e-07
4.38262375301e-07
1.92601948892e-07
7.14525212049e-08
3.42478747025e-08
1.781955281e-08
9.3480557625e-09
5.14054453148e-09
2.71657890101e-09
1.22953482608e-09
2.80693822388e-06
3.48710125329e-06
3.68727310303e-06
3.53070346443e-06
3.12359260737e-06
2.57189731637e-06
2.01427616408e-06
4.78873694694e-09
6.62393300776e-09
8.59099897662e-09
1.08962855857e-08
1.47006848455e-08
2.20012463295e-08
3.12592208027e-08
3.6095255181e-08
3.34660047899e-08
8.21219289602e-08
5.14325990002e-07
1.29699774651e-06
1.8355939036e-06
2.1496206006e-06
2.28144664013e-06
2.34492171917e-06
2.51090225643e-06
3.57886262143e-11
4.89301513147e-10
2.30801649674e-09
3.91944668498e-09
5.59699292404e-09
7.27290317686e-09
8.95973269274e-09
1.15633523498e-08
1.75214616306e-08
2.67737468191e-08
3.2977808525e-08
3.17399848661e-08
7.84233729286e-08
5.18900191338e-07
1.30921356477e-06
1.84910344687e-06
2.16252654051e-06
2.29087422819e-06
2.35050698477e-06
2.51879338243e-06
3.05564939862e-11
1.24496718096e-10
1.83767095717e-09
3.43505066245e-09
5.04846915782e-09
6.57636156024e-09
7.88234360313e-09
9.59492463645e-09
1.43216093505e-08
2.32683674806e-08
3.07200544426e-08
3.07021026075e-08
7.61474503144e-08
5.2634931793e-07
1.3230487411e-06
1.86405237176e-06
2.17659299041e-06
2.30058369401e-06
2.35439703268e-06
2.52328002382e-06
2.27972322237e-11
4.9042057108e-11
1.09706798497e-09
3.14327307605e-09
4.74897679389e-09
6.21406104477e-09
7.29609830943e-09
8.3636656713e-09
1.20052301313e-08
2.03874711794e-08
2.88830862983e-08
2.99782172699e-08
7.58803983021e-08
5.37592776752e-07
1.33892650982e-06
1.88069422741e-06
2.19205393276e-06
2.31086345675e-06
2.35655551088e-06
2.52313383794e-06
2.26936657368e-11
3.35626016719e-11
3.96239723355e-10
2.92221879966e-09
4.57992791436e-09
6.02700798609e-09
6.98326834518e-09
7.59988957296e-09
1.03241473665e-08
1.7961523802e-08
2.7222384678e-08
2.93237760337e-08
7.80989626831e-08
5.52974473369e-07
1.3569396362e-06
1.89906941882e-06
2.20906290321e-06
2.32220813476e-06
2.35777664109e-06
2.51847659776e-06
2.34061166156e-11
4.02425897587e-11
2.62565420493e-10
2.73227750534e-09
4.48429668677e-09
5.93132132738e-09
6.81625989594e-09
7.12995666115e-09
9.10535141385e-09
1.59045117007e-08
2.56133380412e-08
2.8662370316e-08
8.30695182825e-08
5.72140565735e-07
1.37679613138e-06
1.918994801e-06
2.22777107814e-06
2.33531210033e-06
2.35924057947e-06
2.51034511089e-06
2.48366041781e-11
5.71827851454e-11
3.05209912237e-10
2.6531611048e-09
4.43357089777e-09
5.88640086437e-09
6.72608570347e-09
6.83825314267e-09
8.22282893008e-09
1.41608472003e-08
2.40024420709e-08
2.81003238934e-08
9.07681820437e-08
5.94070640078e-07
1.39782926881e-06
1.9400720552e-06
2.24826408641e-06
2.35108447206e-06
2.36238154328e-06
2.50023399333e-06
2.70554994241e-11
7.77073744604e-11
4.58254184555e-10
2.66447279052e-09
4.40313903736e-09
5.86276983847e-09
6.67058674682e-09
6.64919803153e-09
7.5721516145e-09
1.26837200751e-08
2.23792613773e-08
2.78652201022e-08
1.00806483794e-07
6.17232937107e-07
1.41906553343e-06
1.96167067432e-06
2.27048179048e-06
2.37007369389e-06
2.36844716814e-06
2.48964541161e-06
3.08129220757e-11
9.360283023e-11
7.4274489388e-10
2.67705937351e-09
4.36890850852e-09
5.83591555346e-09
6.62095211979e-09
6.5170195795e-09
7.07787135703e-09
1.14118286065e-08
2.07604002256e-08
2.81616926516e-08
1.12424233253e-07
6.3980770508e-07
1.43932332051e-06
1.98311840686e-06
2.29410698494e-06
2.39258137827e-06
2.37867793263e-06
2.48014507454e-06
3.76842446127e-11
9.94564347768e-11
9.94090689603e-10
2.62929088865e-09
4.3075133272e-09
5.78672612955e-09
6.56216888908e-09
6.41325632819e-09
6.68644223491e-09
1.02993728783e-08
1.91774633265e-08
2.90375219784e-08
1.24572605428e-07
6.5989386253e-07
1.457298957e-06
2.00357767737e-06
2.3189634083e-06
2.41909374791e-06
2.39444310616e-06
2.47349208579e-06
4.98335546129e-11
1.00027426928e-10
9.39969475974e-10
2.53096894327e-09
4.20788031199e-09
5.70811780778e-09
6.48911455291e-09
6.32237540464e-09
6.36335020518e-09
9.3071827961e-09
1.76582165965e-08
3.03431615097e-08
1.36031599341e-07
6.75636754233e-07
1.47163687726e-06
2.02213642544e-06
2.34474979907e-06
2.45030916372e-06
2.41746717666e-06
2.47181984847e-06
7.03608862048e-11
1.01202983306e-10
7.97119470041e-10
2.39119030798e-09
4.06089751446e-09
5.59148470728e-09
6.39826501708e-09
6.23798494315e-09
6.08886165093e-09
8.40687840272e-09
1.62034269016e-08
3.17636946622e-08
1.45508516326e-07
6.85270835735e-07
1.48095099584e-06
2.03778007258e-06
2.37096303303e-06
2.48666031874e-06
2.44957268229e-06
2.47755995595e-06
1.0323500218e-10
1.04225623277e-10
6.31102710939e-10
2.20880356244e-09
3.85820678717e-09
5.42769065714e-09
6.28744427787e-09
6.16047579555e-09
5.85556400424e-09
7.58102108213e-09
1.47702752665e-08
3.28694464911e-08
1.51705254232e-07
6.87116346058e-07
1.48382248579e-06
2.04935318678e-06
2.39681949441e-06
2.52825691485e-06
2.4925838485e-06
2.49365228021e-06
1.53872605428e-10
1.04614949443e-10
4.80986312921e-10
1.9914599219e-09
3.59566649505e-09
5.20667010246e-09
6.15347523733e-09
6.09428534473e-09
5.66620558761e-09
6.82333347528e-09
1.32754134648e-08
3.3166173116e-08
1.53379048688e-07
6.79595152006e-07
1.47882032991e-06
2.05554405572e-06
2.42115342403e-06
2.57467572145e-06
2.54815285125e-06
2.52378403587e-06
2.29384836289e-10
1.03645730391e-10
3.73454374372e-10
1.75502423559e-09
3.27358165542e-09
4.91644350349e-09
5.98899511791e-09
6.04456799969e-09
5.53185855276e-09
6.14210033504e-09
1.16287666896e-08
3.21628541259e-08
1.49459004068e-07
6.61366837258e-07
1.464647439e-06
2.05499023525e-06
2.44240084465e-06
2.62471293002e-06
2.617334012e-06
2.57238591975e-06
3.38332007264e-10
1.19942286667e-10
3.13889766754e-10
1.51309966644e-09
2.89705203823e-09
4.54576425682e-09
5.78002836608e-09
6.01198538514e-09
5.46840372768e-09
5.56553210452e-09
9.80594648977e-09
2.95003402709e-08
1.39336266811e-07
6.31738726568e-07
1.44047656948e-06
2.04653999236e-06
2.45870519765e-06
2.67614428341e-06
2.69986548666e-06
2.6441157072e-06
4.79769401013e-10
1.55949069644e-10
2.81764610032e-10
1.26389368876e-09
2.47791780493e-09
4.09226475658e-09
5.50624788351e-09
5.98518459636e-09
5.48810751119e-09
5.13967165404e-09
7.93308644558e-09
2.51467013617e-08
1.23333837831e-07
5.91393046408e-07
1.40647027064e-06
2.02967511202e-06
2.46821326191e-06
2.72564796834e-06
2.79328014851e-06
2.74257602664e-06
6.21169252373e-10
2.09624634472e-10
2.46071822421e-10
9.92325718899e-10
2.0256133864e-09
3.56695701212e-09
5.14856810364e-09
5.93819601987e-09
5.58776036311e-09
4.90889640523e-09
6.28263807405e-09
1.95588918466e-08
1.0298412893e-07
5.43029463095e-07
1.36438573843e-06
2.0051096691e-06
2.46970725137e-06
2.7692434947e-06
2.8923654128e-06
2.86835467511e-06
7.77281755246e-10
2.67309313385e-10
1.82413487127e-10
6.69562130143e-10
1.53597277104e-09
2.97744365967e-09
4.69407417239e-09
5.83340335465e-09
5.73824667666e-09
4.88409259825e-09
5.10930660254e-09
1.37443115645e-08
8.08768884334e-08
4.91543362988e-07
1.31770352038e-06
1.97502444785e-06
2.46315097339e-06
2.80312884604e-06
2.98939531825e-06
3.01682538329e-06
8.71103743052e-10
3.13590054603e-10
1.31657159332e-10
3.00576215806e-10
1.00103524317e-09
2.2983385084e-09
4.10325658682e-09
5.6152287872e-09
5.88086190503e-09
5.02218505845e-09
4.4731296261e-09
9.0115100918e-09
5.99885458408e-08
4.43318939649e-07
1.27095967856e-06
1.94262836719e-06
2.44977914712e-06
2.82461697889e-06
3.07546345819e-06
3.17704264741e-06
8.45635977753e-10
3.22825482122e-10
1.30210102476e-10
1.39167688493e-10
4.78649754788e-10
1.51272629704e-09
3.27126808895e-09
5.16243976559e-09
5.92507493667e-09
5.23799940467e-09
4.2516059357e-09
6.08067517579e-09
4.25894180688e-08
4.04254821074e-07
1.22868248885e-06
1.91145818864e-06
2.43189627169e-06
2.83295947893e-06
3.14282013675e-06
3.33339801169e-06
7.49359940903e-10
2.82535646697e-10
1.20921264548e-10
8.66097067135e-11
2.0714963659e-10
7.78956372254e-10
2.18664387053e-09
4.25621513155e-09
5.68784856185e-09
5.41714550663e-09
4.2697202677e-09
4.63134697643e-09
2.99772796133e-08
3.78033296059e-07
1.19426335904e-06
1.88447435186e-06
2.41220662214e-06
2.82936939393e-06
3.18681503363e-06
3.46957193708e-06
6.24698211833e-10
2.28353306381e-10
1.0519078103e-10
7.7068043695e-11
1.50879209457e-10
3.94359550495e-10
1.20745480205e-09
2.91376674692e-09
4.86205909525e-09
5.36548288706e-09
4.3695947593e-09
4.03008658905e-09
2.35778365472e-08
3.66099116299e-07
1.16914509749e-06
1.86313066775e-06
2.39281480939e-06
2.81615073496e-06
3.20639383748e-06
3.57262649004e-06
5.11037371342e-10
1.80079347903e-10
8.97143223931e-11
6.9303322172e-11
1.02687245699e-10
3.02089413561e-10
7.15387457146e-10
1.74921244175e-09
3.51222873202e-09
4.82459751363e-09
4.39755397143e-09
3.79024491445e-09
2.16099400571e-08
3.66398868985e-07
1.15717056852e-06
1.85108725141e-06
2.37693820008e-06
2.79677041197e-06
3.20391360283e-06
3.63611331727e-06
4.12745583866e-10
1.43197616819e-10
7.76692199616e-11
6.42758826776e-11
9.72470239335e-11
2.78160567658e-10
5.75323084824e-10
1.15522633935e-09
2.30750039977e-09
3.77434298143e-09
4.16892384509e-09
3.65672264175e-09
2.13176006831e-08
3.76498915081e-07
1.16033374385e-06
1.85102170678e-06
2.36765438079e-06
2.77533947989e-06
3.1844649748e-06
3.6612383506e-06
3.32693725966e-10
1.18562169326e-10
6.99832827591e-11
6.22753121035e-11
9.69374711187e-11
2.53449357343e-10
5.55786930801e-10
9.50622900388e-10
1.63733314833e-09
2.70451156149e-09
3.57746021931e-09
3.51460368387e-09
2.23427502072e-08
3.95745221161e-07
1.17766402759e-06
1.86253860705e-06
2.36534651004e-06
2.75387670248e-06
3.15269802597e-06
3.65334651386e-06
2.72686843585e-10
1.05055025308e-10
6.68041704947e-11
6.30369201455e-11
1.01120377137e-10
2.48071666826e-10
5.64927486317e-10
9.03833301027e-10
1.35260340392e-09
2.0128666685e-09
2.82877691876e-09
3.27322952982e-09
2.48251209463e-08
4.23823703737e-07
1.20763636691e-06
1.88451077053e-06
2.36968268748e-06
2.73356666801e-06
3.11259846889e-06
3.61959768735e-06
2.33053158895e-10
1.00503678235e-10
6.77437891746e-11
6.6744294034e-11
1.09503173297e-10
2.57956660888e-10
5.856770717e-10
9.11152871531e-10
1.24645712537e-09
1.65124498039e-09
2.22253575365e-09
2.93238298292e-09
2.91066417673e-08
4.60368972275e-07
1.24849386985e-06
1.91540929097e-06
2.37988851827e-06
2.71497496002e-06
3.06730563695e-06
3.56738763934e-06
2.11536620484e-10
1.0277516396e-10
7.21426720135e-11
7.35932231698e-11
1.21357714597e-10
2.76998180877e-10
6.1421731738e-10
9.37716942168e-10
1.21704709147e-09
1.46748930611e-09
1.83394153546e-09
2.59725823328e-09
3.57216516555e-08
5.04646398799e-07
1.29836313256e-06
1.95352225851e-06
2.39498463602e-06
2.69827347478e-06
3.0190650351e-06
3.50307658602e-06
2.06884728331e-10
1.10456662941e-10
7.91052688278e-11
8.3281812095e-11
1.36213590769e-10
3.02864347435e-10
6.46565225705e-10
9.69506196687e-10
1.21646139475e-09
1.37577279457e-09
1.60626357708e-09
2.37397945933e-09
4.55545125423e-08
5.55654224595e-07
1.35541702485e-06
1.99717694635e-06
2.41400132057e-06
2.68348484862e-06
2.96943530289e-06
3.43148260337e-06
2.17876937263e-10
1.22393406973e-10
8.75370122354e-11
9.51490194572e-11
1.53392330805e-10
3.34980127609e-10
6.82354870852e-10
1.01156955112e-09
1.23204035197e-09
1.32018467441e-09
1.48238594444e-09
2.31990448508e-09
6.01896232414e-08
6.13461353984e-07
1.41800582829e-06
2.04487539907e-06
2.43610237326e-06
2.67066067874e-06
2.91959659333e-06
3.35606680985e-06
2.42607597968e-10
1.37279938865e-10
9.74219683446e-11
1.08243316064e-10
1.7189028399e-10
3.71411227594e-10
7.22479453702e-10
1.08067076132e-09
1.29693105257e-09
1.31016118233e-09
1.41421746732e-09
2.46262537691e-09
8.11623328092e-08
6.78248927773e-07
1.48462940487e-06
2.09530083014e-06
2.46060653488e-06
2.65996323684e-06
2.87060412332e-06
3.27939970869e-06
2.79976256741e-10
1.52940281836e-10
1.07262146366e-10
1.21106013325e-10
1.9066614257e-10
4.14669051719e-10
7.71671884343e-10
1.19348130938e-09
1.42365368391e-09
1.37494429001e-09
1.44665793124e-09
2.98027137704e-09
1.09332860842e-07
7.49309380536e-07
1.55382364421e-06
2.14726617527e-06
2.48696398743e-06
2.65167430057e-06
2.82351431599e-06
3.20352900617e-06
3.26204711432e-10
1.65719370477e-10
1.15288046971e-10
1.32664234769e-10
2.08967180628e-10
4.69146421957e-10
8.41273422022e-10
1.35883641478e-09
1.58873633969e-09
1.50350582578e-09
1.62706188614e-09
4.49058433934e-09
1.45786458729e-07
8.24262285489e-07
1.62407202412e-06
2.19967531197e-06
2.51473010272e-06
2.64616719477e-06
2.77940515604e-06
3.13014731528e-06
3.73378118577e-10
1.73896823526e-10
1.2058228307e-10
1.42419838655e-10
2.27044989878e-10
5.31062065368e-10
9.57030545017e-10
1.57807601411e-09
1.76899594458e-09
1.69304791367e-09
2.01551788982e-09
8.24782448127e-09
1.84852255554e-07
8.99113701673e-07
1.69380607903e-06
2.25150557127e-06
2.5435340368e-06
2.64385161897e-06
2.73933289921e-06
3.06061682577e-06
4.11928303871e-10
1.7647000853e-10
1.22919760075e-10
1.50543199015e-10
2.5346105875e-10
5.92786452146e-10
1.16630950977e-09
1.84653375116e-09
1.98755028649e-09
2.00770445536e-09
2.79282210204e-09
1.50745613264e-08
2.2185140003e-07
9.72744857927e-07
1.76142760287e-06
2.30179996278e-06
2.57303505473e-06
2.6451036943e-06
2.70427478436e-06
2.99597072565e-06
4.38107739161e-10
1.72649239183e-10
1.23231130075e-10
1.57801679785e-10
3.24014027198e-10
6.92247477724e-10
1.5125727015e-09
2.17544430693e-09
2.3355927591e-09
2.6195825001e-09
4.28310473797e-09
2.26330526858e-08
2.58036509146e-07
1.04345178365e-06
1.82536428735e-06
2.34966212018e-06
2.6028803491e-06
2.65020119083e-06
2.67508424871e-06
2.93695280041e-06
4.51911213347e-10
1.65636175003e-10
1.22876817109e-10
1.65430666926e-10
3.96932793801e-10
9.2322776874e-10
1.98366031736e-09
2.64372949793e-09
3.01908245574e-09
3.81881363713e-09
6.39517122238e-09
2.88960910869e-08
2.93042859608e-07
1.10900859817e-06
1.88414658801e-06
2.39426620202e-06
2.63266263773e-06
2.65920726089e-06
2.65227419021e-06
2.88373558216e-06
)
;

boundaryField
{
    emptyPatch
    {
        type            empty;
    }
    minY
    {
        type            zeroGradient;
    }
    maxY
    {
        type            calculated;
        value           nonuniform List<scalar> 0();
    }
    water_to_cooler
    {
        type            compressible::alphatWallBoilingWallFunction;
        phaseType       vapor;
        relax           constant 1;
        partitioningModel
        {
            type            Lavieville;
            alphaCrit       0.2;
        }
        otherPhase      liquid;
        dmdt            uniform 0;
        dDep            uniform 1e-05;
        qQuenching      uniform 0;
        alphatConv      uniform 0;
        value           uniform 3.01273722487e-05;
    }
    water_to_heater
    {
        type            compressible::alphatWallBoilingWallFunction;
        phaseType       vapor;
        relax           constant 1;
        partitioningModel
        {
            type            Lavieville;
            alphaCrit       0.2;
        }
        otherPhase      liquid;
        dmdt            uniform 0;
        dDep            uniform 1e-05;
        qQuenching      uniform 0;
        alphatConv      uniform 0;
        value           nonuniform List<scalar> 
60
(
1.80395012569e-07
1.80395012569e-07
1.66005291493e-07
1.83923053501e-07
1.66121458096e-07
1.66121458096e-07
1.83659189469e-07
1.83659189469e-07
1.66121458096e-07
1.66121458096e-07
1.81487869493e-07
1.66005291493e-07
1.76677058746e-07
1.76677058746e-07
1.66005291493e-07
1.66005291493e-07
1.70279407699e-07
1.70279407699e-07
1.65183857258e-07
1.67755138911e-07
1.64825664905e-07
1.64825664905e-07
1.67620811437e-07
1.67620811437e-07
1.64825664905e-07
1.64825664905e-07
1.65846340395e-07
1.64685953009e-07
1.63019595724e-07
1.63019595724e-07
1.34849439719e-07
1.34849439719e-07
7.95357715856e-08
7.95357715856e-08
4.02089145639e-08
2.71197057972e-08
2.67671210375e-08
2.67671210375e-08
2.69552686977e-08
2.69552686977e-08
2.64846907506e-08
2.64846907506e-08
5.10763480694e-08
7.2368436155e-07
4.04119299646e-06
4.04119299646e-06
4.33249934234e-06
4.33249934234e-06
4.38873985758e-06
4.38873985758e-06