/*--------------------------------*- C++ -*----------------------------------*\
| =========                 |                                                 |
| \\      /  F ield         | OpenFOAM: The Open Source CFD Toolbox           |
|  \\    /   O peration     | Version:  2312                                  |
|   \\  /    A nd           | Website:  www.openfoam.com                      |
|    \\/     M anipulation  |                                                 |
\*---------------------------------------------------------------------------*/
FoamFile
{
    version     2.0;
    format      ascii;
    arch        "LSB;label=32;scalar=64";
    class       volScalarField;
    location    "14";
    object      alpha.air;
}
// * * * * * * * * * * * * * * * * * * * * * * * * * * * * * * * * * * * * * //

dimensions      [0 0 0 0 0 0 0];

internalField   nonuniform List<scalar> 
1875
(
0.143296
0.143761
0.161511
0.193731
0.225879
0.232644
0.255532
0.161567
0.175609
0.241359
0.255149
0.239113
0.221004
0.203238
0.190652
0.184669
0.184162
0.184652
0.202237
0.211561
0.183318
0.148854
0.121413
0.105405
0.104398
0.173313
0.229002
0.228279
0.249942
0.293579
0.2534
0.14687
0.103165
0.178188
0.25348
0.264597
0.217632
0.192729
0.181012
0.179992
0.180065
0.184132
0.200205
0.211407
0.211132
0.211407
0.167982
0.134498
0.14673
0.116126
0.215402
0.35473
0.319979
0.331817
0.328465
0.221206
0.112571
0.0926972
0.185639
0.284837
0.291026
0.218972
0.204784
0.212015
0.210352
0.195804
0.185793
0.183068
0.182701
0.182878
0.19412
0.157765
0.146202
0.238158
0.16581
0.212672
0.371757
0.376924
0.371757
0.3247
0.189632
0.0978319
0.0820163
0.167824
0.303585
0.333999
0.331488
0.378955
0.429191
0.40834
0.325394
0.281208
0.24386
0.220966
0.205723
0.191209
0.173401
0.187851
0.282125
0.176873
0.187359
0.359218
0.371757
0.371787
0.298721
0.16902
0.091101
0.0692633
0.117725
0.237917
0.320845
0.404331
0.429115
0.423995
0.447139
0.423995
0.447763
0.394799
0.32159
0.270793
0.218684
0.198448
0.223396
0.280845
0.162395
0.166607
0.337287
0.372929
0.354617
0.256651
0.152169
0.08577
0.0604464
0.0721465
0.124939
0.217045
0.317364
0.403388
0.432308
0.423995
0.433216
0.423995
0.43626
0.423896
0.401634
0.306744
0.250292
0.248944
0.281636
0.140261
0.15805
0.319756
0.367543
0.323965
0.220548
0.144344
0.0883743
0.0608226
0.0600382
0.0665543
0.102166
0.167737
0.25782
0.339021
0.371628
0.399731
0.410151
0.421124
0.421765
0.420609
0.407736
0.34136
0.264896
0.26882
0.123211
0.158395
0.317053
0.361916
0.306564
0.19301
0.135043
0.0914038
0.0596542
0.0608226
0.0605081
0.0645987
0.086224
0.130716
0.193727
0.250201
0.295463
0.33331
0.363527
0.389358
0.40909
0.403562
0.367979
0.303676
0.235245
0.106156
0.15805
0.288258
0.353106
0.329211
0.220077
0.125567
0.0873214
0.0618961
0.059651
0.0608226
0.0606547
0.0613641
0.0735524
0.10303
0.141381
0.177541
0.21809
0.263705
0.303649
0.342785
0.381031
0.36107
0.282519
0.135018
0.0957622
0.158535
0.22085
0.303116
0.322039
0.292935
0.186944
0.0969583
0.066368
0.0608226
0.0601967
0.0608226
0.0607212
0.0615612
0.0668662
0.0792939
0.0984523
0.127585
0.169975
0.204644
0.26458
0.370979
0.339292
0.218031
0.0912928
0.0949739
0.147572
0.143713
0.187902
0.258677
0.280199
0.267156
0.180217
0.0866769
0.0599674
0.0608226
0.0601346
0.0608226
0.0606745
0.0616597
0.0702818
0.0897467
0.116372
0.150825
0.205973
0.30446
0.363795
0.278205
0.141794
0.0917969
0.0971386
0.131909
0.13304
0.132571
0.154235
0.215172
0.251468
0.240109
0.162161
0.0700933
0.0597321
0.0608226
0.0603
0.0608226
0.0665545
0.0805179
0.1013
0.125304
0.166025
0.257417
0.328193
0.329612
0.182999
0.0972933
0.0935611
0.114394
0.133039
0.137884
0.16251
0.158497
0.165468
0.209913
0.236019
0.194601
0.0912938
0.0608226
0.0593317
0.0608226
0.0646882
0.0823014
0.101733
0.116023
0.13972
0.224934
0.30545
0.325854
0.253865
0.132618
0.111516
0.119589
0.131368
0.12857
0.218478
0.309659
0.236256
0.179903
0.209532
0.233185
0.191014
0.0849395
0.0586083
0.0608226
0.0603254
0.0769613
0.0926011
0.101555
0.109731
0.172072
0.298628
0.337262
0.306928
0.200406
0.141067
0.135663
0.144541
0.137596
0.133039
0.285991
0.35647
0.362797
0.218569
0.216302
0.239155
0.189527
0.0787765
0.0608226
0.0592539
0.0689503
0.0809806
0.0864563
0.0867582
0.0907522
0.183807
0.326584
0.360798
0.318887
0.214206
0.157756
0.163121
0.158765
0.14422
0.128836
0.282743
0.362504
0.355027
0.332855
0.237952
0.241019
0.194957
0.0838626
0.0586028
0.0613279
0.0737356
0.0744631
0.0696238
0.0636202
0.0607245
0.153506
0.31827
0.36789
0.376055
0.255386
0.177637
0.200393
0.162306
0.151416
0.13304
0.210455
0.355027
0.361559
0.353496
0.307724
0.239997
0.186974
0.100107
0.0615124
0.0745364
0.0884641
0.0758344
0.0603199
0.0603992
0.0603086
0.138786
0.326191
0.407647
0.42255
0.29562
0.220166
0.225195
0.164987
0.154829
0.142896
0.160427
0.300488
0.353496
0.331435
0.265722
0.209412
0.165224
0.116153
0.082848
0.0995399
0.110668
0.0997969
0.0820778
0.060528
0.0673587
0.187297
0.3659
0.441268
0.438925
0.302858
0.272747
0.228823
0.166571
0.161312
0.154433
0.154747
0.209048
0.28308
0.242003
0.18881
0.153999
0.130833
0.118084
0.109337
0.113893
0.116356
0.116926
0.0934825
0.0723317
0.144685
0.322809
0.426182
0.442349
0.412966
0.281036
0.274299
0.22175
0.163267
0.165887
0.161226
0.154242
0.17589
0.255363
0.257227
0.171054
0.113504
0.0910655
0.0970494
0.103559
0.103882
0.10337
0.106226
0.111366
0.146604
0.282297
0.398055
0.432559
0.428076
0.319887
0.275153
0.255702
0.189245
0.158144
0.166977
0.163802
0.184507
0.184563
0.242789
0.258156
0.198887
0.120281
0.0845191
0.0841826
0.0838684
0.0912707
0.107518
0.116269
0.139247
0.215543
0.323856
0.367282
0.385008
0.348956
0.283728
0.278963
0.21498
0.163303
0.156897
0.167051
0.166747
0.202247
0.20981
0.243344
0.252129
0.183789
0.113546
0.0849845
0.0853269
0.0919095
0.100113
0.116352
0.132578
0.163772
0.243319
0.30635
0.345954
0.345905
0.34226
0.307694
0.252235
0.172124
0.156897
0.156633
0.166684
0.168649
0.200125
0.221448
0.236954
0.203965
0.110522
0.106917
0.10781
0.12213
0.119709
0.128971
0.142802
0.156809
0.186798
0.232077
0.285255
0.320179
0.340935
0.340441
0.312876
0.201309
0.156897
0.15633
0.156897
0.166699
0.17087
0.198308
0.21396
0.190195
0.125498
0.109487
0.12854
0.16609
0.170431
0.163219
0.164154
0.168945
0.175345
0.186383
0.212956
0.247768
0.299777
0.338771
0.3138
0.257713
0.165534
0.155823
0.156897
0.155331
0.166033
0.175332
0.193523
0.231188
0.172459
0.11777
0.118991
0.196927
0.226667
0.208409
0.17561
0.167937
0.166562
0.171439
0.182876
0.215478
0.265827
0.314408
0.323437
0.257123
0.185905
0.156462
0.156897
0.154973
0.156897
0.162158
0.179605
0.182532
0.248689
0.201137
0.121237
0.119531
0.199704
0.239517
0.238608
0.215806
0.162233
0.151464
0.151135
0.187987
0.251921
0.300361
0.314459
0.287974
0.202474
0.163831
0.156897
0.155391
0.156897
0.154965
0.158134
0.179567
0.173268
0.25152
0.269691
0.190133
0.126563
0.169159
0.237653
0.239392
0.238493
0.219219
0.153329
0.146327
0.17139
0.244646
0.289298
0.299901
0.246698
0.174741
0.163578
0.164522
0.187801
0.179259
0.16167
0.1585
0.178916
0.171561
0.226065
0.299907
0.278669
0.175769
0.169401
0.211737
0.238487
0.239098
0.238339
0.223008
0.143484
0.137796
0.188316
0.252744
0.264416
0.221768
0.177181
0.164279
0.22002
0.288957
0.247301
0.180815
0.158722
0.178851
0.171656
0.185558
0.301739
0.331898
0.259438
0.171473
0.183796
0.226392
0.238339
0.238843
0.238182
0.209112
0.131491
0.128443
0.186218
0.227846
0.215402
0.184408
0.186335
0.283767
0.329655
0.303451
0.197937
0.158342
0.178716
0.17054
0.171656
0.271592
0.332119
0.31447
0.193259
0.176877
0.196533
0.222545
0.235411
0.238568
0.238009
0.190386
0.128666
0.132491
0.179396
0.203262
0.191269
0.210352
0.302692
0.33028
0.314534
0.212454
0.15848
0.173636
0.171656
0.170341
0.204009
0.309503
0.313148
0.233668
0.177135
0.175635
0.187778
0.206279
0.221332
0.22861
0.217688
0.161718
0.135615
0.159131
0.187494
0.193562
0.228087
0.305291
0.328897
0.304487
0.213347
0.158337
0.171656
0.168161
0.171656
0.170747
0.238921
0.294282
0.267356
0.19287
0.172005
0.170525
0.175527
0.189088
0.204497
0.205258
0.185439
0.153981
0.166593
0.184232
0.198116
0.249517
0.313737
0.328789
0.29786
0.206979
0.158447
0.170734
0.176452
0.170065
0.171656
0.185452
0.250956
0.261693
0.223881
0.183819
0.170394
0.1655
0.169581
0.178972
0.188863
0.18203
0.171058
0.178608
0.188898
0.209202
0.268331
0.321592
0.329655
0.296202
0.203997
0.158912
0.18453
0.225336
0.239346
0.187799
0.186129
0.210216
0.248503
0.241243
0.210587
0.184011
0.165387
0.157772
0.161714
0.17193
0.175788
0.181954
0.191015
0.198885
0.225393
0.284248
0.326453
0.32982
0.281363
0.196399
0.158983
0.19729
0.263822
0.294682
0.238591
0.190128
0.212619
0.239469
0.240769
0.226106
0.195471
0.162847
0.147366
0.149616
0.158916
0.171598
0.189587
0.201449
0.211905
0.242136
0.296302
0.325121
0.311136
0.245636
0.188418
0.159763
0.204601
0.276825
0.294393
0.265397
0.218598
0.226355
0.239193
0.240268
0.221453
0.185313
0.153829
0.141801
0.147893
0.158429
0.173552
0.192448
0.2035
0.216579
0.250872
0.300921
0.313507
0.277375
0.213373
0.186652
0.162458
0.207986
0.277725
0.294518
0.269775
0.247791
0.238999
0.236011
0.233474
0.201412
0.159965
0.137676
0.141502
0.150438
0.161335
0.176841
0.190595
0.202247
0.222538
0.262672
0.301168
0.287752
0.245811
0.194294
0.185282
0.162503
0.208241
0.278552
0.289626
0.260488
0.243347
0.233472
0.22676
0.2136
0.167662
0.134774
0.134746
0.145178
0.156425
0.164837
0.177166
0.192256
0.207948
0.242366
0.291781
0.299114
0.264869
0.214817
0.183528
0.184734
0.162363
0.207783
0.278158
0.282906
0.247492
0.232679
0.222772
0.216317
0.187861
0.144312
0.134649
0.136393
0.150226
0.158734
0.169606
0.187728
0.215734
0.250557
0.284496
0.292023
0.285596
0.239407
0.190368
0.181537
0.188129
0.162248
0.204136
0.267156
0.27755
0.236909
0.216385
0.21066
0.208107
0.178326
0.147037
0.13486
0.143544
0.157556
0.168719
0.193608
0.227716
0.261049
0.28116
0.284672
0.283269
0.248161
0.203448
0.18166
0.181561
0.191623
0.162234
0.200456
0.254918
0.272593
0.238478
0.202738
0.201288
0.198989
0.183579
0.159379
0.148114
0.154023
0.16974
0.192499
0.230988
0.26207
0.27836
0.28133
0.273337
0.24601
0.204733
0.18276
0.181561
0.181272
0.193733
0.163638
0.196829
0.243201
0.267263
0.262823
0.201099
0.188653
0.183425
0.182479
0.173834
0.164091
0.168895
0.18488
0.206686
0.230561
0.25615
0.263892
0.260235
0.235076
0.201929
0.182419
0.181561
0.181232
0.181561
0.195313
0.165036
0.193558
0.232317
0.26608
0.281508
0.223835
0.188145
0.182468
0.182683
0.182908
0.179383
0.181169
0.191322
0.202818
0.220822
0.235033
0.231796
0.21672
0.196092
0.183053
0.181561
0.181232
0.181561
0.188906
0.197276
0.165679
0.190236
0.221679
0.254503
0.28152
0.268035
0.204512
0.185755
0.196357
0.20393
0.204183
0.195211
0.190621
0.193744
0.197536
0.198144
0.192456
0.184738
0.183083
0.182919
0.182109
0.186801
0.194204
0.199893
0.20106
0.166021
0.186356
0.211763
0.233375
0.273235
0.271991
0.215112
0.220891
0.246312
0.233847
0.21285
0.194524
0.184713
0.180015
0.180372
0.179737
0.180372
0.179896
0.183514
0.19579
0.201476
0.214956
0.209885
0.206144
0.206683
0.167081
0.182341
0.197514
0.217894
0.244261
0.264923
0.230851
0.247111
0.255273
0.232822
0.206316
0.187417
0.179613
0.180347
0.17789
0.180372
0.178144
0.180372
0.19823
0.214415
0.223817
0.226397
0.21675
0.212688
0.21242
0.17081
0.177574
0.190557
0.217091
0.221075
0.249304
0.23082
0.245079
0.255193
0.229134
0.196937
0.183375
0.180347
0.177285
0.180347
0.177305
0.180372
0.180197
0.197717
0.208022
0.223263
0.226386
0.222566
0.221366
0.217527
0.177497
0.175454
0.21219
0.223008
0.221123
0.227771
0.22561
0.234368
0.250757
0.233813
0.199568
0.18403
0.177804
0.180347
0.177448
0.180347
0.178096
0.182902
0.186182
0.188068
0.213999
0.224453
0.226609
0.230678
0.22301
0.184898
0.175422
0.269572
0.255361
0.22881
0.22452
0.219339
0.219962
0.238561
0.237542
0.209761
0.193948
0.18404
0.178385
0.180347
0.178984
0.183357
0.184674
0.181661
0.182186
0.196063
0.220691
0.230197
0.238422
0.228524
0.189794
0.175029
0.335446
0.418151
0.268858
0.231654
0.218764
0.219339
0.224146
0.237726
0.227248
0.209283
0.187752
0.180494
0.185212
0.190929
0.210075
0.197559
0.182186
0.181132
0.186621
0.217074
0.233356
0.238876
0.23239
0.192165
0.175371
0.374694
0.431444
0.416932
0.280367
0.23529
0.221396
0.226995
0.238005
0.226617
0.203155
0.180765
0.176778
0.18358
0.197359
0.223523
0.219894
0.181669
0.182186
0.18393
0.211365
0.231988
0.238792
0.233129
0.192931
0.173133
0.372257
0.446695
0.431444
0.383222
0.302999
0.249966
0.238155
0.231359
0.212739
0.18273
0.16709
0.169331
0.180722
0.200074
0.22346
0.223523
0.199784
0.180726
0.182186
0.197995
0.22701
0.238709
0.232683
0.192777
0.170465
0.297381
0.431444
0.44438
0.41488
0.309967
0.25194
0.231412
0.212677
0.185599
0.166116
0.165706
0.171731
0.181102
0.196189
0.207454
0.209983
0.214698
0.191346
0.18121
0.187292
0.216968
0.238438
0.231876
0.19254
0.172434
0.240771
0.418313
0.431444
0.402302
0.293591
0.236874
0.209809
0.187076
0.169143
0.165597
0.164814
0.170799
0.170795
0.177325
0.183598
0.198895
0.234615
0.218597
0.184009
0.187183
0.216878
0.238633
0.231337
0.192777
0.16697
0.207375
0.37929
0.425998
0.369808
0.258071
0.214816
0.195235
0.178894
0.169286
0.164582
0.163232
0.162685
0.160209
0.162166
0.173665
0.210753
0.242179
0.233012
0.196746
0.199979
0.225983
0.237956
0.230158
0.192353
0.172434
0.182527
0.326252
0.411401
0.365344
0.263915
0.219093
0.19965
0.185244
0.178652
0.17032
0.161439
0.159908
0.160183
0.159883
0.180543
0.22895
0.24212
0.232656
0.203795
0.216168
0.233908
0.238093
0.230145
0.192777
0.16515
0.181922
0.265582
0.383919
0.374722
0.29005
0.234466
0.214348
0.204074
0.196587
0.180545
0.173415
0.169926
0.159882
0.16017
0.184868
0.226859
0.242179
0.240256
0.219612
0.23033
0.23707
0.237326
0.227625
0.192488
0.172434
0.186104
0.22289
0.335101
0.370046
0.334077
0.271829
0.239711
0.230972
0.218497
0.199791
0.208508
0.210931
0.170794
0.16053
0.178569
0.215018
0.239213
0.240147
0.237242
0.237167
0.23476
0.232699
0.2249
0.199146
0.166172
0.192072
0.208244
0.279925
0.353621
0.350286
0.320616
0.284826
0.272904
0.263935
0.264454
0.281466
0.259954
0.188977
0.161676
0.171041
0.199395
0.228633
0.238215
0.239029
0.238345
0.234652
0.229353
0.225544
0.205291
0.172754
0.206806
0.215204
0.242411
0.319423
0.346357
0.342308
0.326742
0.320428
0.338752
0.349779
0.349972
0.3054
0.219916
0.167834
0.167032
0.183583
0.21612
0.23391
0.240438
0.241974
0.242071
0.231735
0.227718
0.208129
0.168953
0.233069
0.224957
0.231151
0.274745
0.330328
0.341561
0.336107
0.340387
0.349607
0.349745
0.349739
0.324522
0.258555
0.204625
0.169091
0.177455
0.199194
0.226677
0.24143
0.242805
0.243452
0.235756
0.229177
0.207819
0.173094
0.251806
0.24121
0.238513
0.253634
0.302656
0.337728
0.341964
0.343495
0.349431
0.349599
0.349719
0.334271
0.288078
0.245814
0.207558
0.182278
0.183783
0.208482
0.232183
0.242853
0.243263
0.239988
0.231032
0.207481
0.173535
0.253654
0.251304
0.255328
0.255144
0.282614
0.327165
0.340471
0.343261
0.344836
0.346129
0.344378
0.328066
0.284679
0.255184
0.247263
0.209911
0.181857
0.188775
0.22013
0.23995
0.243119
0.23997
0.231221
0.20456
0.177262
0.260683
0.260674
0.260683
0.260464
0.282355
0.322915
0.341165
0.343431
0.343259
0.342717
0.337927
0.320151
0.284547
0.267255
0.264943
0.232749
0.182149
0.181655
0.207503
0.234397
0.243042
0.237583
0.229498
0.199852
0.177508
0.247355
0.246166
0.251571
0.249813
0.266765
0.301116
0.324788
0.328146
0.326887
0.322979
0.313288
0.291856
0.265857
0.251986
0.245971
0.233431
0.197056
0.181711
0.186664
0.207729
0.227327
0.217706
0.212091
0.197918
0.177459
0.233418
0.227904
0.231748
0.231995
0.240982
0.261183
0.279544
0.282277
0.280836
0.27405
0.260666
0.238268
0.224961
0.22719
0.236181
0.239587
0.219665
0.181477
0.180318
0.189075
0.216671
0.219461
0.203108
0.197914
0.2196
0.189077
0.173005
0.173502
0.173005
0.173502
0.173005
0.173877
0.177246
0.176206
0.175497
0.173503
0.173179
0.187412
0.217485
0.25297
0.292776
0.299483
0.281371
0.255373
0.261545
0.274923
0.219665
0.23365
0.250554
0.687942
0.618714
0.500628
0.505268
0.498344
0.504786
0.495866
0.506368
0.494862
0.50778
0.496644
0.503766
0.552422
0.65056
0.680479
0.691835
0.697745
0.698378
0.709796
0.706558
0.704155
0.737803
0.514362
0.674351
0.713215
0.978886
0.981463
0.980181
0.972082
0.976701
0.968533
0.97466
0.964896
0.974085
0.963327
0.973595
0.968214
0.981504
0.982824
0.98023
0.979748
0.978637
0.977176
0.980378
0.983992
0.985946
0.989408
0.988366
0.987439
0.985282
0.999558
0.999591
0.999735
0.999813
0.999863
0.999953
0.999985
0.99998
0.999983
0.999953
0.999916
0.999807
0.999704
0.999679
0.999634
0.999616
0.999643
0.999721
0.99985
0.999941
0.99995
0.999957
0.999954
0.999916
0.999886
0.999986
0.999994
0.999999
1
1
1
1
1
1
1
1
1
0.999999
0.999998
0.999996
0.999977
0.999984
0.999999
1
1
1
1
1
1
0.999999
1
1
1
1
1
1
1
1
1
1
1
1
1
1
1
0.999997
0.999999
1
1
1
1
1
1
1
1
1
1
1
1
1
1
1
1
1
1
1
1
1
1
1
0.999999
1
1
1
1
1
1
1
1
1
1
1
1
1
1
1
1
1
1
1
1
1
1
1
1
1
1
1
1
1
1
1
1
1
1
1
1
1
1
1
1
1
1
1
1
1
1
1
1
1
1
1
1
1
1
1
1
1
1
1
)
;

boundaryField
{
    inlet
    {
        type            fixedValue;
        value           uniform 0.5;
    }
    outlet
    {
        type            inletOutlet;
        phi             phi.air;
        inletValue      uniform 1;
        value           nonuniform List<scalar> 
25
(
1
1
1
1
1
1
1
1
1
1
1
1
1
1
1
1
1
1
1
1
1
1
1
1
1
)
;
    }
    walls
    {
        type            zeroGradient;
    }
    defaultFaces
    {
        type            empty;
    }
}


// ************************************************************************* //
