/*--------------------------------*- C++ -*----------------------------------*\
| =========                 |                                                 |
| \\      /  F ield         | OpenFOAM: The Open Source CFD Toolbox           |
|  \\    /   O peration     | Version:  2312                                  |
|   \\  /    A nd           | Website:  www.openfoam.com                      |
|    \\/     M anipulation  |                                                 |
\*---------------------------------------------------------------------------*/
FoamFile
{
    version     2.0;
    format      ascii;
    arch        "LSB;label=32;scalar=64";
    class       volVectorField;
    location    "14";
    object      U.air;
}
// * * * * * * * * * * * * * * * * * * * * * * * * * * * * * * * * * * * * * //

dimensions      [0 1 -1 0 0 0 0];

internalField   nonuniform List<vector> 
1875
(
(0.170272 -0.0544733 0)
(0.343891 -0.00559361 0)
(0.420959 0.0823969 0)
(0.362624 0.141973 0)
(0.217188 0.214282 0)
(0.124555 0.249551 0)
(0.00521582 0.340441 0)
(-0.03565 0.289368 0)
(0.00501146 0.256898 0)
(-0.120926 0.274906 0)
(-0.269478 0.222526 0)
(-0.358206 0.221048 0)
(-0.426257 0.214414 0)
(-0.474342 0.198129 0)
(-0.493129 0.184501 0)
(-0.482419 0.167094 0)
(-0.466035 0.16217 0)
(-0.420095 0.147991 0)
(-0.38329 0.117494 0)
(-0.392614 0.0752332 0)
(-0.473601 0.0578654 0)
(-0.585909 0.0133627 0)
(-0.628912 -0.0204277 0)
(-0.456747 -0.10267 0)
(-0.22952 -0.145461 0)
(0.087459 -0.220029 0)
(0.193399 0.0855487 0)
(0.170214 0.270383 0)
(0.155959 0.462031 0)
(0.0502965 0.588859 0)
(-0.0928217 0.630613 0)
(-0.119696 0.700636 0)
(-0.0911782 0.740821 0)
(-0.0866006 0.735243 0)
(-0.15976 0.654453 0)
(-0.246789 0.572346 0)
(-0.307121 0.49555 0)
(-0.328675 0.413245 0)
(-0.335135 0.365498 0)
(-0.313075 0.309513 0)
(-0.261236 0.299208 0)
(-0.211651 0.303973 0)
(-0.145531 0.311974 0)
(-0.102946 0.393653 0)
(-0.0719657 0.503821 0)
(-0.105407 0.490565 0)
(-0.199354 0.394649 0)
(-0.210102 0.18439 0)
(-0.205454 -0.0206993 0)
(-0.113937 -0.318782 0)
(0.0184201 -0.431254 0)
(-0.0103043 -0.0401043 0)
(-0.0191008 0.0881041 0)
(-0.044672 0.267759 0)
(-0.0849765 0.558363 0)
(-0.142835 0.648164 0)
(-0.117282 0.713813 0)
(-0.0829114 0.753183 0)
(-0.0630646 0.729204 0)
(-0.109027 0.638512 0)
(-0.193041 0.526095 0)
(-0.214959 0.382533 0)
(-0.22679 0.295308 0)
(-0.280962 0.267694 0)
(-0.336911 0.135295 0)
(-0.35069 0.0499246 0)
(-0.315221 0.0147396 0)
(-0.276056 -0.00480629 0)
(-0.20681 0.0216379 0)
(-0.108534 0.124423 0)
(-0.00697838 0.274988 0)
(0.037088 0.199818 0)
(0.0878278 0.0659508 0)
(-0.00205137 -0.0842258 0)
(-0.00150534 -0.505568 0)
(0.000674504 -0.395055 0)
(-0.0202399 0.0381905 0)
(-0.0248982 0.228604 0)
(-0.108368 0.438591 0)
(-0.139128 0.598995 0)
(-0.124562 0.640037 0)
(-0.074856 0.686317 0)
(-0.00801992 0.749218 0)
(0.0486333 0.761407 0)
(0.036479 0.733943 0)
(-0.00472131 0.581526 0)
(-0.056028 0.456288 0)
(-0.130096 0.459606 0)
(-0.183089 0.437178 0)
(-0.245579 0.277145 0)
(-0.279435 0.125724 0)
(-0.290546 0.0965311 0)
(-0.29799 0.041188 0)
(-0.289046 0.0252184 0)
(-0.247206 0.0601711 0)
(-0.148 0.129116 0)
(-0.0233867 0.217931 0)
(0.0159798 0.24102 0)
(0.00237917 0.0494165 0)
(0.0146815 -0.447118 0)
(-0.00152436 -0.350623 0)
(-0.0453571 0.0170976 0)
(-0.094875 0.259375 0)
(-0.150388 0.465666 0)
(-0.139093 0.544516 0)
(-0.0991715 0.561623 0)
(-0.0328124 0.568087 0)
(0.069725 0.639059 0)
(0.132806 0.6613 0)
(0.202663 0.657428 0)
(0.224914 0.605974 0)
(0.199347 0.55016 0)
(0.145565 0.446901 0)
(0.0944213 0.362966 0)
(0.0348449 0.204002 0)
(-0.0603196 0.0521874 0)
(-0.130674 0.0403405 0)
(-0.190345 -0.0357105 0)
(-0.24166 -0.0965715 0)
(-0.260949 -0.127351 0)
(-0.252 -0.153442 0)
(-0.141428 -0.0755566 0)
(-0.0528614 0.021525 0)
(0.0165643 -0.0609609 0)
(0.0100772 -0.425716 0)
(0.00189663 -0.188196 0)
(-0.0432384 0.217037 0)
(-0.129638 0.389797 0)
(-0.146879 0.470542 0)
(-0.147759 0.469027 0)
(-0.0843472 0.445373 0)
(-0.0170724 0.405292 0)
(0.0970155 0.493864 0)
(0.199075 0.513079 0)
(0.291234 0.53214 0)
(0.365706 0.51483 0)
(0.405623 0.502622 0)
(0.422315 0.483858 0)
(0.413251 0.448817 0)
(0.373832 0.38909 0)
(0.290376 0.292855 0)
(0.197636 0.256674 0)
(0.140277 0.184569 0)
(0.0598746 0.0821283 0)
(-0.0135184 -0.018846 0)
(-0.071103 -0.145993 0)
(-0.0732593 -0.172429 0)
(-0.0122925 -0.0738038 0)
(0.0134724 -0.0772199 0)
(0.00102619 -0.383385 0)
(0.0210522 -0.113949 0)
(-0.0221081 0.33424 0)
(-0.0820541 0.474112 0)
(-0.107624 0.477062 0)
(-0.100843 0.417097 0)
(-0.0527855 0.351894 0)
(-0.0139567 0.296762 0)
(0.0560309 0.309296 0)
(0.15679 0.368626 0)
(0.221074 0.38652 0)
(0.303495 0.40375 0)
(0.350845 0.424547 0)
(0.39874 0.415788 0)
(0.42425 0.397887 0)
(0.438828 0.350708 0)
(0.426674 0.29697 0)
(0.396309 0.24795 0)
(0.363007 0.207664 0)
(0.312725 0.151256 0)
(0.243921 0.0955624 0)
(0.153072 0.0372182 0)
(0.0400767 -0.0406896 0)
(0.0121602 -0.0432469 0)
(0.0178041 -0.0479582 0)
(0.0217902 -0.333845 0)
(0.00502471 -0.0738531 0)
(0.024812 0.454816 0)
(-0.0312731 0.566719 0)
(-0.0376358 0.489984 0)
(-0.0570971 0.366313 0)
(-0.0153602 0.29267 0)
(0.00253973 0.23918 0)
(0.0441953 0.220618 0)
(0.0816535 0.266847 0)
(0.115206 0.313784 0)
(0.147639 0.332997 0)
(0.197531 0.335248 0)
(0.259996 0.322995 0)
(0.311112 0.34511 0)
(0.350263 0.342216 0)
(0.368213 0.320017 0)
(0.367008 0.305012 0)
(0.350746 0.299213 0)
(0.311989 0.287637 0)
(0.254099 0.278208 0)
(0.170943 0.221914 0)
(0.0927695 0.149347 0)
(0.0340765 0.115998 0)
(0.00202238 0.0256409 0)
(0.0543692 -0.229092 0)
(-0.0547806 -0.0909956 0)
(0.0541119 0.430405 0)
(0.0712033 0.574167 0)
(0.0868909 0.52452 0)
(0.0330383 0.341485 0)
(0.00562239 0.240433 0)
(0.00511686 0.203024 0)
(0.00731893 0.18922 0)
(0.0127295 0.251946 0)
(0.0296511 0.286449 0)
(0.0576581 0.292819 0)
(0.0992533 0.282894 0)
(0.131262 0.282075 0)
(0.162901 0.291965 0)
(0.199867 0.295057 0)
(0.229897 0.290022 0)
(0.246682 0.300901 0)
(0.245764 0.3236 0)
(0.224674 0.341887 0)
(0.199239 0.360183 0)
(0.134433 0.388084 0)
(0.0549619 0.304767 0)
(-0.0559005 0.294088 0)
(-0.0043194 0.101285 0)
(0.0683607 -0.133432 0)
(-0.0704231 -0.0415868 0)
(0.0313905 0.279524 0)
(0.181284 0.517971 0)
(0.257051 0.563615 0)
(0.228772 0.4734 0)
(0.124439 0.295727 0)
(0.0430082 0.225633 0)
(0.00122937 0.2042 0)
(-0.0032013 0.217666 0)
(0.0286451 0.219773 0)
(0.0603815 0.208426 0)
(0.0951162 0.219834 0)
(0.109324 0.245277 0)
(0.129492 0.26243 0)
(0.143647 0.27669 0)
(0.158822 0.299904 0)
(0.145991 0.317777 0)
(0.140438 0.354267 0)
(0.111598 0.389666 0)
(0.0999106 0.430674 0)
(0.020989 0.51065 0)
(-0.074356 0.553627 0)
(-0.129481 0.425456 0)
(0.0237466 0.0136088 0)
(0.0121002 -0.0655827 0)
(-0.0236825 0.0227221 0)
(0.0563158 0.0503226 0)
(0.188386 0.22444 0)
(0.336893 0.464878 0)
(0.392514 0.581507 0)
(0.338519 0.558551 0)
(0.190781 0.405697 0)
(0.086669 0.244106 0)
(0.0458713 0.180036 0)
(0.0569671 0.172164 0)
(0.0565349 0.178443 0)
(0.0545449 0.19359 0)
(0.0556069 0.219518 0)
(0.0563584 0.244697 0)
(0.0485305 0.268739 0)
(0.0418001 0.314513 0)
(0.0403709 0.358763 0)
(0.0279389 0.416076 0)
(0.0152581 0.433811 0)
(-0.0868366 0.510851 0)
(-0.173294 0.743058 0)
(-0.243649 0.690754 0)
(-0.103926 0.316887 0)
(0.0248791 -0.0385424 0)
(-0.036182 -0.0687934 0)
(0.0819705 -0.0391542 0)
(0.168133 0.0179863 0)
(0.278382 0.151438 0)
(0.300073 0.275476 0)
(0.3929 0.505968 0)
(0.380223 0.671336 0)
(0.328147 0.66058 0)
(0.179916 0.497842 0)
(0.0723491 0.276542 0)
(0.0655287 0.204354 0)
(0.0455228 0.216463 0)
(0.0221291 0.242403 0)
(-0.00295775 0.260938 0)
(-0.0180884 0.280338 0)
(-0.0312908 0.292343 0)
(-0.0327383 0.296195 0)
(-0.0232625 0.311927 0)
(-0.0351011 0.387827 0)
(-0.109902 0.549409 0)
(-0.271856 0.806599 0)
(-0.335032 0.855179 0)
(-0.248717 0.540653 0)
(-0.0648576 0.0665114 0)
(-0.0318223 -0.0683771 0)
(-0.00989229 -0.0946771 0)
(0.138556 -0.384398 0)
(0.223563 -0.254609 0)
(0.320949 0.0649466 0)
(0.261925 0.310326 0)
(0.266214 0.454644 0)
(0.292374 0.703137 0)
(0.234258 0.783757 0)
(0.162446 0.729944 0)
(0.0622252 0.493005 0)
(0.0534591 0.323853 0)
(0.037754 0.299571 0)
(0.00950321 0.290847 0)
(-0.00911618 0.289469 0)
(-0.0230083 0.2855 0)
(-0.0233212 0.276296 0)
(-0.0209243 0.275409 0)
(-0.0183462 0.321207 0)
(-0.0883498 0.520411 0)
(-0.256703 0.878719 0)
(-0.336821 0.96046 0)
(-0.336138 0.763441 0)
(-0.166372 0.241782 0)
(-0.109493 0.00572464 0)
(-0.0978097 -0.125312 0)
(-0.0280729 -0.180896 0)
(0.0760195 -0.704118 0)
(0.150067 -0.486145 0)
(0.139142 -0.0892219 0)
(0.145997 0.287681 0)
(0.0595819 0.429467 0)
(0.10979 0.678944 0)
(0.054199 0.864967 0)
(0.00330373 0.860531 0)
(-0.0498175 0.643171 0)
(-0.0530826 0.412037 0)
(-0.0288899 0.352492 0)
(-0.0500757 0.327212 0)
(-0.0482706 0.31126 0)
(-0.0487021 0.287728 0)
(-0.0388966 0.264828 0)
(-0.0399402 0.271866 0)
(-0.0277345 0.408307 0)
(-0.157215 0.817786 0)
(-0.262237 1.02074 0)
(-0.299958 0.978048 0)
(-0.258034 0.530898 0)
(-0.121849 0.136222 0)
(-0.179037 -0.0338599 0)
(-0.0921673 -0.24962 0)
(-0.066647 -0.337313 0)
(0.0389584 -0.862048 0)
(0.0791261 -0.601238 0)
(-0.0109734 -0.181065 0)
(0.0166202 0.262305 0)
(-0.0610308 0.370007 0)
(-0.0143106 0.641925 0)
(-0.0504096 0.909337 0)
(-0.0712826 0.940514 0)
(-0.112021 0.764923 0)
(-0.135765 0.47874 0)
(-0.135138 0.354938 0)
(-0.144218 0.306042 0)
(-0.125232 0.278408 0)
(-0.102092 0.261885 0)
(-0.0835977 0.25828 0)
(-0.0654176 0.300427 0)
(-0.0404016 0.51451 0)
(-0.0851912 0.961064 0)
(-0.128662 1.10524 0)
(-0.186995 0.934973 0)
(-0.154726 0.322585 0)
(-0.131287 0.0478918 0)
(-0.130459 -0.107948 0)
(-0.0836906 -0.362831 0)
(-0.044063 -0.478406 0)
(0.0168692 -0.876614 0)
(0.0363054 -0.614088 0)
(-0.0331941 -0.234698 0)
(-0.0264298 0.151871 0)
(-0.0278545 0.331424 0)
(-0.0813406 0.52464 0)
(-0.0715629 0.859426 0)
(-0.092978 0.927459 0)
(-0.07545 0.83062 0)
(-0.0897355 0.616525 0)
(-0.119301 0.4061 0)
(-0.136895 0.284932 0)
(-0.126688 0.223214 0)
(-0.0986361 0.208722 0)
(-0.0705626 0.233821 0)
(-0.0318215 0.291981 0)
(0.0115044 0.521428 0)
(0.0152632 0.997569 0)
(0.00542324 1.17783 0)
(-0.0673428 0.971907 0)
(-0.0319785 0.272227 0)
(-0.0882159 0.0159301 0)
(-0.0575126 -0.199456 0)
(-0.0543463 -0.450128 0)
(-0.0179196 -0.595558 0)
(-0.01336 -0.84729 0)
(0.0251546 -0.645121 0)
(-0.0398952 -0.34628 0)
(-0.099758 -0.0173656 0)
(-0.118831 0.297787 0)
(-0.197673 0.556153 0)
(-0.171788 0.785715 0)
(-0.133927 0.852366 0)
(-0.0617418 0.786138 0)
(-0.0398334 0.604783 0)
(-0.0345115 0.404502 0)
(-0.0494801 0.246635 0)
(-0.0447641 0.155034 0)
(-0.0152918 0.148608 0)
(0.0308278 0.182525 0)
(0.0748644 0.295047 0)
(0.0372641 0.574985 0)
(0.00760951 1.05223 0)
(-0.00266966 1.24714 0)
(-0.0303888 0.938646 0)
(0.0328953 0.21502 0)
(-0.0349088 0.00959567 0)
(-0.0116515 -0.257834 0)
(-0.0232298 -0.48339 0)
(-0.0126245 -0.643739 0)
(-0.0494188 -0.613654 0)
(-0.0590443 -0.366647 0)
(-0.112899 -0.207244 0)
(-0.241436 0.0705917 0)
(-0.316453 0.302016 0)
(-0.335828 0.461328 0)
(-0.278785 0.627532 0)
(-0.138223 0.678756 0)
(0.00243015 0.665474 0)
(0.0815191 0.556536 0)
(0.120953 0.333795 0)
(0.128921 0.148291 0)
(0.145735 0.0982723 0)
(0.159619 0.11172 0)
(0.132726 0.181627 0)
(0.0818591 0.388542 0)
(-0.0296561 0.73439 0)
(-0.0871506 1.11176 0)
(-0.0908069 1.25379 0)
(-0.0260256 0.823348 0)
(0.0579319 0.19177 0)
(0.0115059 -0.0238227 0)
(0.0222225 -0.280457 0)
(0.0121492 -0.481376 0)
(-0.00226506 -0.651087 0)
(-0.0363323 -0.422526 0)
(-0.0610253 -0.0785727 0)
(-0.0743549 0.123143 0)
(-0.212212 0.235663 0)
(-0.278593 0.356051 0)
(-0.299939 0.409095 0)
(-0.204497 0.430673 0)
(-0.0374612 0.361663 0)
(0.137196 0.440399 0)
(0.251819 0.381535 0)
(0.328624 0.216762 0)
(0.323351 0.135468 0)
(0.265584 0.127192 0)
(0.175617 0.199732 0)
(0.10817 0.379506 0)
(-0.0490379 0.636135 0)
(-0.197073 0.901701 0)
(-0.206114 1.09059 0)
(-0.167268 1.13735 0)
(0.00275842 0.507999 0)
(0.0471983 0.146832 0)
(0.0448619 -0.0382747 0)
(0.0442499 -0.270997 0)
(0.032605 -0.451307 0)
(0.0115121 -0.610583 0)
(-0.000184477 -0.358641 0)
(-0.00489097 0.0174871 0)
(0.0268469 0.386807 0)
(-0.0232429 0.485881 0)
(-0.0801147 0.435428 0)
(-0.145275 0.322432 0)
(-0.0710212 0.193342 0)
(0.0369229 0.162667 0)
(0.154937 0.206633 0)
(0.256746 0.204482 0)
(0.259076 0.18484 0)
(0.217958 0.205801 0)
(0.156866 0.319989 0)
(-0.00317301 0.517403 0)
(-0.171379 0.674026 0)
(-0.27496 0.779575 0)
(-0.296838 0.919236 0)
(-0.268696 0.99048 0)
(-0.111044 0.76689 0)
(0.0134997 0.347357 0)
(0.0207708 0.147998 0)
(0.0347179 -0.0365667 0)
(0.0459693 -0.244464 0)
(0.0329408 -0.399971 0)
(0.0121614 -0.546538 0)
(0.00463094 -0.378475 0)
(0.0154051 -0.0491031 0)
(0.0447036 0.310277 0)
(0.071174 0.527491 0)
(0.0531084 0.510825 0)
(0.0318272 0.346409 0)
(0.0927937 0.0864337 0)
(0.11595 0.0776135 0)
(0.122657 0.118157 0)
(0.123053 0.207449 0)
(0.087351 0.326525 0)
(-0.0364463 0.47258 0)
(-0.1564 0.592157 0)
(-0.234465 0.680978 0)
(-0.283688 0.755906 0)
(-0.299489 0.813477 0)
(-0.29521 0.851545 0)
(-0.207636 0.728111 0)
(-0.0732476 0.509779 0)
(-0.0235099 0.284715 0)
(-0.0146364 0.131479 0)
(0.0101631 -0.0549712 0)
(0.0250429 -0.224167 0)
(0.0175 -0.365377 0)
(0.00695931 -0.51503 0)
(-0.00881963 -0.401249 0)
(0.0112646 -0.0842478 0)
(-0.0167338 0.250332 0)
(0.018828 0.494485 0)
(0.0285192 0.477658 0)
(0.105212 0.204612 0)
(0.161185 0.038525 0)
(0.118963 0.0891666 0)
(0.0729439 0.232245 0)
(-0.0396135 0.383782 0)
(-0.122572 0.510236 0)
(-0.178466 0.59922 0)
(-0.217573 0.660502 0)
(-0.230628 0.721521 0)
(-0.238998 0.770725 0)
(-0.237276 0.791002 0)
(-0.212675 0.700507 0)
(-0.11864 0.493747 0)
(-0.0866908 0.36726 0)
(-0.05196 0.21069 0)
(-0.0449909 0.0630696 0)
(-0.0019924 -0.102173 0)
(0.00285532 -0.237681 0)
(0.0083217 -0.364129 0)
(0.00281034 -0.503622 0)
(-0.0221259 -0.377322 0)
(-0.020112 -0.0622409 0)
(-0.0416735 0.267623 0)
(-0.0554051 0.4182 0)
(0.00577286 0.35351 0)
(0.0809643 0.136885 0)
(0.102843 0.134383 0)
(0.0213595 0.250461 0)
(-0.104704 0.399227 0)
(-0.1828 0.497039 0)
(-0.216409 0.562882 0)
(-0.2327 0.613388 0)
(-0.213185 0.658082 0)
(-0.184155 0.707631 0)
(-0.134911 0.732281 0)
(-0.0779514 0.698911 0)
(-0.0037011 0.538247 0)
(0.012405 0.407767 0)
(0.00478937 0.301064 0)
(-0.00590499 0.157987 0)
(-0.00330835 0.0285607 0)
(0.0364014 -0.123235 0)
(0.01747 -0.227249 0)
(0.0163586 -0.348312 0)
(0.010311 -0.477168 0)
(-0.0228853 -0.307638 0)
(-0.0316513 -0.0211106 0)
(-0.0366201 0.318126 0)
(-0.0567343 0.43055 0)
(-0.0289931 0.347126 0)
(0.00831206 0.243751 0)
(-0.066352 0.309032 0)
(-0.168141 0.39036 0)
(-0.25261 0.459665 0)
(-0.277655 0.521558 0)
(-0.271386 0.553597 0)
(-0.234587 0.580343 0)
(-0.169227 0.584968 0)
(-0.0932486 0.582786 0)
(0.00212315 0.558022 0)
(0.059281 0.500533 0)
(0.0732232 0.458784 0)
(0.0229174 0.427033 0)
(-0.00329617 0.353656 0)
(-0.000565776 0.282429 0)
(0.0398386 0.0725334 0)
(0.0377932 -0.0721478 0)
(0.0202002 -0.184777 0)
(0.0165973 -0.322024 0)
(0.00800611 -0.44283 0)
(-0.0174367 -0.245904 0)
(-0.0258638 0.00867827 0)
(0.00617321 0.379032 0)
(-0.00637915 0.540299 0)
(-0.024104 0.452421 0)
(-0.0801454 0.391811 0)
(-0.162325 0.459453 0)
(-0.22661 0.509201 0)
(-0.272541 0.507159 0)
(-0.284091 0.492434 0)
(-0.252017 0.471489 0)
(-0.171946 0.43348 0)
(-0.0836217 0.398196 0)
(-0.000485752 0.397342 0)
(0.0282496 0.449879 0)
(0.0139203 0.526504 0)
(-0.0408695 0.571947 0)
(-0.0783176 0.570583 0)
(-0.107091 0.430673 0)
(-0.041313 0.228229 0)
(-0.0134991 0.0662527 0)
(-0.0298681 -0.0429336 0)
(-0.0244537 -0.173355 0)
(-0.0134258 -0.321902 0)
(-0.000590312 -0.431514 0)
(-0.0118965 -0.216318 0)
(0.00161743 -0.0188508 0)
(0.0395306 0.348096 0)
(0.0893957 0.632352 0)
(0.0348756 0.686817 0)
(-0.0239967 0.619248 0)
(-0.0888491 0.570867 0)
(-0.151938 0.567005 0)
(-0.21647 0.527332 0)
(-0.248001 0.448592 0)
(-0.24506 0.343436 0)
(-0.196396 0.2952 0)
(-0.133045 0.288371 0)
(-0.091823 0.345367 0)
(-0.0851842 0.491694 0)
(-0.138991 0.602679 0)
(-0.147816 0.643496 0)
(-0.148967 0.595221 0)
(-0.113768 0.389823 0)
(-0.0681243 0.193653 0)
(-0.0868894 0.0955851 0)
(-0.0815658 -0.0380408 0)
(-0.0771293 -0.201063 0)
(-0.0453378 -0.366024 0)
(-0.026514 -0.481505 0)
(0.000745903 -0.223916 0)
(0.0261177 -0.0735478 0)
(0.0685013 0.228578 0)
(0.132238 0.598196 0)
(0.153027 0.762428 0)
(0.111159 0.775847 0)
(0.0669857 0.755777 0)
(0.00269132 0.719646 0)
(-0.0690372 0.61504 0)
(-0.142493 0.484429 0)
(-0.199033 0.342943 0)
(-0.236108 0.257695 0)
(-0.236641 0.232391 0)
(-0.20349 0.277001 0)
(-0.162218 0.474931 0)
(-0.141062 0.582217 0)
(-0.122275 0.610409 0)
(-0.103513 0.535724 0)
(-0.0557019 0.294812 0)
(-0.0506362 0.188667 0)
(-0.0605023 0.0949437 0)
(-0.0782384 -0.0649479 0)
(-0.0800888 -0.25519 0)
(-0.0597771 -0.427073 0)
(-0.0263432 -0.562531 0)
(0.0125112 -0.264903 0)
(0.0332486 -0.14914 0)
(0.0776751 0.118942 0)
(0.120264 0.441039 0)
(0.171207 0.730489 0)
(0.146423 0.831394 0)
(0.115897 0.843222 0)
(0.116725 0.819709 0)
(0.079019 0.739691 0)
(0.0189328 0.601987 0)
(-0.0656582 0.446966 0)
(-0.161194 0.305259 0)
(-0.201935 0.24285 0)
(-0.197869 0.250213 0)
(-0.131743 0.425811 0)
(-0.0618627 0.527386 0)
(-0.0306999 0.534921 0)
(0.0066017 0.431215 0)
(0.0292481 0.270372 0)
(0.00857833 0.195946 0)
(0.00616998 0.0908902 0)
(-0.0388533 -0.0853637 0)
(-0.0490578 -0.33168 0)
(-0.0452824 -0.512899 0)
(-0.0169865 -0.653104 0)
(0.0113193 -0.306515 0)
(0.0203321 -0.204518 0)
(0.0591578 0.0485936 0)
(0.0714964 0.331655 0)
(0.129534 0.642524 0)
(0.126015 0.851748 0)
(0.102858 0.848136 0)
(0.123936 0.819736 0)
(0.11973 0.754515 0)
(0.113345 0.653855 0)
(0.0742507 0.541159 0)
(0.0176836 0.418755 0)
(-0.0610339 0.306711 0)
(-0.102206 0.259833 0)
(-0.0598526 0.321423 0)
(0.0263297 0.44305 0)
(0.0744228 0.471823 0)
(0.0977068 0.387619 0)
(0.097898 0.257581 0)
(0.0911407 0.175043 0)
(0.073302 0.0962749 0)
(0.0421935 -0.0807925 0)
(0.00680086 -0.347481 0)
(-0.0174166 -0.542201 0)
(-0.0114079 -0.69372 0)
(0.0048515 -0.328635 0)
(0.00570168 -0.228238 0)
(0.0189164 0.0155101 0)
(0.0505319 0.276779 0)
(0.0772536 0.528424 0)
(0.105882 0.83477 0)
(0.0986244 0.832542 0)
(0.120838 0.802053 0)
(0.133249 0.734784 0)
(0.157006 0.639485 0)
(0.15418 0.557129 0)
(0.142761 0.461908 0)
(0.114567 0.370084 0)
(0.0725042 0.319235 0)
(0.0528587 0.325617 0)
(0.0821536 0.376977 0)
(0.12984 0.402055 0)
(0.138816 0.362864 0)
(0.142101 0.242606 0)
(0.129984 0.165181 0)
(0.114773 0.0894251 0)
(0.0984272 -0.0488857 0)
(0.063909 -0.288049 0)
(0.0278887 -0.496187 0)
(0.00138748 -0.673859 0)
(0.00951489 -0.32939 0)
(0.00130297 -0.215107 0)
(0.00267537 0.00256236 0)
(0.040488 0.249215 0)
(0.0760349 0.50319 0)
(0.100611 0.775548 0)
(0.109468 0.786166 0)
(0.117518 0.745689 0)
(0.133692 0.676828 0)
(0.154009 0.602248 0)
(0.177157 0.533263 0)
(0.193864 0.452369 0)
(0.194205 0.395383 0)
(0.175985 0.363435 0)
(0.144931 0.364177 0)
(0.129335 0.392109 0)
(0.132968 0.399695 0)
(0.133146 0.353429 0)
(0.139971 0.246964 0)
(0.11955 0.184339 0)
(0.106371 0.10861 0)
(0.0875429 -0.0117132 0)
(0.0671219 -0.227502 0)
(0.0461775 -0.400716 0)
(0.0131347 -0.581266 0)
(0.0291732 -0.334271 0)
(0.0308678 -0.191217 0)
(0.0477062 0.01855 0)
(0.0513992 0.220626 0)
(0.105672 0.490748 0)
(0.138124 0.772468 0)
(0.161876 0.775305 0)
(0.143892 0.73896 0)
(0.134315 0.656915 0)
(0.137559 0.552298 0)
(0.16285 0.483547 0)
(0.185396 0.435728 0)
(0.188447 0.409114 0)
(0.185407 0.410876 0)
(0.161244 0.429572 0)
(0.139799 0.436954 0)
(0.122176 0.417362 0)
(0.118933 0.342479 0)
(0.123085 0.25587 0)
(0.100204 0.206405 0)
(0.0827554 0.139411 0)
(0.0600338 0.0399253 0)
(0.0432726 -0.179889 0)
(0.0281807 -0.346577 0)
(0.00702099 -0.528809 0)
(0.0396814 -0.447774 0)
(0.0697209 -0.24214 0)
(0.0793856 0.00554722 0)
(0.077553 0.220829 0)
(0.0926158 0.444197 0)
(0.150749 0.72572 0)
(0.167278 0.798153 0)
(0.154305 0.773736 0)
(0.136412 0.681488 0)
(0.117488 0.552974 0)
(0.127843 0.452878 0)
(0.145903 0.411639 0)
(0.154953 0.410453 0)
(0.151496 0.43995 0)
(0.133825 0.471033 0)
(0.125092 0.469079 0)
(0.108462 0.432929 0)
(0.111167 0.34039 0)
(0.104488 0.279349 0)
(0.0868331 0.243254 0)
(0.0728553 0.193245 0)
(0.0547449 0.0882198 0)
(0.0467271 -0.13967 0)
(0.0266675 -0.30129 0)
(0.00634574 -0.493346 0)
(0.0182701 -0.576094 0)
(0.057976 -0.325368 0)
(0.0434191 -0.0686238 0)
(0.0562272 0.202691 0)
(0.0358961 0.385143 0)
(0.0997098 0.669031 0)
(0.114975 0.802297 0)
(0.114582 0.789338 0)
(0.10565 0.720819 0)
(0.0813744 0.567157 0)
(0.090485 0.438556 0)
(0.103049 0.402105 0)
(0.108084 0.411392 0)
(0.103803 0.461342 0)
(0.0986772 0.487546 0)
(0.0968024 0.479712 0)
(0.0913314 0.43295 0)
(0.0973427 0.338237 0)
(0.0888815 0.29751 0)
(0.0806321 0.259933 0)
(0.0641171 0.21212 0)
(0.0503424 0.0941754 0)
(0.0503103 -0.118781 0)
(0.0324805 -0.247577 0)
(0.00748756 -0.436555 0)
(0.00691395 -0.634271 0)
(0.0258722 -0.367545 0)
(-0.00525435 -0.129831 0)
(0.0104777 0.142106 0)
(-0.0183279 0.314284 0)
(0.0116013 0.578701 0)
(0.0163463 0.755528 0)
(0.0298017 0.776963 0)
(0.0314568 0.729609 0)
(0.0343162 0.583751 0)
(0.0493843 0.437618 0)
(0.0642738 0.398872 0)
(0.0643788 0.416346 0)
(0.0648852 0.468388 0)
(0.0691047 0.483943 0)
(0.0717167 0.473984 0)
(0.0761874 0.421648 0)
(0.0832509 0.332861 0)
(0.0747223 0.301446 0)
(0.0680767 0.287865 0)
(0.0485507 0.258573 0)
(0.0412346 0.113227 0)
(0.0499681 -0.0839515 0)
(0.0294693 -0.180642 0)
(0.00640258 -0.380142 0)
(-0.00436312 -0.636889 0)
(-0.0098227 -0.355703 0)
(-0.035024 -0.156211 0)
(-0.0367653 0.095178 0)
(-0.0658993 0.263307 0)
(-0.0804888 0.519522 0)
(-0.087628 0.701077 0)
(-0.0704195 0.743511 0)
(-0.0513865 0.716633 0)
(-0.0182689 0.562286 0)
(0.0315998 0.418347 0)
(0.0383956 0.388873 0)
(0.0362306 0.407515 0)
(0.0315659 0.449845 0)
(0.0381045 0.467785 0)
(0.0423045 0.460548 0)
(0.0580318 0.400408 0)
(0.0662351 0.332374 0)
(0.0559501 0.315625 0)
(0.0443774 0.312881 0)
(0.0205097 0.279585 0)
(0.0353144 0.121078 0)
(0.0469525 -0.0368892 0)
(0.0227379 -0.124251 0)
(0.00526212 -0.347342 0)
(-0.0184895 -0.576875 0)
(-0.0266175 -0.320535 0)
(-0.0634331 -0.117262 0)
(-0.0862506 0.116702 0)
(-0.118967 0.280161 0)
(-0.155416 0.522416 0)
(-0.16201 0.665153 0)
(-0.143534 0.69924 0)
(-0.108569 0.660112 0)
(-0.0359889 0.479558 0)
(0.0053593 0.380334 0)
(0.00510847 0.386773 0)
(-0.000518857 0.42437 0)
(-0.00240193 0.453177 0)
(0.0122996 0.457686 0)
(0.0360062 0.435928 0)
(0.0537108 0.376199 0)
(0.0449894 0.339256 0)
(0.0186767 0.343938 0)
(-0.0123673 0.372074 0)
(-0.00806661 0.309322 0)
(0.036521 0.111616 0)
(0.032661 0.00282564 0)
(0.0148327 -0.0833499 0)
(0.00422494 -0.318284 0)
(-0.00795113 -0.523157 0)
(-0.0426078 -0.253582 0)
(-0.0795482 -0.0355034 0)
(-0.116149 0.159189 0)
(-0.136947 0.307584 0)
(-0.159549 0.529331 0)
(-0.156209 0.636888 0)
(-0.147809 0.658295 0)
(-0.10727 0.56651 0)
(-0.0645241 0.41823 0)
(-0.0484686 0.383442 0)
(-0.0564484 0.392152 0)
(-0.0469425 0.407097 0)
(-0.0285464 0.409109 0)
(0.000367032 0.39619 0)
(0.00765264 0.380859 0)
(0.0115847 0.382775 0)
(-0.0189527 0.404128 0)
(-0.0483987 0.43842 0)
(-0.0642905 0.395198 0)
(-0.0109268 0.222164 0)
(0.0233301 0.0910471 0)
(0.0162283 0.0347059 0)
(0.0076829 -0.0573231 0)
(0.00198224 -0.303004 0)
(-0.0143245 -0.449198 0)
(-0.0543141 -0.163087 0)
(-0.088302 0.0437173 0)
(-0.121008 0.210415 0)
(-0.123116 0.332895 0)
(-0.125508 0.53513 0)
(-0.116509 0.630373 0)
(-0.117312 0.641077 0)
(-0.0970603 0.55684 0)
(-0.0934211 0.427195 0)
(-0.0937124 0.384451 0)
(-0.0979503 0.36827 0)
(-0.0855619 0.350257 0)
(-0.069673 0.351661 0)
(-0.0642275 0.367427 0)
(-0.0700278 0.40437 0)
(-0.0956841 0.432799 0)
(-0.114652 0.446261 0)
(-0.105399 0.418305 0)
(-0.053975 0.306 0)
(0.00215318 0.153272 0)
(0.00599117 0.094554 0)
(0.00396795 0.0481512 0)
(0.00160229 -0.0503557 0)
(-0.000489009 -0.300308 0)
(-0.0181784 -0.34713 0)
(-0.0475381 -0.0765802 0)
(-0.0717012 0.11868 0)
(-0.0961222 0.238966 0)
(-0.0981723 0.320762 0)
(-0.0727559 0.506853 0)
(-0.0386971 0.63166 0)
(-0.0521558 0.646366 0)
(-0.0547993 0.569691 0)
(-0.0905195 0.453692 0)
(-0.113211 0.407513 0)
(-0.122076 0.376938 0)
(-0.125037 0.358004 0)
(-0.129478 0.358467 0)
(-0.140908 0.386409 0)
(-0.148546 0.409047 0)
(-0.142799 0.417167 0)
(-0.123334 0.403323 0)
(-0.0752015 0.315164 0)
(-0.0151674 0.183313 0)
(0.0130973 0.130357 0)
(0.00755486 0.112422 0)
(0.00212151 0.0539126 0)
(0.00327452 -0.051073 0)
(0.000865786 -0.296175 0)
(-0.00573916 -0.284801 0)
(-0.0316383 -0.018757 0)
(-0.0310211 0.164977 0)
(-0.0545505 0.26695 0)
(-0.0669298 0.307262 0)
(-0.0460108 0.425038 0)
(0.0135491 0.606119 0)
(0.0309537 0.672086 0)
(0.0185407 0.638754 0)
(-0.028609 0.536107 0)
(-0.0790773 0.448777 0)
(-0.105566 0.392388 0)
(-0.126307 0.365211 0)
(-0.139088 0.367726 0)
(-0.142481 0.379074 0)
(-0.13855 0.380271 0)
(-0.116659 0.359126 0)
(-0.0797529 0.285145 0)
(-0.0190594 0.195615 0)
(0.00590243 0.149492 0)
(0.016599 0.138001 0)
(0.00198831 0.130226 0)
(-2.70675e-05 0.0573673 0)
(0.00146445 -0.0511567 0)
(0.00222124 -0.289839 0)
(-0.00386124 -0.247259 0)
(-0.0157472 0.019473 0)
(-0.00589684 0.199671 0)
(-0.0130107 0.335803 0)
(-0.0517414 0.327778 0)
(-0.0526609 0.360784 0)
(0.00357298 0.499061 0)
(0.0704742 0.633061 0)
(0.0927928 0.654537 0)
(0.0724331 0.615227 0)
(0.0251384 0.545868 0)
(-0.0291538 0.467268 0)
(-0.0667313 0.403779 0)
(-0.0866728 0.377667 0)
(-0.0863455 0.359559 0)
(-0.0703144 0.320661 0)
(-0.0407134 0.275356 0)
(-0.002368 0.202959 0)
(0.0219182 0.158718 0)
(0.0289867 0.148938 0)
(0.0207672 0.160975 0)
(0.00124342 0.157866 0)
(0.00383811 0.058606 0)
(-8.2241e-06 -0.0544591 0)
(0.00461208 -0.290303 0)
(-0.00541902 -0.234447 0)
(0.0033343 0.0306645 0)
(0.00259929 0.179803 0)
(0.032214 0.373673 0)
(-0.00513728 0.386017 0)
(-0.0210753 0.343992 0)
(0.00737159 0.381888 0)
(0.0665893 0.50656 0)
(0.0968293 0.623961 0)
(0.0765751 0.635738 0)
(0.053398 0.602648 0)
(0.026962 0.536542 0)
(0.000293163 0.469906 0)
(-0.0130653 0.40446 0)
(-0.00980803 0.347646 0)
(0.00648291 0.291355 0)
(0.0338115 0.223233 0)
(0.0582023 0.173934 0)
(0.056371 0.167122 0)
(0.0474502 0.178913 0)
(0.0170803 0.217203 0)
(0.00391628 0.179968 0)
(0.00703919 0.0600769 0)
(0.00129684 -0.05506 0)
(0.0044663 -0.281947 0)
(-0.00589169 -0.238785 0)
(0.0149765 0.0188396 0)
(0.0117599 0.150924 0)
(0.0402968 0.339549 0)
(0.0493018 0.393902 0)
(0.0414398 0.334707 0)
(0.0573961 0.348615 0)
(0.0352649 0.455629 0)
(0.0363606 0.602145 0)
(0.0162352 0.660572 0)
(0.00777762 0.632166 0)
(-0.00224663 0.583488 0)
(-0.00506953 0.497551 0)
(0.0104885 0.403735 0)
(0.0309934 0.32793 0)
(0.0625533 0.24759 0)
(0.0847548 0.19423 0)
(0.086964 0.185713 0)
(0.0720359 0.199392 0)
(0.0423657 0.248342 0)
(0.00715448 0.271977 0)
(0.00304879 0.180573 0)
(0.0059458 0.0587396 0)
(0.000944999 -0.0554551 0)
(0.00295202 -0.277113 0)
(-0.00748027 -0.241809 0)
(0.00968412 0.00529462 0)
(0.0126684 0.152958 0)
(0.00966989 0.282105 0)
(0.0369552 0.375926 0)
(0.0212424 0.331226 0)
(0.00801641 0.368919 0)
(-0.0516086 0.50214 0)
(-0.103003 0.60484 0)
(-0.102393 0.644896 0)
(-0.0966244 0.647733 0)
(-0.0718324 0.584686 0)
(-0.0360938 0.482781 0)
(-0.000323183 0.372797 0)
(0.0388297 0.273441 0)
(0.0653519 0.211777 0)
(0.077598 0.195685 0)
(0.0756988 0.210405 0)
(0.0522016 0.265748 0)
(0.018785 0.312858 0)
(0.00628078 0.288904 0)
(0.00657156 0.16436 0)
(0.00611045 0.052513 0)
(0.00408271 -0.0579805 0)
(0.00243348 -0.275878 0)
(-0.00857954 -0.232077 0)
(0.00935467 6.37685e-05 0)
(0.0217065 0.190928 0)
(-0.00437117 0.299695 0)
(0.00802794 0.398272 0)
(-0.016305 0.408891 0)
(-0.0720286 0.467095 0)
(-0.132557 0.592085 0)
(-0.162865 0.633024 0)
(-0.169547 0.632785 0)
(-0.15761 0.58278 0)
(-0.121522 0.503665 0)
(-0.0838952 0.409677 0)
(-0.0477102 0.307119 0)
(-0.0157953 0.235734 0)
(0.00518059 0.199977 0)
(0.0145341 0.188885 0)
(0.0169122 0.225544 0)
(0.0126784 0.282431 0)
(0.0176557 0.311774 0)
(0.0202794 0.27195 0)
(0.0249233 0.154712 0)
(0.0142046 0.0511394 0)
(0.0109807 -0.0584385 0)
(0.00504615 -0.266902 0)
(0.0110919 -0.236917 0)
(0.0271049 -0.0360532 0)
(0.0387597 0.233396 0)
(-0.000706658 0.354453 0)
(-0.0174904 0.445408 0)
(-0.0391021 0.505857 0)
(-0.0874126 0.59157 0)
(-0.135286 0.647942 0)
(-0.15683 0.663245 0)
(-0.166417 0.643145 0)
(-0.1603 0.571314 0)
(-0.151739 0.47704 0)
(-0.135632 0.382551 0)
(-0.122255 0.285445 0)
(-0.112975 0.211893 0)
(-0.0925574 0.171599 0)
(-0.0727416 0.15364 0)
(-0.0445227 0.174183 0)
(3.84349e-05 0.24144 0)
(0.0302975 0.278648 0)
(0.0463772 0.247614 0)
(0.0469493 0.163559 0)
(0.0283485 0.0653507 0)
(0.0188949 -0.0462359 0)
(0.00809238 -0.243535 0)
(0.0299627 -0.3028 0)
(0.0388392 -0.0484778 0)
(0.0248054 0.278623 0)
(0.000834979 0.459635 0)
(-0.0271072 0.542725 0)
(-0.0456829 0.604936 0)
(-0.0701023 0.692623 0)
(-0.0789728 0.725902 0)
(-0.11561 0.689651 0)
(-0.134084 0.635992 0)
(-0.145164 0.568494 0)
(-0.146412 0.474593 0)
(-0.142463 0.377888 0)
(-0.149596 0.276115 0)
(-0.146111 0.182834 0)
(-0.135409 0.12046 0)
(-0.10976 0.0865089 0)
(-0.0770224 0.0827105 0)
(-0.0224882 0.133648 0)
(0.026003 0.21843 0)
(0.0493673 0.226745 0)
(0.0513501 0.182991 0)
(0.0372052 0.0910891 0)
(0.0213082 -0.0214134 0)
(0.00901214 -0.211139 0)
(0.0232647 -0.389068 0)
(0.0358841 -0.0834979 0)
(-0.000999621 0.306948 0)
(-0.0307523 0.473639 0)
(-0.0434688 0.592575 0)
(-0.0418264 0.648439 0)
(-0.0393275 0.708134 0)
(-0.0211003 0.756848 0)
(-0.0305013 0.75637 0)
(-0.0623027 0.668554 0)
(-0.0918722 0.579577 0)
(-0.107806 0.45937 0)
(-0.123999 0.37473 0)
(-0.125656 0.26367 0)
(-0.12436 0.153087 0)
(-0.117411 0.0835236 0)
(-0.103221 0.0338518 0)
(-0.0751773 0.0185843 0)
(-0.0419719 0.0520892 0)
(0.00458333 0.145288 0)
(0.0368287 0.197131 0)
(0.0418197 0.18282 0)
(0.0385946 0.116094 0)
(0.0202547 0.00793689 0)
(0.00788788 -0.176447 0)
(0.0184757 -0.441004 0)
(0.00753054 -0.0997186 0)
(-0.0222957 0.345534 0)
(-0.0529234 0.528749 0)
(-0.0628076 0.577716 0)
(-0.0533339 0.637617 0)
(-0.0442395 0.693686 0)
(-0.0225155 0.746398 0)
(-0.0107443 0.77759 0)
(-0.0230641 0.732312 0)
(-0.0475299 0.615528 0)
(-0.0690052 0.489192 0)
(-0.0751765 0.363965 0)
(-0.0661647 0.230277 0)
(-0.0652387 0.13084 0)
(-0.0669312 0.0580321 0)
(-0.0720556 -0.000836534 0)
(-0.0619362 -0.0246193 0)
(-0.0432001 -0.00331998 0)
(-0.0100148 0.0761884 0)