/*--------------------------------*- C++ -*----------------------------------*\
| =========                 |                                                 |
| \\      /  F ield         | OpenFOAM: The Open Source CFD Toolbox           |
|  \\    /   O peration     | Version:  2312                                  |
|   \\  /    A nd           | Website:  www.openfoam.com                      |
|    \\/     M anipulation  |                                                 |
\*---------------------------------------------------------------------------*/
FoamFile
{
    version     2.0;
    format      ascii;
    arch        "LSB;label=32;scalar=64";
    class       volVectorField;
    location    "14";
    object      U.airMean;
}
// * * * * * * * * * * * * * * * * * * * * * * * * * * * * * * * * * * * * * //

dimensions      [0 1 -1 0 0 0 0];

internalField   nonuniform List<vector> 
1875
(
(0.100685 0.0687304 0)
(0.234864 0.0771807 0)
(0.367173 0.0946112 0)
(0.412444 0.112702 0)
(0.431675 0.130479 0)
(0.419659 0.149497 0)
(0.388228 0.16918 0)
(0.347409 0.184761 0)
(0.296491 0.195363 0)
(0.240202 0.195741 0)
(0.189587 0.198608 0)
(0.138398 0.202256 0)
(0.0902356 0.205178 0)
(0.0463419 0.205116 0)
(-0.0108954 0.211436 0)
(-0.072765 0.208702 0)
(-0.137671 0.206851 0)
(-0.196299 0.201264 0)
(-0.245683 0.190286 0)
(-0.289075 0.177954 0)
(-0.320098 0.156596 0)
(-0.327427 0.135981 0)
(-0.3106 0.116645 0)
(-0.204315 0.0942542 0)
(-0.0875743 0.0858556 0)
(0.0805774 -0.01065 0)
(0.17257 0.0631855 0)
(0.249199 0.156377 0)
(0.273704 0.237194 0)
(0.282352 0.30032 0)
(0.269243 0.350911 0)
(0.245254 0.389731 0)
(0.21329 0.42171 0)
(0.183634 0.462001 0)
(0.148777 0.491404 0)
(0.113046 0.507264 0)
(0.0853403 0.513264 0)
(0.0631461 0.507938 0)
(0.0412992 0.520859 0)
(0.0113973 0.522494 0)
(-0.0270148 0.517418 0)
(-0.0739327 0.503435 0)
(-0.11157 0.472754 0)
(-0.146894 0.448538 0)
(-0.175106 0.417874 0)
(-0.197673 0.373742 0)
(-0.21225 0.307681 0)
(-0.215129 0.207883 0)
(-0.156509 0.0966439 0)
(-0.072649 0.0259809 0)
(0.0416113 -0.230936 0)
(0.0764162 -0.111296 0)
(0.0923244 0.0101356 0)
(0.0978511 0.0999196 0)
(0.0992628 0.16612 0)
(0.0922142 0.226128 0)
(0.0810092 0.274579 0)
(0.0645982 0.318222 0)
(0.0506859 0.371431 0)
(0.0467823 0.420034 0)
(0.0401801 0.438617 0)
(0.0401195 0.43659 0)
(0.0314139 0.436134 0)
(0.0227663 0.449106 0)
(0.014336 0.462612 0)
(-0.000947076 0.461011 0)
(-0.017409 0.432852 0)
(-0.0326745 0.385712 0)
(-0.0493367 0.354754 0)
(-0.0548455 0.315842 0)
(-0.0603518 0.267077 0)
(-0.0644071 0.206235 0)
(-0.071274 0.096491 0)
(-0.0650783 -0.0547156 0)
(-0.0376414 -0.172782 0)
(0.0194674 -0.26602 0)
(0.0377437 -0.100894 0)
(0.0399448 0.0338542 0)
(0.0362609 0.133497 0)
(0.0293889 0.214602 0)
(0.0198146 0.287269 0)
(0.0106032 0.343622 0)
(0.00417115 0.389371 0)
(-0.000186145 0.426662 0)
(0.00580153 0.45827 0)
(0.0147534 0.477312 0)
(0.0223674 0.490549 0)
(0.018363 0.503816 0)
(0.010699 0.507687 0)
(0.00617001 0.511043 0)
(0.000156184 0.509235 0)
(-0.00360487 0.486057 0)
(-0.00976247 0.452366 0)
(-0.0167965 0.410881 0)
(-0.0186116 0.366203 0)
(-0.0223164 0.31102 0)
(-0.0255055 0.2503 0)
(-0.0285204 0.138293 0)
(-0.0296022 -0.0223147 0)
(-0.0164136 -0.1866 0)
(0.00246172 -0.290995 0)
(0.00908063 -0.129692 0)
(0.00695762 0.00111508 0)
(-0.00775876 0.0996158 0)
(-0.0215275 0.173944 0)
(-0.0300091 0.23546 0)
(-0.0316537 0.285347 0)
(-0.0283279 0.326901 0)
(-0.0223631 0.363624 0)
(-0.0177302 0.392439 0)
(-0.0137418 0.405433 0)
(-0.0124999 0.422719 0)
(-0.0114479 0.447926 0)
(-0.0138198 0.45494 0)
(-0.0156865 0.46158 0)
(-0.0167901 0.45894 0)
(-0.0147758 0.436629 0)
(-0.0107049 0.40144 0)
(-0.00489337 0.362937 0)
(-0.000981289 0.322482 0)
(-0.00374989 0.285458 0)
(-0.0111777 0.22098 0)
(-0.0158326 0.111448 0)
(-0.0116265 -0.0458981 0)
(-0.00370639 -0.20418 0)
(0.00145886 -0.267367 0)
(0.00112412 -0.0876574 0)
(0.00136554 0.0682582 0)
(-0.01755 0.168913 0)
(-0.0383223 0.231514 0)
(-0.0549839 0.271782 0)
(-0.0628492 0.307851 0)
(-0.0662449 0.338595 0)
(-0.0635603 0.372871 0)
(-0.0632319 0.407653 0)
(-0.0618931 0.432498 0)
(-0.0627288 0.44715 0)
(-0.0542172 0.462954 0)
(-0.0462379 0.475625 0)
(-0.0399401 0.480941 0)
(-0.0300946 0.472224 0)
(-0.0215215 0.443676 0)
(-0.00869343 0.407407 0)
(0.00111908 0.37243 0)
(0.00325189 0.346862 0)
(-0.00188502 0.318557 0)
(-0.0144312 0.278248 0)
(-0.0200957 0.155721 0)
(-0.0143757 -0.0190779 0)
(-0.00699027 -0.195788 0)
(-1.33677e-06 -0.249195 0)
(-0.00652436 -0.0770878 0)
(-0.00754033 0.0788383 0)
(-0.0171189 0.195243 0)
(-0.0402702 0.252173 0)
(-0.0658698 0.279195 0)
(-0.0845011 0.300248 0)
(-0.0967047 0.320345 0)
(-0.102722 0.353026 0)
(-0.105413 0.382982 0)
(-0.101059 0.395946 0)
(-0.0900011 0.402411 0)
(-0.0733492 0.409447 0)
(-0.05623 0.425845 0)
(-0.0378754 0.42974 0)
(-0.0202547 0.425795 0)
(-0.00515002 0.398711 0)
(0.00699498 0.361963 0)
(0.0150886 0.340121 0)
(0.0132882 0.330725 0)
(0.00053737 0.32896 0)
(-0.0120668 0.276439 0)
(-0.0141502 0.14064 0)
(-0.0115716 -0.0299636 0)
(-0.00356899 -0.20323 0)
(0.0021485 -0.21923 0)
(-0.00312825 -0.0319109 0)
(-0.0062978 0.134699 0)
(-0.0109542 0.256655 0)
(-0.0310554 0.330338 0)
(-0.060365 0.348341 0)
(-0.0852372 0.350369 0)
(-0.100846 0.358129 0)
(-0.108841 0.37434 0)
(-0.108179 0.388722 0)
(-0.100298 0.386407 0)
(-0.0831141 0.38623 0)
(-0.0637626 0.396265 0)
(-0.0415869 0.405051 0)
(-0.0199786 0.409656 0)
(-0.000624164 0.405825 0)
(0.0150082 0.386972 0)
(0.0242015 0.36079 0)
(0.0258718 0.350317 0)
(0.0209929 0.362347 0)
(0.00204687 0.365544 0)
(-0.0122536 0.313563 0)
(-0.0122372 0.168335 0)
(-0.0110832 -0.0122243 0)
(-0.00319066 -0.197522 0)
(0.00212342 -0.209557 0)
(0.00264794 -0.0240892 0)
(-0.00184024 0.144942 0)
(-0.00131535 0.28466 0)
(-0.0189067 0.372468 0)
(-0.0437034 0.391005 0)
(-0.0688682 0.377371 0)
(-0.085211 0.365214 0)
(-0.0923423 0.364286 0)
(-0.0885689 0.360295 0)
(-0.073448 0.346282 0)
(-0.0547641 0.345058 0)
(-0.0344098 0.352546 0)
(-0.0121974 0.36116 0)
(0.00633659 0.365761 0)
(0.0219666 0.368033 0)
(0.0314376 0.35723 0)
(0.0358898 0.345515 0)
(0.0308247 0.348136 0)
(0.0177715 0.373164 0)
(-0.00450578 0.394167 0)
(-0.017465 0.318899 0)
(-0.0201006 0.15949 0)
(-0.00921785 -0.0227257 0)
(-0.00539054 -0.203974 0)
(0.00419576 -0.20084 0)
(0.00783267 -0.00609169 0)
(0.00650862 0.174067 0)
(0.00316052 0.322038 0)
(-0.00665695 0.432225 0)
(-0.0271742 0.452802 0)
(-0.0486937 0.429044 0)
(-0.0636363 0.402438 0)
(-0.0691626 0.380549 0)
(-0.0637647 0.354617 0)
(-0.0489543 0.328138 0)
(-0.0313154 0.319803 0)
(-0.0120448 0.32127 0)
(0.00834287 0.331865 0)
(0.0241552 0.346597 0)
(0.0356355 0.359599 0)
(0.0403128 0.36106 0)
(0.0404533 0.361202 0)
(0.0320575 0.381873 0)
(0.0122682 0.418544 0)
(-0.00820926 0.435775 0)
(-0.0202883 0.346409 0)
(-0.0181896 0.161343 0)
(-0.0153905 -0.0214759 0)
(-0.00691317 -0.207436 0)
(0.00333397 -0.206469 0)
(0.0117399 -0.00881499 0)
(0.011 0.17493 0)
(0.00979418 0.332468 0)
(0.00472453 0.453621 0)
(-0.00482229 0.490211 0)
(-0.024195 0.459146 0)
(-0.0365083 0.415288 0)
(-0.0422768 0.377252 0)
(-0.0406049 0.334318 0)
(-0.0321129 0.29933 0)
(-0.0214995 0.285035 0)
(-0.00810323 0.281092 0)
(0.00561261 0.287712 0)
(0.0194393 0.306042 0)
(0.0303573 0.332173 0)
(0.0341505 0.350343 0)
(0.0310062 0.366233 0)
(0.0213616 0.40214 0)
(0.0018338 0.451807 0)
(-0.0134424 0.460993 0)
(-0.0136304 0.343224 0)
(-0.0136254 0.155007 0)
(-0.0156649 -0.0287488 0)
(-0.007705 -0.224609 0)
(0.00456896 -0.21344 0)
(0.0135671 -0.00890915 0)
(0.015965 0.182558 0)
(0.0178449 0.345934 0)
(0.0166449 0.472407 0)
(0.0163243 0.525936 0)
(0.00786226 0.502905 0)
(-0.00134488 0.451436 0)
(-0.010334 0.398693 0)
(-0.0152452 0.342038 0)
(-0.016836 0.297838 0)
(-0.0159012 0.272472 0)
(-0.0073969 0.260393 0)
(0.0033586 0.264961 0)
(0.0143602 0.282938 0)
(0.0231196 0.316237 0)
(0.0250504 0.352485 0)
(0.0176188 0.382517 0)
(0.00422441 0.437793 0)
(-0.0114451 0.489362 0)
(-0.0173121 0.470697 0)
(-0.00985909 0.340504 0)
(-0.0106748 0.163849 0)
(-0.0116547 -0.0279619 0)
(-0.0063353 -0.235499 0)
(0.00572324 -0.227693 0)
(0.0138368 -0.0194153 0)
(0.0183555 0.173637 0)
(0.0236712 0.339955 0)
(0.0324248 0.466781 0)
(0.0367217 0.525321 0)
(0.0372582 0.512523 0)
(0.0318591 0.465154 0)
(0.0224758 0.413214 0)
(0.012297 0.345986 0)
(0.00157692 0.294968 0)
(-0.00527287 0.254812 0)
(-0.00663424 0.230342 0)
(-0.00348804 0.233101 0)
(0.00324804 0.254181 0)
(0.00637949 0.292868 0)
(0.00739726 0.349974 0)
(7.58396e-05 0.399907 0)
(-0.0110548 0.460708 0)
(-0.0165599 0.496751 0)
(-0.0172614 0.460182 0)
(-0.00739974 0.321608 0)
(-0.00806584 0.158176 0)
(-0.00758279 -0.0322188 0)
(-0.00479318 -0.247585 0)
(0.00795848 -0.244532 0)
(0.0143944 -0.0316094 0)
(0.0217897 0.163702 0)
(0.0261169 0.321528 0)
(0.0413205 0.451697 0)
(0.0503955 0.524062 0)
(0.0533874 0.521826 0)
(0.0477911 0.483812 0)
(0.0387547 0.4324 0)
(0.0314355 0.369608 0)
(0.0151494 0.313616 0)
(0.00381031 0.266987 0)
(-0.00903175 0.235717 0)
(-0.014159 0.225562 0)
(-0.0160127 0.245728 0)
(-0.0148406 0.291264 0)
(-0.0150091 0.349728 0)
(-0.0143384 0.409488 0)
(-0.0167181 0.472705 0)
(-0.0150503 0.502681 0)
(-0.00936818 0.45383 0)
(-0.0023113 0.317253 0)
(-0.00707265 0.16226 0)
(-0.00684044 -0.0347593 0)
(-0.00395247 -0.254233 0)
(0.00735325 -0.265339 0)
(0.0132761 -0.0497287 0)
(0.0184739 0.141489 0)
(0.0204323 0.297549 0)
(0.0285592 0.418687 0)
(0.0443744 0.503368 0)
(0.0510652 0.519524 0)
(0.0533546 0.492862 0)
(0.0512729 0.438411 0)
(0.0459812 0.377894 0)
(0.0328854 0.322613 0)
(0.0194967 0.274279 0)
(0.00238844 0.242793 0)
(-0.0121737 0.231763 0)
(-0.0219964 0.242735 0)
(-0.0243911 0.285032 0)
(-0.0246092 0.347518 0)
(-0.0213054 0.408754 0)
(-0.01881 0.472795 0)
(-0.0115186 0.49142 0)
(-0.00346701 0.434285 0)
(0.00351685 0.30871 0)
(-0.00425948 0.161399 0)
(-0.00304284 -0.0362988 0)
(-0.003482 -0.259349 0)
(0.00580444 -0.277727 0)
(0.00983646 -0.0572621 0)
(0.00814572 0.132547 0)
(0.00716108 0.284509 0)
(0.00868246 0.392082 0)
(0.0231777 0.474209 0)
(0.0376219 0.503742 0)
(0.0498951 0.482716 0)
(0.0609606 0.436662 0)
(0.0625338 0.386553 0)
(0.0527588 0.338453 0)
(0.0367833 0.298463 0)
(0.0175219 0.268209 0)
(-0.00086896 0.256725 0)
(-0.0153801 0.26356 0)
(-0.0247483 0.297507 0)
(-0.0282488 0.351862 0)
(-0.0259269 0.414758 0)
(-0.0199298 0.468141 0)
(-0.0100282 0.477475 0)
(-0.000480046 0.417585 0)
(0.0051363 0.309686 0)
(-0.00234619 0.169693 0)
(-0.000590678 -0.030556 0)
(-0.00258585 -0.25772 0)
(0.00392781 -0.282811 0)
(0.00560396 -0.0553811 0)
(0.000555138 0.133567 0)
(-0.0062174 0.273654 0)
(-0.00793198 0.372233 0)
(-0.00154337 0.435885 0)
(0.0182579 0.46668 0)
(0.0382607 0.44872 0)
(0.0580913 0.412738 0)
(0.0655488 0.383576 0)
(0.0598884 0.354772 0)
(0.0476193 0.321399 0)
(0.0333961 0.293632 0)
(0.0150503 0.28656 0)
(-0.00438789 0.293525 0)
(-0.0199098 0.317438 0)
(-0.0303994 0.356009 0)
(-0.0285268 0.406219 0)
(-0.0203536 0.452544 0)
(-0.0117615 0.455995 0)
(-0.00266666 0.398999 0)
(-0.000198957 0.311226 0)
(-0.0023846 0.174197 0)
(0.000697528 -0.0242997 0)
(-0.00234582 -0.255852 0)
(0.00290191 -0.280563 0)
(0.00186878 -0.0466816 0)
(-0.0030005 0.147062 0)
(-0.0128036 0.280114 0)
(-0.0156283 0.36644 0)
(-0.0146314 0.410223 0)
(0.000574231 0.425196 0)
(0.0185912 0.408355 0)
(0.0368035 0.386819 0)
(0.0439819 0.379263 0)
(0.0453385 0.364073 0)
(0.0401852 0.343178 0)
(0.0301925 0.325913 0)
(0.0149086 0.325156 0)
(-0.00296798 0.334929 0)
(-0.0197194 0.355642 0)
(-0.0289552 0.37376 0)
(-0.0282574 0.400186 0)
(-0.0210156 0.439253 0)
(-0.0146351 0.441728 0)
(-0.00942533 0.394661 0)
(-0.00794728 0.311668 0)
(-0.00424573 0.174894 0)
(-0.000544725 -0.0211222 0)
(-0.00245252 -0.254452 0)
(0.00189985 -0.274662 0)
(-0.00144716 -0.034709 0)
(-0.00452091 0.162088 0)
(-0.0112796 0.286481 0)
(-0.0103746 0.365838 0)
(-0.0101009 0.397019 0)
(-0.00293715 0.402231 0)
(0.00636835 0.38216 0)
(0.013872 0.368226 0)
(0.0182507 0.368904 0)
(0.0204894 0.3612 0)
(0.0186814 0.348921 0)
(0.0127133 0.343163 0)
(0.00380174 0.352464 0)
(-0.00647762 0.367543 0)
(-0.0151217 0.37902 0)
(-0.0180079 0.38347 0)
(-0.0181601 0.395274 0)
(-0.0168738 0.426635 0)
(-0.0136257 0.432431 0)
(-0.0126666 0.387197 0)
(-0.010092 0.30379 0)
(-0.00434782 0.167903 0)
(-0.00212423 -0.0215244 0)
(-0.00287428 -0.256118 0)
(0.00158306 -0.267196 0)
(-0.00116068 -0.0254496 0)
(-0.000255762 0.172009 0)
(-0.00284888 0.290423 0)
(0.00172826 0.362475 0)
(0.00299084 0.394643 0)
(0.00437009 0.395658 0)
(0.00280295 0.375585 0)
(0.000603842 0.362081 0)
(-0.00242618 0.364889 0)
(-0.00351268 0.360504 0)
(-0.00639027 0.356826 0)
(-0.00788279 0.356548 0)
(-0.0098476 0.365425 0)
(-0.00776457 0.375719 0)
(-0.00416597 0.385102 0)
(-0.00275104 0.390193 0)
(-0.00427556 0.405571 0)
(-0.00873514 0.430099 0)
(-0.00829221 0.430176 0)
(-0.0107383 0.385197 0)
(-0.00758792 0.298062 0)
(-0.00306637 0.164141 0)
(-0.00240962 -0.0176801 0)
(-0.00330395 -0.256603 0)
(0.00247943 -0.262149 0)
(0.000429418 -0.0218144 0)
(0.00471689 0.1718 0)
(0.00489254 0.287842 0)
(0.0105926 0.358121 0)
(0.0135496 0.396123 0)
(0.0150999 0.403262 0)
(0.010927 0.387595 0)
(0.00190968 0.37331 0)
(-0.00782187 0.368353 0)
(-0.0147288 0.358944 0)
(-0.0179895 0.349805 0)
(-0.0174935 0.346752 0)
(-0.0139018 0.353349 0)
(-0.0087393 0.362177 0)
(-0.00245766 0.373227 0)
(-0.00169771 0.388138 0)
(-0.00369073 0.409119 0)
(-0.00743887 0.432016 0)
(-0.00624925 0.431507 0)
(-0.00806922 0.383565 0)
(-0.00497549 0.291372 0)
(-0.00186167 0.161401 0)
(-0.0023873 -0.0155058 0)
(-0.00295391 -0.258486 0)
(0.00295779 -0.257807 0)
(0.00158839 -0.0208407 0)
(0.00671318 0.169955 0)
(0.00763092 0.287177 0)
(0.0115995 0.353274 0)
(0.0158473 0.38939 0)
(0.0196254 0.402254 0)
(0.0171046 0.396425 0)
(0.0106735 0.387315 0)
(0.00157656 0.380258 0)
(-0.00651721 0.366542 0)
(-0.0126604 0.350914 0)
(-0.0138611 0.343432 0)
(-0.0125861 0.347752 0)
(-0.00874084 0.355846 0)
(-0.00573626 0.368175 0)
(-0.00380792 0.388558 0)
(-0.00671954 0.413994 0)
(-0.00904136 0.43064 0)
(-0.00592928 0.424807 0)
(-0.00190667 0.377141 0)
(3.09683e-05 0.288103 0)
(0.000959962 0.161553 0)
(-0.000970965 -0.0105001 0)
(-0.00192817 -0.259254 0)
(0.00397016 -0.25735 0)
(0.00302938 -0.0200443 0)
(0.00588333 0.162235 0)
(0.00666038 0.284342 0)
(0.00819718 0.348176 0)
(0.0126537 0.385476 0)
(0.0156911 0.40187 0)
(0.0148977 0.402718 0)
(0.00874727 0.396415 0)
(0.00128508 0.388525 0)
(-0.00663496 0.373327 0)
(-0.0140145 0.353847 0)
(-0.0161774 0.341734 0)
(-0.0158861 0.34008 0)
(-0.0120082 0.348228 0)
(-0.00871757 0.361803 0)
(-0.00549294 0.389418 0)
(-0.00751149 0.416591 0)
(-0.00621462 0.428119 0)
(-0.0027431 0.414982 0)
(0.00302929 0.369998 0)
(0.00453374 0.28777 0)
(0.00470017 0.165207 0)
(0.000706237 -0.00316835 0)
(-0.000497049 -0.256891 0)
(0.00327066 -0.255461 0)
(0.00312306 -0.0132787 0)
(0.00217289 0.160275 0)
(0.0033533 0.282123 0)
(0.00247594 0.345005 0)
(0.0060915 0.380482 0)
(0.0078794 0.401481 0)
(0.00742155 0.40804 0)
(0.00348683 0.406701 0)
(-0.0034934 0.401159 0)
(-0.013533 0.387952 0)
(-0.0213438 0.363628 0)
(-0.0237075 0.343951 0)
(-0.0229401 0.340084 0)
(-0.0189542 0.345234 0)
(-0.0127091 0.358201 0)
(-0.00457647 0.383203 0)
(-0.000404905 0.414751 0)
(3.12746e-05 0.427942 0)
(0.000178458 0.412795 0)
(0.00322631 0.367337 0)
(0.0068756 0.28901 0)
(0.00435718 0.173218 0)
(-2.23385e-06 0.0051757 0)
(-0.000470427 -0.252754 0)
(0.00308642 -0.254224 0)
(0.00104539 -0.00419482 0)
(0.00199177 0.161085 0)
(0.0013861 0.277647 0)
(0.00124492 0.339504 0)
(0.00172454 0.375263 0)
(-0.000177249 0.399699 0)
(0.000301738 0.409626 0)
(-0.00217151 0.411627 0)
(-0.00746643 0.410037 0)
(-0.0157835 0.396192 0)
(-0.021397 0.367202 0)
(-0.0243145 0.34342 0)
(-0.0246785 0.334512 0)
(-0.0207807 0.335145 0)
(-0.0126711 0.344264 0)
(-0.00371445 0.372862 0)
(0.00193729 0.41221 0)
(0.00379626 0.429516 0)
(0.00268063 0.415062 0)
(0.00203047 0.366915 0)
(0.00530001 0.290573 0)
(0.00161813 0.182903 0)
(-0.0011492 0.0109014 0)
(-0.00088847 -0.250797 0)
(0.00252695 -0.252083 0)
(-0.000361934 0.0035912 0)
(-4.51037e-05 0.16497 0)
(0.000861019 0.281046 0)
(6.71389e-05 0.339685 0)
(-0.00436136 0.378046 0)
(-0.0078292 0.399807 0)
(-0.0081368 0.408845 0)
(-0.00867206 0.412657 0)
(-0.0110441 0.411568 0)
(-0.0134508 0.397549 0)
(-0.0156837 0.371397 0)
(-0.0190061 0.347766 0)
(-0.0215019 0.335764 0)
(-0.0193256 0.327256 0)
(-0.0123444 0.333249 0)
(-0.00506163 0.362159 0)
(0.00197874 0.405738 0)
(0.00358988 0.429617 0)
(0.0018873 0.420799 0)
(0.000822814 0.369781 0)
(0.00288949 0.294637 0)
(-0.00113301 0.192007 0)
(-0.00196933 0.0146688 0)
(-0.00168715 -0.249856 0)
(0.00120365 -0.248977 0)
(-0.000641014 0.0129196 0)
(-0.00367454 0.169912 0)
(-0.00120523 0.28124 0)
(-0.000466391 0.347508 0)
(-0.00479185 0.386699 0)
(-0.00965158 0.401759 0)
(-0.0119521 0.405783 0)
(-0.0110115 0.408169 0)
(-0.00968652 0.405464 0)
(-0.00753068 0.39212 0)
(-0.00681516 0.368811 0)
(-0.00769194 0.347115 0)
(-0.00998224 0.331475 0)
(-0.00913308 0.318727 0)
(-0.00689061 0.32313 0)
(-0.00405995 0.351624 0)
(-0.00371329 0.39986 0)
(-0.00319985 0.431645 0)
(-0.00365578 0.423173 0)
(-0.00157142 0.370912 0)
(-0.00114108 0.300262 0)
(-0.00267488 0.196985 0)
(-0.00225871 0.0160135 0)
(-0.00271386 -0.252068 0)
(0.0004942 -0.245619 0)
(-0.000308091 0.023762 0)
(-0.00504568 0.178128 0)
(-0.00448202 0.280552 0)
(-0.0011719 0.347377 0)
(-0.00147337 0.393907 0)
(-0.00281232 0.410637 0)
(-0.00526863 0.408471 0)
(-0.00549621 0.402641 0)
(-0.00360212 0.395933 0)
(-0.00105119 0.383092 0)
(0.000653615 0.363197 0)
(0.000163587 0.344966 0)
(-0.00122695 0.333543 0)
(-0.00561701 0.323187 0)
(-0.00987549 0.324438 0)
(-0.0135366 0.355687 0)
(-0.0183992 0.404144 0)
(-0.0166885 0.428949 0)
(-0.012263 0.417552 0)
(-0.00645979 0.36856 0)
(-0.00548024 0.29984 0)
(-0.0029184 0.195655 0)
(-0.00156295 0.0161646 0)
(-0.00313456 -0.255127 0)
(0.000503203 -0.242518 0)
(-0.000247798 0.0313622 0)
(-0.00419566 0.188845 0)
(-0.00729617 0.280096 0)
(-0.000751053 0.345274 0)
(0.00253882 0.388886 0)
(0.00563454 0.408403 0)
(0.0047462 0.407994 0)
(0.00418001 0.401797 0)
(0.00125017 0.393631 0)
(-6.8591e-06 0.379773 0)
(-0.0012746 0.362347 0)
(-0.00482818 0.347763 0)
(-0.00905134 0.341707 0)
(-0.0156946 0.338315 0)
(-0.023284 0.340891 0)
(-0.031244 0.366331 0)
(-0.0336323 0.40229 0)
(-0.0292393 0.416918 0)
(-0.019577 0.400568 0)
(-0.00833991 0.357711 0)
(-0.00508211 0.2936 0)
(-0.000554976 0.187783 0)
(8.71906e-05 0.0166745 0)
(-0.00222041 -0.256209 0)
(0.00117208 -0.239569 0)
(-0.000676248 0.0374498 0)
(-0.0032413 0.198892 0)
(-0.00688991 0.280537 0)
(0.00155435 0.334618 0)
(0.00686962 0.382501 0)
(0.0116963 0.405664 0)
(0.0111389 0.409995 0)
(0.00860545 0.408317 0)
(0.00482822 0.402363 0)
(0.00160256 0.387998 0)
(-0.00405141 0.371157 0)
(-0.0105226 0.359375 0)
(-0.0196618 0.354525 0)
(-0.0277575 0.351072 0)
(-0.0343493 0.354804 0)
(-0.0401346 0.374999 0)
(-0.0415416 0.397115 0)
(-0.0332254 0.399013 0)
(-0.0210771 0.375508 0)
(-0.00909813 0.339524 0)
(-0.00312312 0.283845 0)
(0.00168053 0.182723 0)
(0.000210577 0.0206864 0)
(-0.00134132 -0.254818 0)
(0.00222083 -0.236964 0)
(-0.00166848 0.0418514 0)
(-0.00228326 0.204232 0)
(-0.00396786 0.275404 0)
(0.00257909 0.32648 0)
(0.00471538 0.373476 0)
(0.0117416 0.40168 0)
(0.0106678 0.41472 0)
(0.00890369 0.415501 0)
(0.00670283 0.411544 0)
(0.00437363 0.399866 0)
(-0.00135932 0.383415 0)
(-0.00889641 0.3704 0)
(-0.018335 0.36856 0)
(-0.029243 0.366518 0)
(-0.0373981 0.366139 0)
(-0.0419758 0.379146 0)
(-0.0405229 0.388657 0)
(-0.0314165 0.378479 0)
(-0.0209877 0.354844 0)
(-0.010283 0.322692 0)
(-0.00267408 0.271547 0)
(0.0011589 0.179112 0)
(-0.000391807 0.0242668 0)
(-0.000808569 -0.25277 0)
(0.00250496 -0.232313 0)
(-0.0025082 0.0483776 0)
(-0.00122727 0.205339 0)
(-0.000795334 0.272991 0)
(0.00149521 0.328807 0)
(0.000938555 0.372016 0)
(0.00416384 0.398889 0)
(0.00423302 0.417421 0)
(0.00461973 0.419973 0)
(0.00408325 0.415194 0)
(0.00340205 0.40625 0)
(-0.000386741 0.393209 0)
(-0.00634185 0.38332 0)
(-0.0150681 0.382411 0)
(-0.0239641 0.380375 0)
(-0.0327538 0.378469 0)
(-0.0383896 0.382822 0)
(-0.0365116 0.376712 0)
(-0.0275864 0.360388 0)
(-0.0187102 0.337243 0)
(-0.009333 0.306127 0)
(-0.00300203 0.261174 0)
(-0.000634162 0.177214 0)
(-0.00102783 0.0267426 0)
(-0.000744054 -0.251156 0)
(0.0029772 -0.228431 0)
(-0.00112319 0.0527095 0)
(0.00111877 0.205461 0)
(0.0014347 0.27689 0)
(-0.000231302 0.333196 0)
(-0.00087501 0.37614 0)
(-0.00160239 0.403074 0)
(-0.0025727 0.417354 0)
(-0.00302295 0.41891 0)
(-0.00375908 0.417473 0)
(-0.00584526 0.410539 0)
(-0.00763134 0.398608 0)
(-0.0098497 0.390187 0)
(-0.013774 0.392529 0)
(-0.0193991 0.392538 0)
(-0.0267294 0.388401 0)
(-0.0288548 0.382264 0)
(-0.0254527 0.365697 0)
(-0.0210007 0.345643 0)
(-0.014124 0.320678 0)
(-0.00769422 0.2931 0)
(-0.00315693 0.253073 0)
(-0.00194678 0.175278 0)
(-0.00119436 0.0272903 0)
(-0.00117907 -0.250378 0)
(0.00288577 -0.226406 0)
(0.00129825 0.0555843 0)
(0.00288308 0.206486 0)
(0.00205557 0.284585 0)
(-0.0013287 0.340007 0)
(-0.00161031 0.380792 0)
(-0.00256811 0.408833 0)
(-0.0042196 0.423433 0)
(-0.00858109 0.422884 0)
(-0.0128478 0.419859 0)
(-0.0173025 0.413512 0)
(-0.0185167 0.399557 0)
(-0.0176602 0.392092 0)
(-0.0166687 0.396005 0)
(-0.0167359 0.399058 0)
(-0.0189666 0.390833 0)
(-0.0179938 0.376302 0)
(-0.0154947 0.358634 0)
(-0.0113977 0.335813 0)
(-0.00619695 0.309869 0)
(-0.00359477 0.284126 0)
(-0.000894624 0.247652 0)
(-0.00115892 0.174243 0)
(-0.000822042 0.0277794 0)
(-0.00118073 -0.249281 0)
(0.00139199 -0.226954 0)
(0.00308116 0.0575546 0)
(0.00189091 0.205386 0)
(0.00339347 0.289348 0)
(0.000596377 0.343308 0)
(0.00277089 0.38344 0)
(0.00165588 0.409465 0)
(0.000923582 0.425525 0)
(-0.00567542 0.428194 0)
(-0.0131776 0.424597 0)
(-0.0207889 0.414855 0)
(-0.0257959 0.39778 0)
(-0.0264614 0.38728 0)
(-0.0238269 0.389768 0)
(-0.0182814 0.392804 0)
(-0.0138789 0.385822 0)
(-0.0112284 0.369279 0)
(-0.00749615 0.347618 0)
(-0.00259026 0.323825 0)
(0.000451054 0.303684 0)
(0.0005222 0.281362 0)
(0.00174511 0.24717 0)
(0.000158452 0.176407 0)
(-0.000292066 0.0305154 0)
(-0.000578964 -0.246657 0)
(-0.000480865 -0.226277 0)
(0.00213156 0.0613086 0)
(-0.000321725 0.203315 0)
(0.00242405 0.286542 0)
(0.00219303 0.338782 0)
(0.00721948 0.378798 0)
(0.00876681 0.408017 0)
(0.0101135 0.43051 0)
(0.00547562 0.440092 0)
(-0.00172766 0.435586 0)
(-0.00886588 0.424514 0)
(-0.0163104 0.401277 0)
(-0.0193693 0.383899 0)
(-0.0177403 0.377556 0)
(-0.0105227 0.376284 0)
(-0.00336811 0.373241 0)
(2.77897e-05 0.359777 0)
(0.00192344 0.338139 0)
(0.00294144 0.317165 0)
(0.00368788 0.299909 0)
(0.00343388 0.279419 0)
(0.00326676 0.249591 0)
(0.000645832 0.181939 0)
(-0.000496831 0.0350324 0)
(0.000209476 -0.241426 0)
(-0.002406 -0.221456 0)
(-0.000475939 0.0660859 0)
(-0.0040757 0.203287 0)
(-0.00111475 0.282687 0)
(-0.000165307 0.328517 0)
(0.00620773 0.367572 0)
(0.00922844 0.397947 0)
(0.0131949 0.424109 0)
(0.0141501 0.439351 0)
(0.012591 0.439303 0)
(0.0119656 0.430892 0)
(0.00819711 0.408985 0)
(0.00454404 0.385435 0)
(0.00331695 0.372141 0)
(0.00583087 0.364045 0)
(0.0113999 0.361693 0)
(0.0131795 0.354996 0)
(0.0128809 0.338697 0)
(0.00951759 0.319416 0)
(0.00712334 0.300904 0)
(0.00544243 0.282306 0)
(0.00428713 0.254966 0)
(-5.44703e-05 0.189279 0)
(-0.000900169 0.0389825 0)
(0.000673616 -0.236071 0)
(-0.0031287 -0.212324 0)
(-0.00213461 0.073894 0)
(-0.00603316 0.208022 0)
(-0.00522116 0.278798 0)
(-0.00405494 0.319386 0)
(0.00287858 0.355469 0)
(0.00794877 0.388251 0)
(0.0140825 0.414981 0)
(0.0197022 0.434153 0)
(0.0226706 0.435577 0)
(0.0263808 0.428468 0)
(0.0282059 0.408415 0)
(0.030027 0.386298 0)
(0.0289607 0.372213 0)
(0.0284497 0.359569 0)
(0.0286617 0.355048 0)
(0.0269973 0.350197 0)
(0.0234015 0.340087 0)
(0.0161224 0.324722 0)
(0.0105106 0.305926 0)
(0.00747017 0.284886 0)
(0.0044238 0.262395 0)
(-0.000504458 0.197274 0)
(-0.00107875 0.0417543 0)
(0.00118975 -0.231397 0)
(-0.00375949 -0.202758 0)
(-0.00167784 0.0806083 0)
(-0.00214297 0.216902 0)
(-0.00425534 0.281943 0)
(-0.00718679 0.312001 0)
(-0.00376202 0.340006 0)
(0.00356287 0.36989 0)
(0.0123331 0.396714 0)
(0.0212248 0.41903 0)
(0.0271359 0.422911 0)
(0.0344744 0.414921 0)
(0.0411855 0.395989 0)
(0.0468595 0.376881 0)
(0.0504206 0.367944 0)
(0.050572 0.360228 0)
(0.0471201 0.35922 0)
(0.0403856 0.357037 0)
(0.033123 0.350564 0)
(0.0250643 0.337627 0)
(0.0191351 0.313986 0)
(0.0144146 0.292848 0)
(0.00911652 0.272189 0)
(0.0028689 0.206369 0)
(0.00166277 0.0455847 0)
(0.000824983 -0.224467 0)
(-0.00289464 -0.194435 0)
(-0.0012648 0.0782454 0)
(0.00214067 0.220658 0)
(-0.000341819 0.290548 0)
(-0.00512538 0.318767 0)
(-0.00621284 0.331881 0)
(-0.00168949 0.352832 0)
(0.00549588 0.376363 0)
(0.0134781 0.400123 0)
(0.0212889 0.405054 0)
(0.0298357 0.396854 0)
(0.0393911 0.380971 0)
(0.0459097 0.365392 0)
(0.0501122 0.35952 0)
(0.0517215 0.358085 0)
(0.0505959 0.363711 0)
(0.0468027 0.368517 0)
(0.0399933 0.361091 0)
(0.0350034 0.346929 0)
(0.0298926 0.325242 0)
(0.0237411 0.309216 0)
(0.0173427 0.287915 0)
(0.00950757 0.220753 0)
(0.00519418 0.0555669 0)
(0.000337909 -0.213836 0)
(-0.00132763 -0.186877 0)
(-0.00304642 0.0739205 0)
(0.000193731 0.220665 0)
(-0.00143582 0.29457 0)
(-0.00161628 0.323357 0)
(-0.00261448 0.332811 0)
(-0.00167092 0.346518 0)
(0.000836434 0.364118 0)
(0.00476472 0.381866 0)
(0.0113457 0.383102 0)
(0.0187735 0.373267 0)
(0.0274796 0.361633 0)
(0.0342373 0.353384 0)
(0.0386041 0.352666 0)
(0.0416452 0.356399 0)
(0.0441186 0.363398 0)
(0.0459812 0.372001 0)
(0.0441223 0.369097 0)
(0.0398564 0.357449 0)
(0.0349921 0.339984 0)
(0.0277055 0.326531 0)
(0.0220923 0.305778 0)
(0.0133421 0.239528 0)
(0.00734054 0.0723175 0)
(0.000905417 -0.200691 0)
(-0.000942292 -0.177347 0)
(-0.00505983 0.0767303 0)
(-0.00439089 0.219291 0)
(-0.00481847 0.292798 0)
(-0.0027975 0.322907 0)
(-0.00302292 0.331295 0)
(-0.00397436 0.342128 0)
(-0.00470458 0.35761 0)
(-0.00439598 0.372411 0)
(-0.000467154 0.369707 0)
(0.00404056 0.359266 0)
(0.010561 0.346805 0)
(0.0168663 0.339398 0)
(0.0226966 0.340789 0)
(0.0282616 0.345612 0)
(0.0339777 0.355362 0)
(0.0384895 0.368887 0)
(0.0397477 0.373694 0)
(0.0366488 0.368429 0)
(0.0318336 0.35546 0)
(0.0249132 0.34457 0)
(0.0195236 0.325509 0)
(0.0111513 0.258677 0)
(0.00801791 0.0899347 0)
(0.00188838 -0.18586 0)
(-0.00137245 -0.165037 0)
(-0.00620613 0.0848238 0)
(-0.00848672 0.222677 0)
(-0.00950568 0.294139 0)
(-0.0090373 0.322815 0)
(-0.0109477 0.333371 0)
(-0.013252 0.34685 0)
(-0.0166695 0.358379 0)
(-0.0175127 0.365564 0)
(-0.0142771 0.358941 0)
(-0.00939264 0.345827 0)
(-0.00436972 0.331958 0)
(0.000613885 0.326053 0)
(0.00686277 0.328395 0)
(0.0122485 0.333405 0)
(0.0175214 0.344807 0)
(0.0222144 0.362879 0)
(0.0254717 0.375552 0)
(0.0250444 0.377113 0)
(0.0224059 0.369447 0)
(0.0162812 0.361218 0)
(0.0115902 0.343318 0)
(0.00679556 0.270738 0)
(0.00758988 0.099562 0)
(0.00143057 -0.172528 0)
(-0.00138563 -0.151904 0)
(-0.00647745 0.0979471 0)
(-0.0103057 0.232287 0)
(-0.0128213 0.299764 0)
(-0.0145136 0.330998 0)
(-0.0193723 0.340032 0)
(-0.0218551 0.348387 0)
(-0.0253448 0.358336 0)
(-0.0259058 0.360126 0)
(-0.024136 0.348747 0)
(-0.021523 0.33607 0)
(-0.0192087 0.324507 0)
(-0.0153743 0.315297 0)
(-0.00904036 0.316757 0)
(-0.00538803 0.324726 0)
(-0.00215474 0.337177 0)
(0.0012392 0.355802 0)
(0.00521119 0.371429 0)
(0.0071003 0.378975 0)
(0.00795247 0.378761 0)
(0.00410392 0.374776 0)
(0.00251554 0.353057 0)
(0.00455334 0.274169 0)
(0.00789896 0.1062 0)
(0.000333589 -0.161059 0)
(-0.00212321 -0.139193 0)
(-0.0055647 0.11197 0)
(-0.0103522 0.24582 0)
(-0.0142541 0.311882 0)
(-0.0194725 0.34224 0)
(-0.0247045 0.349263 0)
(-0.028931 0.355852 0)
(-0.0323829 0.364353 0)
(-0.0331708 0.36245 0)
(-0.0335075 0.34929 0)
(-0.0338775 0.331092 0)
(-0.0312943 0.313448 0)
(-0.0259922 0.303025 0)
(-0.020682 0.307239 0)
(-0.0174962 0.317957 0)
(-0.0151555 0.330672 0)
(-0.0131311 0.349038 0)
(-0.00962328 0.366221 0)
(-0.0067196 0.377137 0)
(-0.00503876 0.381294 0)
(-0.00581633 0.3794 0)
(-0.00380303 0.349554 0)
(0.00350411 0.265337 0)
(0.00541 0.110641 0)
(0.0007734 -0.151344 0)
(-0.00259098 -0.127336 0)
(-0.00365893 0.124017 0)
(-0.00852928 0.260612 0)
(-0.0119339 0.330058 0)
(-0.0174503 0.362465 0)
(-0.0238917 0.366187 0)
(-0.0296196 0.368335 0)
(-0.0331071 0.369595 0)
(-0.0337539 0.361995 0)
(-0.0328996 0.344891 0)
(-0.0319788 0.32543 0)
(-0.0306435 0.302795 0)
(-0.0264126 0.290995 0)
(-0.0218548 0.296599 0)
(-0.0194483 0.310818 0)
(-0.0175366 0.326167 0)
(-0.0173392 0.345385 0)
(-0.0141189 0.361384 0)
(-0.0121149 0.375865 0)
(-0.0101095 0.383165 0)
(-0.0111645 0.377707 0)
(-0.00359187 0.339322 0)
(0.00253919 0.258291 0)
(0.0028214 0.112808 0)
(0.00105708 -0.144812 0)
(-0.00279309 -0.118843 0)
(-0.000965126 0.131698 0)
(-0.00303617 0.272275 0)
(-0.0060665 0.342242 0)
(-0.00826918 0.378037 0)
(-0.0130843 0.380626 0)
(-0.0186333 0.379509 0)
(-0.0232653 0.375143 0)
(-0.0254629 0.363178 0)
(-0.0274536 0.343325 0)
(-0.0290437 0.323671 0)
(-0.0300689 0.297944 0)
(-0.0288754 0.281145 0)
(-0.0254072 0.288669 0)
(-0.022999 0.304791 0)
(-0.0209866 0.322937 0)
(-0.0187829 0.341256 0)
(-0.0155083 0.358306 0)
(-0.0133922 0.374701 0)
(-0.0113574 0.383134 0)
(-0.00964425 0.369518 0)
(-0.000460246 0.323341 0)
(0.00067386 0.253875 0)
(0.00244622 0.114049 0)
(0.0013231 -0.138608 0)
(-0.00122043 -0.114766 0)
(-0.000417963 0.129349 0)
(0.00347607 0.277361 0)
(0.00173956 0.347976 0)
(0.00621552 0.385608 0)
(0.00572266 0.394788 0)
(0.00383977 0.393385 0)
(-0.00100082 0.382284 0)
(-0.00603715 0.366263 0)
(-0.0122156 0.346111 0)
(-0.018839 0.325831 0)
(-0.0257321 0.300209 0)
(-0.031283 0.280663 0)
(-0.0321068 0.28303 0)
(-0.0303177 0.300303 0)
(-0.0269181 0.316341 0)
(-0.0222419 0.334679 0)
(-0.0185542 0.352958 0)
(-0.0145706 0.368876 0)
(-0.0101379 0.374492 0)
(-0.00413595 0.354551 0)
(0.000302545 0.318074 0)
(-0.000527225 0.252064 0)
(0.0019277 0.112678 0)
(0.00130305 -0.133039 0)
(0.00028057 -0.111536 0)
(-0.00161607 0.122091 0)
(0.00330795 0.269845 0)
(0.00584289 0.339442 0)
(0.0150891 0.375618 0)
(0.022279 0.390084 0)
(0.0265985 0.394845 0)