/*--------------------------------*- C++ -*----------------------------------*\
| =========                 |                                                 |
| \\      /  F ield         | OpenFOAM: The Open Source CFD Toolbox           |
|  \\    /   O peration     | Version:  2312                                  |
|   \\  /    A nd           | Website:  www.openfoam.com                      |
|    \\/     M anipulation  |                                                 |
\*---------------------------------------------------------------------------*/
FoamFile
{
    version     2.0;
    format      ascii;
    arch        "LSB;label=32;scalar=64";
    class       volScalarField;
    location    "0.245/water";
    object      alphat.gas;
}
// * * * * * * * * * * * * * * * * * * * * * * * * * * * * * * * * * * * * * //

dimensions      [1 -1 -1 0 0 0 0];

internalField   nonuniform List<scalar> 
1497
(
1.31959303712e-06
1.18580463673e-06
1.06650679748e-06
9.33524244511e-07
7.51542863368e-07
5.13577403967e-07
2.69103667579e-07
9.9651302081e-08
2.51328968989e-08
4.26171862708e-09
5.4622213456e-10
1.17047643511e-10
7.69408845596e-11
3.43007410272e-06
3.87774324496e-06
3.36013858539e-06
2.39556684645e-06
1.74078703183e-06
1.46274560515e-06
1.33287707694e-06
1.23298437966e-06
1.14218269935e-06
1.04065136583e-06
8.97345373121e-07
6.94898418091e-07
4.48983235755e-07
2.21706233155e-07
7.80358800797e-08
1.87651920309e-08
3.09500710541e-09
4.22886183642e-10
1.06622574367e-10
7.32167395975e-11
3.09247300658e-06
3.67797912937e-06
3.33265471438e-06
2.46542175791e-06
1.77168360364e-06
1.42647125277e-06
1.27805937303e-06
1.19518143664e-06
1.12280460761e-06
1.02001656243e-06
8.60148190595e-07
6.42914435658e-07
3.99411644847e-07
1.91388680427e-07
6.63633849048e-08
1.58272445507e-08
2.6537063729e-09
3.96263662345e-10
1.09044979809e-10
7.21931055828e-11
2.78326194153e-06
3.46149826007e-06
3.18100491736e-06
2.4117162628e-06
1.77871889203e-06
1.43739427553e-06
1.28139669362e-06
1.1974062341e-06
1.12154452013e-06
1.00438407522e-06
8.28107517533e-07
6.05038545551e-07
3.70290054434e-07
1.78780647594e-07
6.38404442087e-08
1.57159895234e-08
2.76595206535e-09
4.48824545556e-10
1.26040312649e-10
7.45790843736e-11
2.47823321591e-06
3.10261848815e-06
2.86965047329e-06
2.26850677405e-06
1.78146558954e-06
1.50034611237e-06
1.34268156838e-06
1.23668424566e-06
1.13396315133e-06
9.93311679899e-07
8.06436631382e-07
5.85784578804e-07
3.6419172408e-07
1.84908288149e-07
7.06515297457e-08
1.8622618639e-08
3.52820508097e-09
6.15636446076e-10
1.69130857273e-10
8.47124480516e-11
2.36471669519e-06
2.75972694193e-06
2.61896061506e-06
2.22550494849e-06
1.89017937507e-06
1.6494185854e-06
1.4586961463e-06
1.29935297519e-06
1.15104057397e-06
9.881144126e-07
7.99073426202e-07
5.89856972245e-07
3.85567395881e-07
2.11825742727e-07
8.89943864776e-08
2.60210431402e-08
5.46185393039e-09
1.02611009523e-09
2.68571653819e-10
1.13846913774e-10
2.53958847348e-06
2.77694322318e-06
2.70802216997e-06
2.44482046898e-06
2.15608968875e-06
1.87328514597e-06
1.60725673742e-06
1.37569998004e-06
1.17824190241e-06
9.96307025492e-07
8.12464360129e-07
6.24370488917e-07
4.37473437828e-07
2.63197615016e-07
1.23811103871e-07
4.10939537984e-08
9.74197937524e-09
1.99143789266e-09
4.97675775623e-10
1.84124754591e-10
2.96214129772e-06
3.21266687776e-06
3.15393594191e-06
2.8699218891e-06
2.51618533403e-06
2.15457019548e-06
1.80442810512e-06
1.49127158731e-06
1.23620300934e-06
1.03258241624e-06
8.57837336491e-07
6.91201382941e-07
5.19059726428e-07
3.43373384328e-07
1.83111241767e-07
7.02066464391e-08
1.88973724624e-08
4.18839674169e-09
1.01367222001e-09
3.34328728566e-10
3.5488579179e-06
3.80399736648e-06
3.68114546783e-06
3.33191603205e-06
2.92869385055e-06
2.51333699482e-06
2.08236336442e-06
1.67966771669e-06
1.35956179096e-06
1.12293889065e-06
9.40003068342e-07
7.79657739073e-07
6.1878333795e-07
4.46632443981e-07
2.7020741853e-07
1.21121047192e-07
3.73061395147e-08
8.89858761173e-09
2.10923467254e-09
6.27175489263e-10
3.81006334129e-06
4.05641259686e-06
3.93607894558e-06
3.65074036971e-06
3.30664730528e-06
2.89338666446e-06
2.40853493372e-06
1.93206383111e-06
1.55080232686e-06
1.26475690438e-06
1.04714920568e-06
8.72211941657e-07
7.14410492563e-07
5.50375770437e-07
3.69968581173e-07
1.91987649097e-07
6.83873628877e-08
1.76874653631e-08
4.16796360146e-09
1.14547031159e-09
3.10767838276e-06
4.06237223519e-06
4.15429341576e-06
3.9139531857e-06
3.58202127769e-06
3.18440351835e-06
2.70003797548e-06
2.18733962897e-06
1.75310693837e-06
1.41320082946e-06
1.15133036105e-06
9.51218722423e-07
7.88591141016e-07
6.31970553747e-07
4.56132270716e-07
2.63745904328e-07
1.06853914172e-07
3.03681204056e-08
7.33415709515e-09
1.94516073017e-09
2.64121252776e-06
3.97853582991e-06
4.28330178403e-06
4.07925424016e-06
3.74629243161e-06
3.35143296053e-06
2.87715310812e-06
2.36571270837e-06
1.90465060565e-06
1.52157744912e-06
1.22501921734e-06
1.00400040629e-06
8.35811257497e-07
6.84993128735e-07
5.15927062825e-07
3.1870815462e-07
1.40971952105e-07
4.35784290263e-08
1.10851429797e-08
2.98943148258e-09
2.450731048e-06
3.88383571105e-06
4.26401644914e-06
4.0864893658e-06
3.77462211963e-06
3.39629888646e-06
2.93278086383e-06
2.42355791461e-06
1.95445508939e-06
1.56364314152e-06
1.25650566053e-06
1.02868427868e-06
8.601192452e-07
7.1485882166e-07
5.51761383466e-07
3.53422380559e-07
1.64546790073e-07
5.39881595032e-08
1.45196510059e-08
4.13262210776e-09
2.28446371355e-06
3.71392709057e-06
4.10176313168e-06
3.94384351845e-06
3.67064491167e-06
3.31934107498e-06
2.86769355786e-06
2.36924933548e-06
1.91535163823e-06
1.54402206312e-06
1.24964444675e-06
1.03100083252e-06
8.70106310336e-07
7.31222885559e-07
5.71335331468e-07
3.70920878132e-07
1.76387825811e-07
6.0078569166e-08
1.71509834162e-08
5.32521738857e-09
2.19371740093e-06
3.45899731916e-06
3.82924154898e-06
3.70810055167e-06
3.48189719271e-06
3.15467856155e-06
2.71511513125e-06
2.24137994481e-06
1.82505296274e-06
1.48398519898e-06
1.21725378076e-06
1.02035042577e-06
8.74222989717e-07
7.423827653e-07
5.81824502739e-07
3.7648096528e-07
1.79556069338e-07
6.29752534756e-08
1.92777200381e-08
6.68936165433e-09
2.27547579015e-06
3.20714835371e-06
3.51919712908e-06
3.44571658609e-06
3.2597289837e-06
2.94789918996e-06
2.52989907086e-06
2.09227613473e-06
1.71324470829e-06
1.40829633682e-06
1.17655865249e-06
1.00858539164e-06
8.80933299977e-07
7.54564151996e-07
5.87872965193e-07
3.74776449328e-07
1.77984576677e-07
6.44512664367e-08
2.14147556059e-08
8.41911644986e-09
2.32757471507e-06
3.04255831629e-06
3.26190108425e-06
3.20196134423e-06
3.0341376696e-06
2.73598429614e-06
2.34122953808e-06
1.9426558379e-06
1.60138838683e-06
1.33521998914e-06
1.14205474136e-06
1.00600163724e-06
8.96358001068e-07
7.69937542913e-07
5.9103715364e-07
3.69358387179e-07
1.74957673449e-07
6.59381549633e-08
2.39902555773e-08
1.07080609656e-08
2.36793100742e-06
3.00245957899e-06
3.09960420355e-06
2.9934493442e-06
2.82009415806e-06
2.53055600009e-06
2.16238735586e-06
1.80276259028e-06
1.50013831415e-06
1.27470420849e-06
1.12239043858e-06
1.01811254065e-06
9.20850603937e-07
7.86227562009e-07
5.91769224096e-07
3.62836734811e-07
1.725359121e-07
6.82315975297e-08
2.72791900224e-08
1.37203019079e-08
2.48401590432e-06
3.10332465294e-06
2.99124585629e-06
2.79583767702e-06
2.61466241579e-06
2.33678806289e-06
2.00209613148e-06
1.6797950069e-06
1.41591225858e-06
1.23336262575e-06
1.12254773071e-06
1.0445226434e-06
9.49560822066e-07
8.00700863995e-07
5.90388211478e-07
3.5627648508e-07
1.71399249671e-07
7.1584250782e-08
3.14477441744e-08
1.75726993046e-08
2.62239934691e-06
3.23277690165e-06
2.89047943276e-06
2.59601932715e-06
2.40038664467e-06
2.14648651648e-06
1.85357174186e-06
1.57316881563e-06
1.35306031034e-06
1.21689328129e-06
1.14368254822e-06
1.0802927097e-06
9.78109958137e-07
8.11532294331e-07
5.85633382141e-07
3.49236440852e-07
1.71331300227e-07
7.60049083162e-08
3.66186440139e-08
2.23147923074e-08
2.71337745178e-06
3.24490844271e-06
2.73039857026e-06
2.33358858691e-06
2.14493248195e-06
1.94702399493e-06
1.71096535229e-06
1.4834794032e-06
1.31679817435e-06
1.22901974588e-06
1.18289086398e-06
1.12083484331e-06
1.0031919369e-06
8.1503745678e-07
5.75336191991e-07
3.40983517159e-07
1.72099296606e-07
8.15657905375e-08
4.29633567534e-08
2.79121933729e-08
2.84387991577e-06
3.2288919298e-06
2.61466914235e-06
2.09928963682e-06
1.9030126188e-06
1.75873335679e-06
1.58578812499e-06
1.42154631733e-06
1.31594088063e-06
1.27034296451e-06
1.23547218189e-06
1.16100606404e-06
1.01867553348e-06
8.07235782188e-07
5.5875537135e-07
3.32001157435e-07
1.74053880288e-07
8.87600981829e-08
5.07835380687e-08
3.41766338759e-08
3.02387273496e-06
3.26703575494e-06
2.60070329376e-06
1.95759871707e-06
1.71593371579e-06
1.60970406089e-06
1.50099970092e-06
1.40612352752e-06
1.3581640752e-06
1.33644855351e-06
1.29253030555e-06
1.1908398713e-06
1.01808852466e-06
7.87358094199e-07
5.38403925628e-07
3.24238132753e-07
1.78789690869e-07
9.87234303437e-08
6.03464223673e-08
4.07635092812e-08
3.20238621495e-06
3.28506182251e-06
2.6185566621e-06
1.89757574761e-06
1.60231821266e-06
1.52435359152e-06
1.48004525815e-06
1.45143999164e-06
1.43936524245e-06
1.41228291176e-06
1.33808869768e-06
1.1998220431e-06
9.99996696825e-07
7.6020889863e-07
5.19344199107e-07
3.22133046887e-07
1.89287639909e-07
1.12381625901e-07
7.15249475826e-08
4.73106760751e-08
3.30368514982e-06
3.24479878451e-06
2.60146762385e-06
1.89856919254e-06
1.58310192848e-06
1.52840926388e-06
1.53902672865e-06
1.551051062e-06
1.53581004256e-06
1.47360979324e-06
1.35674833368e-06
1.18679667157e-06
9.72721800789e-07
7.34760799791e-07
5.09026241125e-07
3.2984402343e-07
2.06157871211e-07
1.29313846127e-07
8.39384860917e-08
5.36289657017e-08
3.30701388036e-06
3.18545267844e-06
2.5944972644e-06
1.97322400183e-06
1.67624644154e-06
1.63435109632e-06
1.66526084783e-06
1.66951313749e-06
1.61332995941e-06
1.50359479956e-06
1.35194388784e-06
1.16271675431e-06
9.4351509321e-07
7.16540829366e-07
5.1211567686e-07
3.48653135438e-07
2.29563425184e-07
1.49734731995e-07
9.77032422389e-08
5.99197491289e-08
3.35370455385e-06
3.27795064227e-06
2.74861559279e-06
2.17201683831e-06
1.86280053461e-06
1.79547593937e-06
1.80142415305e-06
1.76318609619e-06
1.6562080584e-06
1.50597464459e-06
1.3288966573e-06
1.12923003739e-06
9.18451896823e-07
7.14923691371e-07
5.32474397676e-07
3.7931844055e-07
2.60423873023e-07
1.7447409773e-07
1.13482956121e-07
6.67272062299e-08
3.69347795286e-06
3.67300996468e-06
3.10208172551e-06
2.41734422787e-06
2.02030147073e-06
1.91935987902e-06
1.8931775398e-06
1.80493599545e-06
1.65176804045e-06
1.47167436038e-06
1.28463621561e-06
1.09602408559e-06
9.11326773974e-07
7.34636031225e-07
5.69322212673e-07
4.21823436851e-07
2.9959376332e-07
2.04584977464e-07
1.32208590705e-07
7.47106787959e-08
4.36176965985e-06
4.31068248874e-06
3.48396498493e-06
2.50927964071e-06
2.04558210644e-06
1.94553874381e-06
1.8897264359e-06
1.76136201678e-06
1.58514348134e-06
1.40405755725e-06
1.23602129066e-06
1.07786677106e-06
9.23651709028e-07
7.69692501929e-07
6.1743190449e-07
4.73381578606e-07
3.45986309745e-07
2.39902511966e-07
1.54121606107e-07
8.41844708649e-08
4.71889906944e-06
4.82543099384e-06
3.58535128098e-06
2.43398469417e-06
1.97842996846e-06
1.87247623748e-06
1.79295877677e-06
1.65616086205e-06
1.49121707265e-06
1.33434221584e-06
1.19792007908e-06
1.07169936566e-06
9.43490975056e-07
8.07956383288e-07
6.66914867037e-07
5.26583272901e-07
3.94583612321e-07
2.77431488563e-07
1.77704190824e-07
9.45583395444e-08
4.14200093354e-06
5.10377713082e-06
3.82494765936e-06
2.53468716993e-06
1.95313298479e-06
1.76685276358e-06
1.67000233643e-06
1.54558500706e-06
1.40337746387e-06
1.27394641913e-06
1.16686059139e-06
1.06699502894e-06
9.59082185586e-07
8.38557667924e-07
7.08180731115e-07
5.72953644519e-07
4.38734731819e-07
3.12560554512e-07
2.00087464526e-07
1.04312528283e-07
3.97326067844e-06
5.43308201699e-06
4.38398687291e-06
2.96449421837e-06
2.11767913743e-06
1.73318915886e-06
1.56866433764e-06
1.45143910658e-06
1.32848848791e-06
1.22016104645e-06
1.13527411795e-06
1.05492204789e-06
9.63020632334e-07
8.56427971388e-07
7.37582829875e-07
6.09158104628e-07
4.75011067875e-07
3.42256524835e-07
2.18919034301e-07
1.12033801484e-07
4.01468307383e-06
5.72426002641e-06
5.00422007284e-06
3.60902356218e-06
2.57531954935e-06
1.91853329395e-06
1.56731914759e-06
1.38580774666e-06
1.26270926054e-06
1.16761627902e-06
1.09740435067e-06
1.03174820777e-06
9.55175686636e-07
8.63966788661e-07
7.57825696655e-07
6.36715003671e-07
5.0344350705e-07
3.65683837128e-07
2.33154988805e-07
1.17215039397e-07
4.05605122265e-06
5.91840231493e-06
5.53733932275e-06
4.26050825142e-06
3.13682811936e-06
2.31555375496e-06
1.7522561051e-06
1.39568263611e-06
1.20528890676e-06
1.10520897562e-06
1.04693189727e-06
9.9800530638e-07
9.40271126964e-07
8.66542162028e-07
7.72936746125e-07
6.57944152298e-07
5.25011931361e-07
3.83041880037e-07
2.4282960483e-07
1.20091249977e-07
4.03707716173e-06
5.97254595243e-06
5.90055296778e-06
4.81914717243e-06
3.69583952468e-06
2.78088138263e-06
2.07106284988e-06
1.51886462202e-06
1.19475434923e-06
1.04529940222e-06
9.8777603069e-07
9.58178987933e-07
9.22934887728e-07
8.67395514272e-07
7.84996627693e-07
6.74294277993e-07
5.40877089654e-07
3.94490607945e-07
2.47772077429e-07
1.20905830655e-07
3.96051018493e-06
5.94009854806e-06
6.10076603966e-06
5.21779997946e-06
4.15129333079e-06
3.18733482123e-06
2.37713068277e-06
1.69986560669e-06
1.25174606397e-06
1.02578635054e-06
9.44384023692e-07
9.22886539697e-07
9.05890641765e-07
8.66642335972e-07
7.93945652439e-07
6.8663615288e-07
5.5246125638e-07
4.01320769694e-07
2.49016567153e-07
1.19769318233e-07
3.81541821655e-06
5.85462092485e-06
6.16729633983e-06
5.43558217447e-06
4.4375464587e-06
3.45436261482e-06
2.57813808174e-06
1.84630087366e-06
1.33005235539e-06
1.04187175e-06
9.25886558257e-07
8.99076347841e-07
8.92197750269e-07
8.65046382226e-07
8.00035485837e-07
6.95395505405e-07
5.59847935872e-07
4.03488576912e-07
2.46786252204e-07
1.1679436582e-07
3.62874639919e-06
5.72538813224e-06
6.11326033564e-06
5.47761884921e-06
4.54253203873e-06
3.56473032912e-06
2.67059774644e-06
1.94149365535e-06
1.40210870922e-06
1.07362019548e-06
9.25255302178e-07
8.86939459222e-07
8.83807459119e-07
8.64357181739e-07
8.04316489992e-07
7.0072372452e-07
5.62226081254e-07
4.00007927401e-07
2.40554068444e-07
1.11754747264e-07
6.89878058921e-11
6.33326070583e-11
1.03240840883e-10
3.49158421368e-10
1.28814839205e-09
3.3358384198e-09
6.06365706683e-09
8.34836539066e-09
8.12325742362e-09
9.76746062395e-09
1.62919494441e-08
3.86674314521e-08
7.84181863958e-08
1.35203195786e-07
2.39022027007e-07
6.36783053044e-07
1.17585910988e-06
1.53303522602e-06
2.02565665316e-06
2.71849774728e-06
6.93551401602e-11
6.2577948809e-11
8.39795794041e-11
2.06630136084e-10
6.46854228818e-10
1.5049962493e-09
2.11709594375e-09
1.90018351279e-09
1.10502607204e-09
9.12539328915e-10
1.09459600546e-09
1.00029186713e-09
4.95637079124e-09
1.71774030732e-08
5.72660496187e-08
8.4945899625e-08
6.42700766677e-07
1.37317735013e-06
1.77516316358e-06
2.40491939466e-06
6.99664012078e-11
6.35143739796e-11
7.32432412765e-11
1.25601669333e-10
2.94049630301e-10
5.93344995019e-10
6.89176585177e-10
5.23451560067e-10
3.39079729578e-10
3.54944190241e-10
3.64291232949e-10
2.96337068759e-10
3.32187772805e-10
3.53880387295e-09
3.29125423572e-08
5.26280017376e-08
9.81214110054e-08
7.85165087701e-07
1.5605614653e-06
2.15333662427e-06
7.09845534323e-11
6.71488495466e-11
7.30001990731e-11
9.85505476737e-11
1.65966356819e-10
2.72903230454e-10
3.14480219865e-10
2.95326010568e-10
2.83177012447e-10
2.84744741579e-10
2.7095252146e-10
2.35967356272e-10
3.46044979353e-10
1.98305277228e-09
1.38434909954e-08
2.55569036429e-08
7.46321485733e-08
1.7127383638e-07
1.41148885156e-06
1.96504459636e-06
7.44420222083e-11
7.3907283839e-11
8.11993883584e-11
9.99296748992e-11
1.39321261637e-10
1.99545975476e-10
2.49590245677e-10
2.87715476507e-10
3.15411297359e-10
3.1563180079e-10
2.94798154775e-10
2.5626732199e-10
3.95429974414e-10
3.4424362343e-09
1.56940594394e-08
3.8041772944e-08
6.17492519113e-08
1.17156677759e-07
9.75659566454e-07
1.8278619212e-06
8.30213234661e-11
8.58676862357e-11
9.85085291169e-11
1.21047070634e-10
1.6071278889e-10
2.22572693238e-10
2.95211679839e-10
3.59988504237e-10
3.88568253011e-10
3.6876637802e-10
3.32203955371e-10
2.25193366177e-10
7.26279588183e-10
7.60029910371e-09
3.10983379357e-08
6.6585952348e-08
9.83888087795e-08
1.33744135004e-07
6.2612408091e-07
1.73597487291e-06
9.99878706706e-11
1.08066985078e-10
1.28331394349e-10
1.63290985056e-10
2.19890551092e-10
3.0707949613e-10
4.11665102813e-10
4.83525003586e-10
4.78267987188e-10
4.16456988052e-10
3.21979098111e-10
2.55102221541e-10
1.90952590398e-09
1.69467435337e-08
5.06552224489e-08
8.99546525757e-08
1.26055153172e-07
1.52756777556e-07
9.45254164541e-07
1.68063417993e-06
1.46244005676e-10
1.43984758837e-10
1.77592072697e-10
2.33974836339e-10
3.23468022284e-10
4.54046843607e-10
5.85514777725e-10
6.24481727164e-10
5.45463793159e-10
4.24687331325e-10
2.73231593893e-10
4.89638840563e-10
4.65734773572e-09
2.66085588817e-08
6.41542771569e-08
1.0492372365e-07
1.41910691882e-07
1.64652112223e-07
1.24120471956e-06
1.63602958539e-06
2.58949424161e-10
2.04107071322e-10
2.57558336329e-10
3.46302735725e-10
4.86218515144e-10
6.69180626717e-10
7.93156357339e-10
7.40370451505e-10
5.63362075215e-10
3.88785979874e-10
2.7552401882e-10
1.03969608028e-09
8.20525980146e-09
3.46293169591e-08
7.39052036819e-08
1.15684738745e-07
1.53324565199e-07
1.75003321271e-07
1.310008504e-06
1.60128681978e-06
4.61490439919e-10
3.29874017461e-10
3.76348481517e-10
5.20196818304e-10
7.26436658865e-10
9.46680365756e-10
9.91535667821e-10
7.91465234536e-10
5.23410648855e-10
3.3125171619e-10
3.75470574613e-10
2.03341731852e-09
1.24399772658e-08
4.18534032566e-08
8.24329267286e-08
1.25378656338e-07
1.64941230194e-07
1.88559929016e-07
1.34850721314e-06
1.5756332262e-06
7.65470666656e-10
5.37265545665e-10
5.78078334461e-10
7.84213056976e-10
1.0612736932e-09
1.25850581288e-09
1.12257194527e-09
7.50883502715e-10
4.36054922899e-10
2.79507973116e-10
5.90301299748e-10
3.4556004744e-09
1.71559242752e-08
4.86909569339e-08
9.09854573107e-08
1.36216568342e-07
1.77887439498e-07
2.11240776658e-07
1.39738971095e-06
1.55626215184e-06
1.18104930938e-09
8.2644782314e-10
8.92432772088e-10
1.17323221909e-09
1.49892442637e-09
1.54431750099e-09
1.12402180691e-09
6.19096848969e-10
3.27364592995e-10
2.5709113554e-10
9.5411375437e-10
5.29547385871e-09
2.22813768969e-08
5.54799399891e-08
1.00259498129e-07
1.49245008603e-07
1.925869601e-07
2.42277838081e-07
1.45160633243e-06
1.54430680246e-06
1.72075915274e-09
1.24259543081e-09
1.35336456692e-09
1.72242308056e-09
2.00867259723e-09
1.70406971993e-09
9.61670345756e-10
4.36728106211e-10
2.31379625831e-10
3.08329757709e-10
1.51271416418e-09
7.64781294378e-09
2.78000931462e-08
6.25628052174e-08
1.10701093684e-07
1.65060369849e-07
2.09198557258e-07
2.74689953597e-07
1.50977946745e-06
1.54356658927e-06
2.44355815921e-09
1.87695202412e-09
2.04271960966e-09
2.42365337418e-09
2.46544356936e-09
1.62598172651e-09
6.7401824878e-10
2.69223417567e-10
1.71941781155e-10
4.96078137312e-10
2.42469370654e-09
1.0746717224e-08
3.35896269752e-08
7.01032054997e-08
1.22862960604e-07
1.83811900945e-07
2.27840288041e-07
3.07533947661e-07
1.57578183543e-06
1.55787815737e-06
3.46540960348e-09
2.8554301312e-09
3.04363947191e-09
3.19940587988e-09
2.67584987302e-09
1.28532242417e-09
3.82626514162e-10
1.61743718438e-10
1.58831665637e-10
9.05597817271e-10
3.880710924e-09
1.45508242931e-08
3.91153441854e-08
7.82742893005e-08
1.37643391337e-07
2.0516996966e-07
2.47842524952e-07
3.37157395984e-07
1.65043673556e-06
1.58838059532e-06
4.93402861557e-09
4.29132878123e-09
4.33392789387e-09
3.82497918386e-09
2.49138696912e-09
8.32471871328e-10
1.94321368536e-10
1.11629810649e-10
2.15529895942e-10
1.57590125238e-09
5.75469729932e-09
1.83813865237e-08
4.37423171015e-08
8.79813393806e-08
1.55891273691e-07
2.27890943458e-07
2.67399006526e-07
3.59310358691e-07
1.72906882592e-06
1.63306681512e-06
6.98910566175e-09
6.20268589322e-09
5.67914282638e-09
3.99738480309e-09
1.94644860692e-09
4.59080388712e-10
1.08539864436e-10
9.72752830598e-11
3.85514888031e-10
2.42766968379e-09
7.72244382708e-09
2.15827936357e-08
4.79460039529e-08
1.00537072967e-07
1.77597479606e-07
2.50756321742e-07
2.8442508953e-07
3.76470695262e-07
1.80162021871e-06
1.68859005737e-06
9.70427598151e-09
8.42443796116e-09
6.67916977271e-09
3.62142985527e-09
1.30012343785e-09
2.37820408454e-10
7.72726187034e-11
1.09529451208e-10
6.75872187136e-10
3.32906230171e-09
9.47400242173e-09
2.37848053325e-08
5.31361778002e-08
1.16795189578e-07
2.01194732161e-07
2.72364010693e-07
2.97680337853e-07
3.93735016212e-07
1.86086266423e-06
1.75152993992e-06
1.30266840817e-08
1.06079427357e-08
7.02351205745e-09
2.8770949057e-09
7.89117884505e-10
1.34271277038e-10
6.83189728896e-11
1.50574904711e-10
1.02353559118e-09
4.1443141479e-09
1.08357704321e-08
2.49529547316e-08
6.11624652067e-08
1.36890877853e-07
2.24674868845e-07
2.90716668933e-07
3.0659724676e-07
4.15894958818e-07
1.9042679941e-06
1.81555735959e-06
1.67343007816e-08
1.23194447242e-08
6.64429181096e-09
2.06967781396e-09
4.75521617882e-10
8.75122065856e-11
7.08689660366e-11
2.20224553922e-10
1.35758081208e-09
4.78022043619e-09
1.19405007724e-08
2.60350893852e-08
7.34711128851e-08
1.59725905707e-07
2.46921450088e-07
3.04788091101e-07
3.17116187324e-07
4.49621812102e-07
1.93084845757e-06
1.86990114317e-06
2.04328444084e-08
1.32053822671e-08
5.74648928064e-09
1.44771958596e-09
3.00256965492e-10
6.50164954236e-11
8.03792101583e-11
2.99596404586e-10
1.61797996344e-09
5.06741832893e-09
1.28038202288e-08
2.87881327741e-08
8.98444380705e-08
1.82970965386e-07
2.66862426426e-07
3.15095409556e-07
3.60389874369e-07
5.06518767668e-07
1.94236023248e-06
1.90459137737e-06
2.36371002032e-08
1.31664710422e-08
4.71461437449e-09
1.03195435016e-09
1.93467339731e-10
5.75872990249e-11
8.72041265106e-11
3.55819689408e-10
1.72180277024e-09
4.91996459086e-09
1.307535542e-08
3.49893918701e-08
1.09276369516e-07
2.04701032325e-07
2.83289797068e-07
3.22125914927e-07
4.08825334848e-07
5.94311225971e-07
1.94183545089e-06
1.91804755998e-06
2.60363222847e-08
1.24980659666e-08
3.82179905959e-09
7.46315603384e-10
1.27439418787e-10
5.93916848677e-11
8.97599516578e-11
3.55528534875e-10
1.63468550962e-09
4.61121367812e-09
1.29249784404e-08
4.59257720122e-08
1.30630211013e-07
2.24076975477e-07
2.95948468477e-07
3.39157038678e-07
4.26382068013e-07
7.01822610753e-07
1.93292837579e-06
1.91616924067e-06
2.76329617343e-08
1.15438670618e-08
3.08710921561e-09
5.4480920932e-10
9.40774864298e-11
6.68626959575e-11
9.48445574475e-11
3.39406530017e-10
1.41673579338e-09
4.44787169404e-09
1.35744346093e-08
6.13116063849e-08
1.50940109939e-07
2.40237756055e-07
3.05055694036e-07
3.96577475587e-07
4.28573874241e-07
8.35472791727e-07
1.91677801096e-06
1.90239452084e-06
2.86064073102e-08
1.05422803114e-08
2.50109005514e-09
4.00516116368e-10
7.91517977777e-11
7.08944026788e-11
9.69129167037e-11
3.25220255417e-10
1.20123490286e-09
4.46941473749e-09
1.65311385606e-08
7.76164650846e-08
1.65848311224e-07
2.51276644202e-07
3.14383849185e-07
4.40217135653e-07
4.46301094797e-07
1.03807481514e-06
1.89304901085e-06
1.87465760923e-06
2.92708072816e-08
9.62228497533e-09
2.03436811295e-09
2.97416101631e-10
7.45504615076e-11
6.94317443433e-11
8.84658721387e-11
2.85458525396e-10
9.97727272094e-10
4.50616446405e-09
2.25158407742e-08
8.88710071448e-08
1.71419077022e-07
2.5436579588e-07
3.67683975164e-07
4.47606080936e-07
5.28712016317e-07
1.37928130093e-06
1.86002321991e-06
1.83016680243e-06
2.99939869362e-08
8.85885600316e-09
1.66499357377e-09
2.28256099845e-10
7.68840998842e-11
6.56988351284e-11
7.03292784956e-11
2.0657968709e-10
7.41985206202e-10
4.43271772904e-09
2.93410681729e-08
9.07232864169e-08
1.6516845593e-07
2.46761736587e-07
4.14073327936e-07
4.85944374084e-07
8.00318272578e-07
1.83668623041e-06
1.81854210181e-06
1.77183376541e-06
3.10854543501e-08
8.29209174534e-09
1.3809779569e-09
1.8680043383e-10
8.39933832914e-11
6.60273646863e-11
5.44150511987e-11
1.33136750062e-10
4.63730092418e-10
4.14601948229e-09
3.11271363808e-08
8.49090743931e-08
1.52761604696e-07
2.30863017869e-07
4.08191761152e-07
6.28972524045e-07
1.51031317553e-06
2.0498368187e-06
1.77487166839e-06
1.71093724751e-06
3.27046614873e-08
7.91056051736e-09
1.17979514562e-09
1.66766773537e-10
9.55992942793e-11
7.39361187721e-11
5.04226853326e-11
9.36409974648e-11
2.6003842883e-10
3.45922579811e-09
2.67603019001e-08
7.62770066341e-08
1.37826413847e-07
2.09953588354e-07
3.83591745428e-07
7.08947790419e-07
2.10151657372e-06
2.04592962219e-06
1.73632053154e-06
1.65896136761e-06
3.47139852682e-08
7.67898090931e-09
1.05654176081e-09
1.62472395611e-10
1.12314592178e-10
9.30654000048e-11
5.91257371854e-11
8.14565454303e-11
1.49951178964e-10
2.39152827826e-09
2.03758373642e-08
6.78971930348e-08
1.23674800481e-07
1.87715876347e-07
3.24734075512e-07
5.6463535759e-07
2.0236072279e-06
2.03147489722e-06
1.70787711428e-06
1.61920537874e-06
3.66365445857e-08
7.57587618605e-09
1.00064581801e-09
1.70066599484e-10
1.32599421653e-10
1.26535663894e-10
7.99689557344e-11
8.5984992148e-11
9.92264412225e-11
1.33355622041e-09
1.43277515733e-08
6.04706077234e-08
1.14068604018e-07
1.71900341142e-07
2.3434847339e-07
4.05243430206e-07
1.40982834807e-06
2.03487114867e-06
1.69341912305e-06
1.58930892648e-06
3.8053100559e-08
7.56503292804e-09
9.99661491477e-10
1.87432924985e-10
1.5354864261e-10
1.69112672591e-10
1.16312040645e-10
1.02390585842e-10
8.22048362758e-11
6.54651082784e-10
9.82986225517e-09
5.09076724421e-08
1.07711161686e-07
1.6471198817e-07
2.20172255055e-07
3.24672955807e-07
6.43856917808e-07
2.00112552761e-06
1.6982473713e-06
1.5670139008e-06
3.88834794773e-08
7.63022325594e-09
1.0436117417e-09
2.13508403682e-10
1.73024852338e-10
2.10482546751e-10
1.65205661629e-10
1.28273459452e-10
8.74002933097e-11
4.14299199328e-10
7.44634793546e-09
4.72250759006e-08
1.08348779299e-07
1.63217105595e-07
2.13680412679e-07
2.62037235926e-07
4.19252651699e-07
1.75164558284e-06
1.72949306613e-06
1.55560810829e-06
3.92741506873e-08
7.77004644245e-09
1.12411793217e-09
2.47031487465e-10
1.91292090906e-10
2.43291391764e-10
2.16165514905e-10
1.60129377555e-10
1.13416815079e-10
4.19975634028e-10
7.97092287895e-09
5.236985185e-08
1.14649239464e-07
1.67333715064e-07
2.15533667568e-07
2.60532208378e-07
3.9061734853e-07
1.21796156455e-06
1.78855005751e-06
1.56570684908e-06
3.9343631663e-08
7.97593378246e-09
1.22802667566e-09
2.84080003389e-10
2.0963305669e-10
2.66668969106e-10
2.58436441413e-10
1.94677500548e-10
1.64692685565e-10
7.00099360774e-10
1.12739129534e-08
5.91280621202e-08
1.21269752106e-07
1.7554707319e-07
2.23229006526e-07
2.66691407321e-07
3.87440012271e-07
7.98610951246e-07
1.85821246243e-06
1.6085033614e-06
3.88187953012e-08
8.07692323363e-09
1.30419320265e-09
3.14690394021e-10
2.2805413122e-10
2.84823965724e-10
2.91057247409e-10
2.33747557946e-10
2.71972286833e-10
1.51401844044e-09
1.5986038977e-08
6.64666829257e-08
1.29726390097e-07
1.88357641776e-07
2.37326747397e-07
2.78615183715e-07
3.89567504871e-07
6.31169953757e-07
1.91698627856e-06
1.68925253495e-06
3.7569189903e-08
7.9521466248e-09
1.32975473945e-09
3.36376305727e-10
2.46182731694e-10
3.03086218377e-10
3.19435773946e-10
2.8380203647e-10
4.80567258992e-10
3.00708224074e-09
2.21488723004e-08
7.53112688703e-08
1.39835412575e-07
2.03309287254e-07
2.54484009233e-07
2.93264312206e-07
4.04169084425e-07
5.8886194852e-07
1.99145769781e-06
1.81487226082e-06
3.55209152848e-08
7.57903970848e-09
1.30376826193e-09
3.4944225442e-10
)
;

boundaryField
{
    emptyPatch
    {
        type            empty;
    }
    minY
    {
        type            zeroGradient;
    }
    maxY
    {
        type            calculated;
        value           nonuniform List<scalar> 0();
    }
    water_to_cooler
    {
        type            compressible::alphatWallBoilingWallFunction;
        phaseType       vapor;
        relax           constant 1;
        partitioningModel
        {
            type            Lavieville;
            alphaCrit       0.2;
        }
        otherPhase      liquid;
        dmdt            uniform 0;
        dDep            uniform 1e-05;
        qQuenching      uniform 0;
        alphatConv      uniform 0;
        value           nonuniform List<scalar> 
37
(
3.75990018435e-05
3.6161536179e-05
3.29499942212e-05
3.13186484235e-05
3.11843826783e-05
3.11295424221e-05
3.12176588036e-05
3.16146704132e-05
3.22120527397e-05
3.28786059092e-05
3.35526705993e-05
3.45120090871e-05
3.55304677095e-05
3.6360404227e-05
3.72834937604e-05
3.88952053448e-05
4.10653398088e-05
4.34065527915e-05
4.5913948956e-05
4.86244639162e-05
5.11419643148e-05
5.36465937436e-05
5.56327936842e-05
5.6856850003e-05
5.74793847184e-05
5.73050568947e-05
5.57538221958e-05
5.27809855101e-05
4.91863878117e-05
4.56833885705e-05
4.27729716313e-05
4.04328445464e-05
3.86227014672e-05
3.75794791318e-05
3.75394729533e-05
3.80966508226e-05
3.88024716434e-05
)
;
    }
    water_to_heater
    {
        type            compressible::alphatWallBoilingWallFunction;
        phaseType       vapor;
        relax           constant 1;
        partitioningModel
        {
            type            Lavieville;
            alphaCrit       0.2;
        }
        otherPhase      liquid;
        dmdt            uniform 0;
        dDep            uniform 1e-05;
        qQuenching      uniform 0;
        alphatConv      uniform 0;
        value           nonuniform List<scalar> 
60
(
2.8337489575e-06
2.8337489575e-06
4.3252122302e-06
4.3252122302e-06
4.73030681916e-06
4.73030681916e-06
4.74931874552e-06
3.12045184366e-06
3.68906835002e-07
3.68906835002e-07
4.99544593973e-08
4.99544593973e-08
5.86629895413e-08
5.86629895413e-08
3.66327115943e-07
3.54982887012e-06
5.39363229473e-06
5.39363229473e-06
5.43543289586e-06