/*--------------------------------*- C++ -*----------------------------------*\
| =========                 |                                                 |
| \\      /  F ield         | OpenFOAM: The Open Source CFD Toolbox           |
|  \\    /   O peration     | Version:  2312                                  |
|   \\  /    A nd           | Website:  www.openfoam.com                      |
|    \\/     M anipulation  |                                                 |
\*---------------------------------------------------------------------------*/
FoamFile
{
    version     2.0;
    format      ascii;
    arch        "LSB;label=32;scalar=64";
    class       volScalarField;
    location    "0.245/water";
    object      alpha.gas;
}
// * * * * * * * * * * * * * * * * * * * * * * * * * * * * * * * * * * * * * //

dimensions      [0 0 0 0 0 0 0];

internalField   nonuniform List<scalar> 
6000
(
0.175208065746
0.104423254885
0.0291040050603
0.00720760776017
0.0013478485941
0.000207062197864
2.5773102763e-05
1.86215483036e-06
3.83171064679e-08
3.37222310466e-10
1.76051194775e-12
7.54436821396e-15
1e-15
1e-15
1e-15
1e-15
1e-15
1e-15
1e-15
1e-15
0.613303650933
0.259815418561
0.107169951276
0.0362059199077
0.0113656525632
0.00301162474016
0.000673053980185
0.000117647658231
1.15684271598e-05
2.47488710406e-07
8.36333321969e-10
1.48820798144e-12
2.85383228342e-15
1e-15
1e-15
1e-15
1e-15
1e-15
1e-15
1e-15
0.613304089033
0.344357904122
0.169360003458
0.0718641673375
0.0275138983489
0.00912842398639
0.00253547562943
0.000564029725551
8.2810861278e-05
4.3223393474e-06
2.02526484238e-08
2.76049768368e-11
3.29788947784e-14
1e-15
1e-15
1e-15
1e-15
1e-15
1e-15
1e-15
0.613303650933
0.421829573898
0.246424729097
0.125481011322
0.0562747492921
0.0216106796885
0.00687908512758
0.00175559102866
0.000321044498683
2.9275986802e-05
4.19656811446e-07
4.85136448216e-10
4.16964684527e-13
1.28327752654e-15
1e-15
1e-15
1e-15
1e-15
1e-15
1e-15
0.596804637523
0.466429019557
0.324526072528
0.198452279548
0.105615930322
0.0472858154957
0.0171374810247
0.00483595991226
0.000996352471723
0.000120592758564
4.29209240369e-06
6.93604864358e-09
5.32079759333e-12
4.72854965507e-15
1.00000830635e-15
1e-15
1e-15
1e-15
1e-15
1e-15
0.570129354585
0.483113246315
0.383221298554
0.274789886595
0.173322343719
0.0925514915347
0.03980980894
0.0129603501104
0.00297808660535
0.000421411807184
2.46053122571e-05
1.42288405375e-07
8.43875549674e-11
4.50315196939e-14
1.01975497243e-15
1e-15
1e-15
1e-15
1e-15
1e-15
0.568052139192
0.494566714497
0.419930978983
0.336347639391
0.243981369354
0.153808851637
0.0801153559323
0.0319141755887
0.00878205197217
0.00146429515115
0.000114647227836
2.0440372627e-06
1.35676959334e-09
6.67455725156e-13
1.34948999108e-15
1.00099077281e-15
1.00098089735e-15
1.00092689595e-15
1.00088810597e-15
1.00073998454e-15
0.570373541817
0.501846829516
0.439835082335
0.377066490268
0.301733671655
0.217335061656
0.13446391243
0.0664241113124
0.0233249462905
0.00497813755442
0.000520142114312
1.78660744378e-05
3.96042738902e-08
1.57260031277e-11
7.4061311493e-15
1.00492841575e-15
1.00229026711e-15
1.00223835791e-15
1.00218997845e-15
1.00191088904e-15
0.569019828969
0.505795058045
0.456917192068
0.407891338047
0.34707144924
0.27328006312
0.192390791748
0.114422144841
0.0517118207136
0.0150262330583
0.00224618154297
0.000127457222066
1.48783896066e-06
6.01806934017e-10
2.6588925714e-13
1.13192255983e-15
1.00312961232e-15
1.00307673689e-15
1.00297483556e-15
1.00261252712e-15
0.572371593465
0.507812470436
0.472461735004
0.435015842934
0.384715213095
0.319546641673
0.24533266128
0.167809715769
0.0944994838073
0.0375406072696
0.00832963881771
0.000773057890029
2.04998042667e-05
4.07845398345e-08
1.24442703214e-11
5.64197753316e-15
1.00586327021e-15
1.00411321347e-15
1.00383037455e-15
1.00329833401e-15
0.569139639672
0.507479800207
0.482437964713
0.454464792786
0.412712915751
0.355254177252
0.288420091566
0.217776214387
0.145603914618
0.075816619289
0.0245161023705
0.00364428810945
0.000176330232794
1.68525648527e-06
5.72070778004e-10
2.74561074987e-13
1.13871165516e-15
1.00619612228e-15
1.0055637514e-15
1.00458391524e-15
0.572879128576
0.503894470478
0.481600904722
0.45621511598
0.421505563145
0.374741404594
0.318453609248
0.258983847249
0.195731825075
0.124909376482
0.0551985509045
0.0125191706589
0.00102984016674
2.07786236944e-05
3.77764629165e-08
1.02343826584e-11
5.38541145435e-15
1.01088168642e-15
1.00883225649e-15
1.00698866689e-15
0.569216322847
0.495735034914
0.473677561552
0.449260617239
0.416773250811
0.376554181298
0.334451827854
0.288805964537
0.236775286125
0.172478680429
0.0956526016272
0.0307960833836
0.00399008293326
0.000138551968817
7.84484992075e-07
2.95620584345e-10
1.20551841382e-13
1.06233420008e-15
1.01263581327e-15
1.01007427097e-15
0.572242948912
0.482091605772
0.459562310281
0.432397685117
0.402900192856
0.371744029562
0.341492480096
0.308107827193
0.265422304292
0.208443741718
0.134122110885
0.0563037328666
0.0105994962635
0.000573620840032
5.96558209519e-06
5.26867830247e-09
2.34444890305e-12
2.01248456714e-15
1.01514969073e-15
1.01169930086e-15
0.569139639672
0.466615604118
0.442326493175
0.412771358579
0.386858355018
0.36530269459
0.345384873477
0.320309649375
0.283340378729
0.232338053581
0.164636633524
0.083211267988
0.0209162232527
0.00166156396205
2.76101178675e-05
5.2017618695e-08
2.1789277282e-11
1.06038297919e-14
1.01642510866e-15
1.01157244465e-15
0.569606352842
0.454780141762
0.430395297255
0.405028930208
0.383631503936
0.365738606424
0.350531129976
0.329500443172
0.296079283941
0.251445877017
0.191602518395
0.110576056242
0.0349551820388
0.0039042411351
0.000102648039751
4.22972204266e-07
8.70341683055e-11
9.04022941229e-15
1.01274170459e-15
1.00973863928e-15
0.56741474611
0.451729914235
0.429108862026
0.40834087232
0.389913400507
0.374336294606
0.360358769199
0.339764263574
0.310172382693
0.273745253752
0.223199654538
0.14490996698
0.0566937043573
0.00904660921386
0.000408933545753
3.89476119824e-06
2.15821855136e-10
1.0531908992e-14
1.00667487017e-15
1.00570139402e-15
0.556859835335
0.459923757948
0.441070689963
0.428960174421
0.413733176304
0.395571109396
0.376145130295
0.354008270587
0.330117220416
0.303706385198
0.264024849651
0.194168948796
0.0966975492778
0.023196053752
0.00188692657659
3.8460026857e-05
5.00241982348e-08
9.56408503615e-13
1.45087657829e-15
1.00167458668e-15
0.558820067966
0.496845227401
0.487098865953
0.476759691086
0.454716594925
0.424591159918
0.395549784839
0.37060230029
0.34918815451
0.329199360701
0.304443194459
0.256649661382
0.16579745416
0.0606411607055
0.00864010541404
0.00035016311641
2.67720548755e-06
7.35489436871e-11
2.61195907043e-14
1.01325030059e-15
0.597261427793
0.555683588714
0.551373213254
0.535160273821
0.499382862192
0.454235281608
0.41424833276
0.381930915789
0.352785282504
0.330859614056
0.321913706946
0.311421615423
0.251609880323
0.132961127533
0.031844913483
0.00240566109669
4.27571080204e-05
4.53100281137e-08
3.82108433572e-12
2.22691896721e-15
0.627881436688
0.588722438394
0.591521052678
0.575901974575
0.535726454664
0.479993948201
0.428422525771
0.385527228219
0.350284075911
0.325104756539
0.32101723365
0.320906031466
0.30611131503
0.216884630023
0.0815795699416
0.0109097928889
0.0003779097896
2.32462146033e-06
2.50980174599e-10
9.37490937549e-14
0.625147731775
0.59557388602
0.595485296101
0.589723325107
0.555553362958
0.495986898464
0.43544808067
0.384663068031
0.341213449067
0.30991944786
0.312188735326
0.320790316505
0.320675006228
0.27043124744
0.141589907734
0.0308132396476
0.00191291200886
2.49620614514e-05
1.58295845602e-08
3.08594881331e-12
0.629902405993
0.594997364327
0.595379238892
0.590655097613
0.558629016121
0.499061338474
0.435062925858
0.376940548184
0.323016917364
0.297725658902
0.299240497726
0.31411157566
0.320559308027
0.291033478339
0.18438978471
0.0576387433507
0.00571747614572
0.000125997337538
4.1049687718e-07
5.54696577517e-11
0.625330445377
0.591747135481
0.595220691979
0.590348977119
0.557305556678
0.496370145744
0.427300207344
0.358076215015
0.302334455205
0.29748955634
0.297646162307
0.300406817727
0.31506079542
0.295435559721
0.208067438635
0.0814817715186
0.0113815353425
0.000374181097939
2.22541624675e-06
6.61671172407e-10
0.63012042662
0.584408592233
0.595121377123
0.586919141915
0.549354269481
0.483757488095
0.406471458328
0.330170271418
0.297540740784
0.297646162307
0.297031085487
0.297646162307
0.302149406075
0.296286599118
0.225017871166
0.100408565521
0.0177349740691
0.000791266332313
6.64310746305e-06
5.7249327961e-09
0.625330445377
0.574613521602
0.589943967252
0.576560880594
0.531687704342
0.458649778441
0.37545803347
0.304589547178
0.297646162307
0.296885328881
0.297646162307
0.296726517666
0.297646162307
0.302514352039
0.24508355165
0.119868617325
0.0254453157587
0.00147755046516
1.62815585516e-05
2.54457427878e-08
0.629785322635
0.562890709032
0.575724224704
0.558185692139
0.506057503495
0.426174122244
0.342365142101
0.297646162307
0.297125745892
0.297646162307
0.296269244297
0.297646162307
0.298446220426
0.334781819332
0.277213153838
0.147302420081
0.0378244600481
0.00289243504875
4.16732908045e-05
1.00552143001e-07
0.625147731775
0.54991313031
0.555246702193
0.531933675463
0.474324583217
0.39288616286
0.314784089511
0.297373312406
0.297646162307
0.296271440895
0.297646162307
0.295886391487
0.324933358943
0.360450888892
0.312038600445
0.189501748106
0.060693713878
0.00623683250578
0.000120866311782
4.0595168405e-07
0.628550523624
0.537032772735
0.534040706879
0.500862431428
0.439346044647
0.362636405311
0.299699803315
0.297646162307
0.296517905633
0.297646162307
0.295819662457
0.297646162307
0.357821499471
0.361057196389
0.349730771173
0.247049317271
0.0972061582494
0.0133620558897
0.000363910128318
1.60998501909e-06
0.625078062048
0.523421962776
0.51211734979
0.469874667597
0.40639781812
0.338121433591
0.297646162307
0.29692933448
0.297646162307
0.295819662457
0.297646162307
0.331249256386
0.361304343433
0.360450888892
0.360797572783
0.292984363677
0.141355704551
0.0262010745978
0.00106146352693
6.58621785615e-06
0.626391540882
0.505444575141
0.488096218154
0.443545968863
0.383718772899
0.325458844429
0.297349239396
0.297646162307
0.296012153606
0.297646162307
0.304884563992
0.360926616121
0.360450888892
0.361222119931
0.360450888892
0.319328399541
0.183256450826
0.0455308132308
0.00280852509605
2.64875753963e-05
0.625051185013
0.481396579464
0.462907731244
0.425089458509
0.374789647276
0.324758754346
0.297646162307
0.296546974807
0.297646162307
0.305809862602
0.347143719982
0.360450888892
0.360993345583
0.360450888892
0.360723911865
0.333669896366
0.219158477044
0.071501614753
0.00669957239429
0.000100543247726
0.610307421299
0.4581247542
0.44608351478
0.418835312232
0.375204944273
0.333279454243
0.312666642249
0.316944947685
0.327335771075
0.336060848774
0.343041758304
0.349742348948
0.35895351946
0.360709201436
0.360450888892
0.340661163482
0.250654844035
0.105287714673
0.0146185362471
0.000353691841913
0.570685656542
0.455606279094
0.453669129087
0.431919352828
0.391443233117
0.360165702709
0.351962255933
0.354622244622
0.346184811172
0.330775551931
0.317184281943
0.319877300546
0.339064097651
0.353636410371
0.356886566305
0.346752064719
0.288013077395
0.152071465177
0.0298805493741
0.00115304919948
0.541629775382
0.48084298515
0.501792688561
0.491169587326
0.440174552336
0.399216302125
0.381777735866
0.365865249197
0.33978839526
0.308263536307
0.287007878673
0.288815035106
0.306767134691
0.327977698117
0.343179329297
0.357273745352
0.338082529339
0.216031322403
0.0585556213403
0.00367884796074
0.545046349299
0.548291002097
0.594391660206
0.591907065098
0.524108716216
0.450094191789
0.405405221597
0.370737447602
0.332000484278
0.29082704398
0.270256178512
0.269872680937
0.279863478524
0.297190371598
0.328622284146
0.364843469184
0.368606892444
0.279395196073
0.107355427617
0.011418271155
0.570585275784
0.614771832138
0.662980332559
0.663031132731
0.617789467258
0.526048757417
0.446086376416
0.387141248885
0.3356578914
0.289184274377
0.262788647484
0.26042297057
0.265738563613
0.277616303369
0.316969089798
0.365521768833
0.370625339869
0.326039948675
0.17125399508
0.030395453884
0.608217554136
0.650843827543
0.669671643355
0.671071724032
0.667355911719
0.603877294417
0.509202161895
0.424424119145
0.352751739823
0.292785880802
0.259526611818
0.255612941343
0.259260098203
0.267380011842
0.304288716187
0.363158619583
0.370740479465
0.354248902714
0.231161505947
0.063461039167
0.626784145856
0.662698291058
0.67175436302
0.669671643355
0.670757400094
0.644426484926
0.563950940483
0.464890160231
0.375151411825
0.299763664911
0.258383740988
0.252806037949
0.255869535202
0.261560747125
0.290577589383
0.356154703604
0.370855617728
0.367783396362
0.27384785394
0.104493000682
0.629392951785
0.665027133564
0.669671643355
0.672132909019
0.669671643355
0.65821867566
0.589366874162
0.48639765843
0.385926643587
0.301972442883
0.257270786317
0.252265570498
0.253577079137
0.25814369798
0.279489195668
0.343907196704
0.37097075466
0.372984994942
0.300816574423
0.144880602995
0.63013461066
0.663304839124
0.671670614732
0.669671643355
0.671229908204
0.662252710194
0.595696656311
0.490438352662
0.385786651089
0.298776717297
0.254804180804
0.252011079848
0.252618556009
0.256078119549
0.27240466182
0.330279745411
0.36891825126
0.373715134134
0.31877614249
0.18157842569
0.631472332469
0.658678381743
0.669671643355
0.672075940842
0.669671643355
0.662357851474
0.594065171105
0.485923145257
0.376012825728
0.28735650374
0.252646081496
0.251807610376
0.252365819191
0.25510171491
0.268851535195
0.318817296427
0.364047767385
0.373848456323
0.334141279142
0.217136127641
0.633918450639
0.650339990069
0.670818803422
0.669671643355
0.670984495195
0.658584330039
0.582428488999
0.467083044314
0.352400943831
0.271063746347
0.251690231498
0.251653775596
0.252295547205
0.255141030366
0.268220411967
0.309307407414
0.356192299169
0.375564747764
0.352518851854
0.254777560622
0.633889501692
0.642618112373
0.669671643355
0.671506534499
0.669671643355
0.648515230216
0.558704703125
0.436048921527
0.322442689932
0.257968892627
0.251256518318
0.251521581822
0.252273033499
0.256286032874
0.26886824784
0.299922000882
0.345360095867
0.382573726155
0.37981967028
0.292827124807
0.633958703018
0.636253692108
0.670060443544
0.669671643355
0.670326627463
0.633843889049
0.529623527296
0.402142045935
0.295440460495
0.252810065932
0.251104428748
0.251424800027
0.252426128958
0.259432118803
0.270869008153
0.290334482601
0.333956333946
0.392053610605
0.392507423465
0.322546725933
0.633553927722
0.634004223596
0.669034915359
0.670693671329
0.669671643355
0.616606235505
0.500352141163
0.370800576357
0.275669433633
0.251316938715
0.250971050664
0.251410702426
0.25334255834
0.264808104907
0.272294986452
0.280309458643
0.322687836672
0.392284738803
0.392056404225
0.341564217503
0.634004223596
0.633640647069
0.663649985979
0.669671643355
0.665887303403
0.595375352811
0.472088906935
0.343837718224
0.263396529765
0.250760752575
0.250847944987
0.251530072735
0.256078193738
0.270286522561
0.270984071885
0.270047064394
0.313046160105
0.391927746941
0.392576699104
0.354770389257
0.633458632368
0.634055247299
0.653934774748
0.669853877051
0.651755156926
0.568804199327
0.443737758498
0.321121744467
0.256879297693
0.250626107137
0.250736025769
0.251773559621
0.260730480447
0.272699850807
0.266155891634
0.259926591965
0.310638146701
0.392333766274
0.392056404225
0.364849645125
0.634055247299
0.633056033604
0.650346055878
0.66817379615
0.631256330139
0.538439113923
0.414401751888
0.30167107695
0.253551487507
0.250515968628
0.250625330918
0.253454783068
0.269939125704
0.272713949611
0.257433095623
0.251607738275
0.313442231692
0.392056404225
0.39269033829
0.380474023762
0.633056033604
0.634088937296
0.655070216123
0.659882268832
0.606211385488
0.505564363919
0.384619715586
0.284916912917
0.25164104586
0.250419004984
0.250941038673
0.263140638362
0.279796059956
0.272376312415
0.245188338596
0.245702261847
0.323544663004
0.392820930141
0.392056404225
0.392478490563
0.668927381106
0.671615334549
0.659999423268
0.643849340086
0.577782010889
0.474245358827
0.359020757634
0.271717830348
0.250228277552
0.250322635238
0.258043182825
0.283232081229
0.283408812438
0.265728452722
0.232873292923
0.243428180204
0.337987953321
0.392056404225
0.39303178475
0.392056404225
0.771995290698
0.706628718904
0.663731932892
0.625217169015
0.551578903826
0.449551079292
0.340850162832
0.262576163635
0.249635714313
0.253018900327
0.278167741201
0.286530643417
0.281111551103
0.251043263357
0.224752434154
0.245157771352
0.350959863139
0.393014612961
0.392056404225
0.392587948938
0.835927991529
0.710866209199
0.659587945637
0.599968528066
0.520153627504
0.421771545189
0.321243244011
0.254649512937
0.249461134107
0.263467153344
0.285207918018
0.286531124404
0.269784121573
0.232176012254
0.222792818569
0.252237167929
0.363755609462
0.392056404225
0.393041962817
0.392056404225
0.833485720586
0.708406361952
0.637794477007
0.556549071429
0.468143192948
0.373933275533
0.288161506564
0.244887044938
0.24830377338
0.272549812611
0.285364282654
0.279877863323
0.247287630405
0.219556875925
0.221818803142
0.265552567734
0.375262643699
0.393184300534
0.392056404225
0.392656118582
0.836760619492
0.698911866626
0.59542455551
0.488453462195
0.386555749689
0.296960688803
0.238222139657
0.229623232929
0.244424377999
0.273351030333
0.279851186859
0.260947573565
0.22416836529
0.2186638374
0.225574381611
0.281954468243
0.384282142158
0.392056404225
0.393308986801
0.392056404225
0.833485720586
0.675352473081
0.536795615944
0.400214084261
0.287477340261
0.221516318755
0.205248665171
0.209687177526
0.235286394234
0.266700769704
0.263603608462
0.236273534004
0.218071640188
0.218623613551
0.237135373089
0.294958946337
0.386570304366
0.393457603113
0.392056404225
0.3931929729
0.837046284546
0.628319486884
0.461286999359
0.304527014966
0.217034582627
0.204297875808
0.204455667922
0.203887972274
0.212760414073
0.24058546751
0.238608038534
0.222053192094
0.218053401098
0.224805756796
0.249742912632
0.29671253336
0.385142720626
0.392056404225
0.393739554661
0.392056404225
0.833485720586
0.558806653409
0.37035614163
0.226239202521
0.204272869226
0.204389462657
0.203453957276
0.204238141477
0.203216943667
0.20510476292
0.210380649939
0.213967846502
0.220899742006
0.234829509878
0.251261495448
0.289818168313
0.377206474893
0.393582445333
0.392056404225
0.393515831893
0.835393675274
0.474478293287
0.273347998504
0.204204739107
0.204389462657
0.202974680132
0.204238141477
0.202072118559
0.204227115896
0.202797176215
0.204232602732
0.20480598756
0.22233844835
0.234827023012
0.243319042683
0.272776768049
0.364510640321
0.392056404225
0.394175351395
0.392056404225
0.822722668158
0.351941693377
0.209009100873
0.204389462657
0.202315023659
0.204238141477
0.201073568723
0.204227115896
0.201402470904
0.204227115896
0.202592134372
0.204227115896
0.218208753428
0.225909767842
0.225145530577
0.255331676408
0.350702324894
0.393407892291
0.392056404225
0.394111972447
0.722172437434
0.223649756888
0.204389462657
0.201873384825
0.204238141477
0.200149898977
0.2041583894
0.200349866772
0.204227115896
0.201570704401
0.204227115896
0.202906611098
0.211206107978
0.211896442002
0.209471705048
0.24295087191
0.338559378075
0.392056404225
0.394323694056
0.392056404225
0.562606453356
0.204389462657
0.200828725052
0.204238141477
0.199589951584
0.2041583894
0.199533387933
0.2041583894
0.200980616689
0.204227115896
0.202338416009
0.20411299469
0.206408896929
0.204641740781
0.202394464219
0.229331403957
0.321650299726
0.392652645663
0.392056404225
0.394517946664
0.467940196966
0.240723759127
0.229575200816
0.220046133498
0.213826800981
0.206162569441
0.2041583894
0.202264975054
0.204227115896
0.202716779215
0.20411299469
0.203495951025
0.204665615832
0.202223456057
0.20028508859
0.210818801672
0.289674932377
0.382996788766
0.393495579476
0.392056404225
0.510986098002
0.471510024299
0.434825285289
0.401677790043
0.361877487878
0.320468450172
0.272860085684
0.235084567628
0.213550003443
0.206091272773
0.203691323564
0.203941210119
0.202527585224
0.201002237131
0.200205056938
0.200376753343
0.237409129537
0.345328090652
0.392056404225
0.394220601981
0.67733627441
0.727730579303
0.684064397065
0.64909191806
0.610293129996
0.559234280778
0.478313034217
0.373979587622
0.284874640338
0.233940653902
0.212177352343
0.20429818917
0.200960050032
0.200208920208
0.2002113634
0.20015224667
0.202114514058
0.273538993853
0.388964424265
0.392056404225
0.811399953317
0.801786837325
0.771294553741
0.753158891325
0.737168772062
0.714420329458
0.667466785006
0.575815633888
0.444275080169
0.322957640133
0.244707167193
0.209312851174
0.200728853253
0.2002113634
0.200108928915
0.200173303057
0.200073516838
0.210127221465
0.353479484962
0.392982431621
0.835691423624
0.808447272415
0.78561186333
0.774513006316
0.767054878316
0.75538933889
0.729196506673
0.672898585344
0.570958517484
0.440724250409
0.317937200751
0.231003862364
0.202032115162
0.20013255763
0.200173303057
0.200019711087
0.200152414466
0.199983020051
0.28088631302
0.389579657073
0.834621526314
0.809859492586
0.788653121947
0.780049903175
0.775151722725
0.76577576442
0.74312452193
0.696959203468
0.616808485193
0.506423770891
0.384613282326
0.270321016089
0.207825035301
0.200173303057
0.200064952268
0.200152414466
0.199798209325
0.20012535569
0.221019130334
0.35933854246
0.835828050475
0.809026597106
0.788325374206
0.781478016711
0.777909542348
0.769224184248
0.746856208953
0.70251230428
0.629529344681
0.529892476977
0.415157748225
0.299874366469
0.21781603425
0.200082794016
0.200152414466
0.199897864922
0.20012535569
0.199499950082
0.20012535569
0.305707396324
0.834621526314
0.804676235903
0.784265371402
0.780362163327
0.777785985262
0.769299420585
0.746439429066
0.701969687969
0.630611655274
0.534875428418
0.423576628274
0.309325893064
0.222841976171
0.200152414466
0.199976156547
0.20012535569
0.199676824083
0.20010463947
0.199351536851
0.262181884698
0.835397796274
0.796666280701
0.775356385024
0.774699311438
0.773917444678
0.765400936625
0.740533099876
0.694577144741
0.62449296551
0.53119809118
0.421649692611
0.308020230539
0.221990990151
0.200092686003
0.20012535569
0.199837338789
0.20010463947
0.199407673571
0.20010463947
0.245194406242
0.834621526314
0.785145148807
0.761665404751
0.761472292837
0.761719284737
0.751879153881
0.723676920177
0.674934127215
0.604544110744
0.513504732887
0.40621582653
0.294775060861
0.215011942092
0.20012535569
0.199913933415
0.20010463947
0.199681026861
0.200092384447
0.199222729867
0.245329254849
0.827781336666
0.767727232227
0.740082157184
0.737342101862
0.736709330275
0.723915527995
0.692345157917
0.640632045344
0.568828141287
0.477939076736
0.371848996765
0.265813091019
0.204272804336
0.199999294073
0.20010463947
0.199754062942
0.200092384447
0.199465021517
0.200092384447
0.251744196765
0.808878771751
0.738818602487
0.704017687063
0.699323069499
0.694151077818
0.676475591298
0.641176817274
0.586937236678
0.513826996838
0.422730240911
0.319255963313
0.228193194131
0.200097281534
0.20010463947
0.199795146987
0.200092384447
0.199658902479
0.200077116706
0.199208553943
0.270184695791
0.794579177603
0.694288905519
0.656239721041
0.645226847813
0.629464308392
0.603428412544
0.562841862428
0.506314802136
0.433180924662
0.344773160224
0.253704860366
0.202628572269
0.20010463947
0.199814989211
0.200092384447
0.19967914892
0.200077116706
0.199522840124
0.200086531546
0.295029326067
0.78262628434
0.664933042921
0.601632534656
0.56999573531
0.537533218106
0.498835624779
0.451370050445
0.393605951388
0.325127912551
0.252869466224
0.205441611731
0.20012535569
0.199820910761
0.20010463947
0.199711510691
0.203030920588
0.203825063484
0.20006458414
0.210363112949
0.305339316615
0.791127554849
0.63598398226
0.537548372842
0.474345358326
0.420234723149
0.366069574031
0.313264998348
0.263862914061
0.223023602697
0.20182620561
0.200152414466
0.199794133629
0.20012535569
0.199691487226
0.210879334717
0.219416478765
0.212456794734
0.200020892781
0.214369572519
0.304212609281
0.818546177029
0.592633787883
0.462895703043
0.368546062074
0.294303472942
0.238522849642
0.210029512356
0.20089759069
0.200046811057
0.200173303057
0.199561427205
0.200152414466
0.199483774254
0.215171211006
0.234031630712
0.229313817925
0.212351334157
0.200060520972
0.213715753432
0.29576680953
0.828922958072
0.524248836256
0.383385017599
0.269144502425
0.210223354145
0.200104702462
0.200220580013
0.199270219568
0.2002113634
0.198777855299
0.200173303057
0.198882479329
0.211155211671
0.242742767559
0.241796182047
0.227978262555
0.20872073054
0.199125193991
0.209951235005
0.27894330879
0.829473983269
0.431724145602
0.299870086935
0.207704408468
0.200002836026
0.200230507203
0.198646813894
0.200220580013
0.197748662453
0.2002113634
0.197920895659
0.203519477405
0.246498959909
0.246925215375
0.239440141678
0.221442677011
0.205171264933
0.198647401871
0.203728221882
0.255901200791
0.796270398358
0.334917042184
0.236387814325
0.199969135334
0.200258806781
0.198363628602
0.200230507203
0.196934422484
0.200220580013
0.196920387326
0.200639914615
0.248258168423
0.249034071195
0.245655925143
0.2305617394
0.215317620503
0.20461486979
0.198650194509
0.198476930373
0.229498940554
0.681746935485
0.311785222579
0.231460122691
0.200276255933
0.198487570763
0.200258806781
0.196717518053
0.200230507203
0.1966596501
0.208454612992
0.256676566047
0.257952231342
0.248546251995
0.23433442112
0.221908130517
0.213299345123
0.204988742144
0.198905763728
0.197587784206
0.206324592944
0.573094963075
0.347756404292
0.276089790123
0.235381377912
0.216788203995
0.207370126212
0.208120739404
0.215842015577
0.238588761663
0.271240879548
0.276866788745
0.25646316549
0.235369463996
0.222447954875
0.216901355825
0.212374150208
0.20601476054
0.199514878336
0.197605093994
0.197595286326
0.581891449727
0.508774869259
0.464398907602
0.41411950004
0.368535625608
0.346486154403
0.339355271077
0.339660008568
0.33617158336
0.316476200963
0.283381164212
0.254759660665
0.230731498341
0.216547140579
0.212521799171
0.210865860868
0.20656181494
0.200598317731
0.197548883846
0.197605093994
0.681368285241
0.719919519818
0.695090065879
0.658530881405
0.625192543096
0.60421144953
0.584187134031
0.543581081765
0.473646865073
0.391682955848
0.323117994658
0.274025662875
0.238063386007
0.216535976509
0.207875800493
0.207710650583
0.206179846831
0.202085933268
0.197605093994
0.197490003976
0.803343470075
0.809697105959
0.778769679981
0.764217871689
0.757104439593
0.751191335307
0.737176566664
0.700132357138
0.626676972042
0.527592633241
0.430361878834
0.344275846104
0.273529154
0.225068694846
0.20584170509
0.203225454727
0.204222594025
0.202232426051
0.198275693656
0.197605093994
0.854794091086
0.815752868722
0.787754119476
0.781103519704
0.781901981707
0.782599474388
0.775154869132
0.752374977196
0.703981304521
0.627217146392
0.533010943192
0.431409536272
0.33317369741
0.249509330785
0.206808025322
0.199369870509
0.200692336336
0.201352063687
0.199177471607
0.197436667749
0.8572512744
0.807330448574
0.787087439443
0.781965205444
0.784431726485
0.78447039102
0.779799504981
0.759660141015
0.718076278321
0.653754678447
0.570268867547
0.473217418335
0.37016973651
0.272259831053
0.210027656948
0.197605093994
0.197645137975
0.199223063305
0.198800490859
0.197605093994
0.857310621388
0.785642906342
0.780337843193
0.77818825652
0.782311754544
0.783312817346
0.777709155407
0.757030986967
0.716140875827
0.653930443529
0.573189944526
0.478457013257
0.375405454194
0.275684353185
0.210243607495
0.197573384329
0.197605093994
0.197561260141
0.197605093994
0.197457535893
0.837278886793
0.764040565646
0.767717739265
0.7689401735
0.774367516215
0.774759170021
0.765933658236
0.741898116038
0.700141007714
0.64017855177
0.56241076712
0.468988192711
0.365771094929
0.266619728146
0.205562855875
0.197605093994
0.197458309618
0.197605093994
0.197478246717
0.197605093994
0.800929398847
0.753717389079
0.756737990506
0.760725202289
0.763522499694
0.758335716559
0.741022357482
0.708140695263
0.661031165608
0.599897606861
0.522977754426
0.430088261316
0.327493860562
0.236926731632
0.198277708435
0.197493323696
0.197605093994
0.197342270329
0.197605093994
0.197336736294
0.787502195587
0.749289546013
0.750462508822
0.756142173537
0.754410945294
0.739287786955
0.707294806117
0.660154751654
0.602785564254
0.53506238683
0.453882707481
0.359278381039
0.263723189417
0.204451740601
0.197537199619
0.197605093994
0.197285864611
0.197605093994
0.197238587141
0.197605093994
0.787418505457
0.743291470079
0.74600668559
0.752329805821
0.746657092855
0.720550001799
0.670978823983
0.606095336334
0.53475586309
0.456274548142
0.367508463594
0.274508200654
0.209285624821
0.197547016954
0.197605093994
0.197269363508
0.197605093994
0.197132413358
0.197605093994
0.197147613464
0.78690853131
0.729929178689
0.740158149181
0.746092576606
0.737015606298
0.701207090404
0.634523085362
0.551554200734
0.464615625322
0.373605904965
0.279741744919
0.21095180678
0.197547065607
0.197605093994
0.197240193914
0.197605093994
0.1970455129
0.197605093994
0.197034839189
0.198143791295
0.786838726518
0.70579876357
0.729947862226
0.733207514436
0.721325386654
0.67709986843
0.59646585987
0.498343959847
0.396903312742
0.295511500324
0.215228507189
0.197537368213
0.197605093994
0.197176307518
0.197605093994
0.19694508469
0.197605093994
0.196924160802
0.198715970441
0.207820748458
0.786226909972
0.670291118213
0.707757302945
0.707855585452
0.693537868995
0.642007370997
0.55232310391
0.444243629616
0.332640341564
0.232644842256
0.197598622787
0.197605093994
0.197136034099
0.197605093994
0.196819759374
0.197605093994
0.196793134014
0.1987203761
0.212454752104
0.210922413018
0.78283219881
0.629828404311
0.663942575809
0.663178721332
0.645624067045
0.589513385467
0.496563691089
0.384698369408
0.271272637676
0.200697148148
0.197605093994
0.197079221152
0.197605093994
0.19667952331