/*--------------------------------*- C++ -*----------------------------------*\
| =========                 |                                                 |
| \\      /  F ield         | OpenFOAM: The Open Source CFD Toolbox           |
|  \\    /   O peration     | Version:  2312                                  |
|   \\  /    A nd           | Website:  www.openfoam.com                      |
|    \\/     M anipulation  |                                                 |
\*---------------------------------------------------------------------------*/
FoamFile
{
    version     2.0;
    format      ascii;
    arch        "LSB;label=32;scalar=64";
    class       volScalarField;
    location    "0.375/heater";
    object      T;
}
// * * * * * * * * * * * * * * * * * * * * * * * * * * * * * * * * * * * * * //

dimensions      [0 0 0 1 0 0 0];

internalField   nonuniform List<scalar> 
150
(
795.986994515
795.875428811
795.65758961
795.347973385
794.950539246
796.002499613
795.890754464
795.672093714
795.361899155
794.986769801
796.016036349
795.903756946
795.682982216
795.36688736
794.991251933
796.02690167
795.912975754
795.687161218
795.357668118
794.958626401
796.035693035
795.918833533
795.685066
795.334901481
794.891309574
796.047951875
795.928328606
795.688762529
795.326000052
794.847397384
796.065275325
795.943517087
795.700059892
795.330325652
794.826693921
796.088457057
795.966097544
795.721652518
795.350468385
794.835794303
796.117037614
795.996213534
795.754429639
795.38723806
794.875595526
796.149240384
796.032827376
795.79813682
795.438955692
794.93528955
796.184320059
796.07588031
795.854170555
795.508465281
795.015283083
796.208882446
796.107314012
795.89691659
795.562833615
795.078376541
796.225592935
796.128633617
795.926105532
795.600691447
795.124248652
796.242418141
796.148440047
795.951438681
795.632996652
795.16636623
796.260484408
796.168696011
795.976121826
795.663799747
795.209078994
796.280801795
796.190836879
796.002036263
795.694411476
795.245089281
796.305064885
796.216886513
796.031829709
795.728366298
795.27941084
796.328271934
796.241306421
796.059173911
795.759869987
795.31330413
796.344859643
796.25864516
796.078861193
795.783984938
795.343526942
796.350144822
796.263920928
796.085399611
795.794270045
795.361067501
796.347883882
796.261449436
796.084220457
795.797582921
795.371801028
796.343014863
796.256715828
796.081309477
795.799792105
795.380583551
796.331476646
796.245278564
796.071712312
795.795768881
795.38338288
796.311486916
796.22485077
796.052246356
795.781354285
795.375063929
796.285472181
796.197421544
796.024262961
795.757688746
795.355804194
796.259682052
796.170052907
795.995643267
795.732384151
795.332549992
796.234917003
796.144736797
795.970743646
795.71319914
795.321848727
796.205208655
796.115098294
795.942526937
795.692241074
795.319258954
796.171245503
796.081248049
795.910149367
795.668064441
795.319462926
796.139450476
796.049384802
795.878893279
795.642816069
795.31772292
)
;

boundaryField
{
    emptyPatch
    {
        type            empty;
    }
    minY
    {
        type            zeroGradient;
    }
    maxY
    {
        type            zeroGradient;
    }
    minX
    {
        type            zeroGradient;
    }
    heater_to_water
    {
        type            compressible::turbulentTemperatureTwoPhaseRadCoupledMixed;
        refValue        nonuniform List<scalar> 
60
(
327.27668102
361.444791875
361.444217616
465.097030956
465.097039521
495.667476482
495.668278083
499.186542185
493.804938537
462.789423811
462.790443245
422.446890549
422.44743491
374.0535872
374.053465425
344.945158407
331.618389723
325.31892689
325.318438509
321.974654166
321.974065389
319.502179746
319.501780688
317.728833259
317.735177163
322.531389854
322.531104825
338.773185587
338.772699753
367.091541552
367.090932914
377.883284669
378.042146136
376.202391933
376.201776179
375.270016779
375.269486042
379.727707801
379.72743197
393.281072251
403.23130108
414.175998626
414.175882789
416.881264537
416.881284157
427.176624293
427.176897702
422.884357633
429.430554631
418.931190824
418.931813718
373.799968787
373.800235005
333.841019425
333.841114499
319.885256596
311.888359527
310.363118405
310.363173044
317.580025546
)
;
        refGradient     uniform 0;
        valueFraction   nonuniform List<scalar> 
60
(
0.000739322918898
0.000733746879549
0.000733753836628
0.000632257342735
0.000632257309761
0.00061999175292
0.000619989201894
0.000619785271335
0.000619969127032
0.000630053260544
0.000630049295723
0.000661517673096
0.000661514712917
0.000717451850844
0.000717453043787
0.000747158169377
0.00074415496736
0.000733339447013
0.000733354084953
0.000724809791887
0.000724830015894
0.000715370046645
0.000715385400492
0.000706310868837
0.000706247881074
0.00072582869565
0.000725838354931
0.00074881276048
0.000748822437781
0.000726069112135
0.000726075817622
0.000715099599932
0.000713648542678
0.000713443425323
0.000713449276173
0.000712721788554
0.000712726888053
0.000706270515699
0.000706272992227
0.000688527723035
0.000678241492005
0.000666775215551
0.000666775897786
0.000668238160167
0.000668238047094
0.000657511675407
0.000657510251756
0.000667064552673
0.000659083855017
0.000667017012413
0.000667013494157
0.000711010306781
0.000711007712357
0.000747358887166
0.000747356732974
0.00071019544648
0.000662023735346
0.000652318621003
0.000652314831978
0.000691479124541
)
;
        source          uniform 0;
        value           nonuniform List<scalar> 
60
(
794.607734048
794.635412577
794.670481038
794.780019525
794.782841078
794.805840835
794.772762322
794.775003924
794.703993802
794.681416187
794.637854013
794.600716757
794.580921506
794.525371389
794.535382342
794.501134397
794.532697901
794.533088644
794.592795768
794.594384721
794.674389476
794.677096137
794.740155426
794.743218827
794.789180069
794.78331359
794.825582948
794.826886659
794.869288919
794.900235846
794.935805949
794.948223086
794.983181149
794.981954171
795.0158712
795.015512014
795.045711526
795.051572401
795.06884455
795.085552162
795.106892156
795.118686213
795.12732666
795.128577076
795.131297829
795.142127099
795.133893645
795.127512359
795.115510088
795.105603884
795.082948163
795.034298459
795.024869059
794.97968228
794.977545586
794.984783439
795.002440268
795.006137108
795.004692479
794.99068975
)
;
        kappaMethod     solidThermo;
        Tnbr            T.liquid;
        region          solid;
        otherPhase      gas;
    }
    procBoundary0to1
    {
        type            processor;
        value           nonuniform List<scalar> 5(796.109304066 796.01904793 795.848428138 795.616214105 795.322546059);
    }
    procBoundary0to3
    {
        type            processor;
        value           nonuniform List<scalar> 5(795.967013406 795.855396214 795.636917632 795.321445326 794.893737929);
    }
}


// ************************************************************************* //
