/*--------------------------------*- C++ -*----------------------------------*\
| =========                 |                                                 |
| \\      /  F ield         | OpenFOAM: The Open Source CFD Toolbox           |
|  \\    /   O peration     | Version:  2312                                  |
|   \\  /    A nd           | Website:  www.openfoam.com                      |
|    \\/     M anipulation  |                                                 |
\*---------------------------------------------------------------------------*/
FoamFile
{
    version     2.0;
    format      ascii;
    arch        "LSB;label=32;scalar=64";
    class       volScalarField;
    location    "0.575/cooler";
    object      T;
}
// * * * * * * * * * * * * * * * * * * * * * * * * * * * * * * * * * * * * * //

dimensions      [0 0 0 1 0 0 0];

internalField   nonuniform List<scalar> 
187
(
300.000013275
300.000011513
300.000010297
300.000009533
300.000009163
300.000013563
300.000011675
300.000010386
300.000009578
300.000009188
300.000013874
300.000011846
300.00001047
300.00000961
300.000009194
300.000014275
300.000012084
300.0000106
300.000009672
300.000009223
300.00001492
300.000012522
300.000010878
300.000009841
300.000009337
300.000015853
300.000013186
300.000011326
300.00001014
300.000009563
300.000016989
300.000013987
300.000011877
300.000010541
300.000009896
300.000018559
300.000015041
300.000012628
300.00001114
300.000010431
300.000020331
300.00001632
300.000013658
300.00001202
300.000011237
300.000022502
300.000018062
300.000015091
300.000013251
300.000012368
300.000025453
300.000020418
300.000017019
300.000014905
300.000013889
300.000029416
300.000023573
300.000019596
300.000017113
300.000015919
300.000034739
300.00002782
300.000023068
300.00002009
300.000018656
300.000041727
300.0000334
300.000027621
300.000023985
300.000022231
300.000050353
300.000040218
300.000033108
300.000028614
300.000026443
300.000060868
300.00004846
300.000039657
300.000034066
300.00003136
300.000073891
300.000058677
300.000047753
300.000040774
300.000037387
300.000090219
300.000071593
300.000058065
300.000049364
300.000045124
300.000109948
300.000087326
300.00007074
300.000059997
300.00005474
300.000132601
300.000105578
300.00008561
300.000072585
300.000066181
300.000157471
300.000125859
300.000102346
300.000086906
300.000079276
300.0001839
300.000147623
300.000120529
300.000102638
300.000093758
300.000211458
300.000170428
300.000139761
300.00011944
300.000109323
300.000240045
300.000194058
300.000159771
300.000137029
300.000125689
300.000270087
300.000218706
300.000180588
300.000155343
300.000142758
300.000302477
300.000245111
300.000202773
300.000174803
300.000160876
300.000337431
300.000273524
300.00022652
300.000195533
300.000180122
300.000374356
300.000303536
300.000251505
300.000217242
300.000200216
300.000412655
300.000334736
300.000277439
300.000239706
300.000220963
300.000451926
300.000366903
300.000304218
300.00026288
300.000242334
300.00049107
300.000399107
300.000331065
300.000286096
300.00026372
300.000529325
300.000430697
300.000357413
300.000308846
300.000284643
300.000565481
300.000460644
300.000382366
300.000330322
300.000304339
300.000596544
300.000486371
300.000403734
300.00034863
300.000321074
300.000619546
300.000505381
300.000419452
300.000362026
300.000333273
300.000632975
300.000516415
300.00042846
300.000369577
300.000340063
300.000636013
300.000518696
300.000430009
300.000370555
300.000340726
300.000364663
300.000335035
)
;

boundaryField
{
    emptyPatch
    {
        type            empty;
    }
    minY
    {
        type            zeroGradient;
    }
    maxY
    {
        type            zeroGradient;
    }
    maxX
    {
        type            zeroGradient;
    }
    cooler_to_water
    {
        type            compressible::turbulentTemperatureTwoPhaseRadCoupledMixed;
        refValue        nonuniform List<scalar> 
37
(
300.000086527
300.000093537
300.000101891
300.000111042
300.000120071
300.00013076
300.000143637
300.000158958
300.000177761
300.000201954
300.000233114
300.000272847
300.00032316
300.000386133
300.000463689
300.000557841
300.000671244
300.000808136
300.000970113
300.001151095
300.00134288
300.00154344
300.00175726
300.001990298
300.002249451
300.002535468
300.002841225
300.00315545
300.00346801
300.003773321
300.004066371
300.004341499
300.004590621
300.004799565
300.004952726
300.005041333
300.005065117
)
;
        refGradient     uniform 0;
        valueFraction   nonuniform List<scalar> 
37
(
0.0163567005512
0.016356611505
0.0163565200396
0.0163564287915
0.0163563377765
0.0163431362132
0.0163292778706
0.0163247562147
0.0190275719839
0.0182622070537
0.0176943817176
0.0172773222522
0.016973074891
0.0167520706172
0.0165922430544
0.0164839755361
0.0164201173933
0.0163872611475
0.0163722254882
0.0163663372293
0.0163644622014
0.0163644386527
0.0163652972839
0.016366920673
0.0163692250467
0.0163720659654
0.0163748946923
0.016377602719
0.0163794124967
0.0163797941978
0.0163798380911
0.0163799381393
0.0163793608314
0.0163788737927
0.0163792825497
0.016380841097
0.0163832317128
)
;
        source          uniform 0;
        value           nonuniform List<scalar> 
37
(
300.000014467
300.000014864
300.000015305
300.000015847
300.000016629
300.00001772
300.000019045
300.00002084
300.000023306
300.000025757
300.000029103
300.000033594
300.000039603
300.000047462
300.000057173
300.000069017
300.000083651
300.00010193
300.000123971
300.000149203
300.000176794
300.000206062
300.000236657
300.000268574
300.000302348
300.000338871
300.000378243
300.000419695
300.000462472
300.000506086
300.000549375
300.000591501
300.000631138
300.00066511
300.000690244
300.000704912
300.0007083
)
;
        kappaMethod     solidThermo;
        Tnbr            T.liquid;
        region          solid;
        otherPhase      gas;
    }
    procBoundary2to0
    {
        type            processor;
        value           nonuniform List<scalar> 5(300.000013008 300.00001136 300.000010205 300.000009473 300.000009118);
    }
    procBoundary2to3
    {
        type            processor;
        value           nonuniform List<scalar> 6(300.000628982 300.000512315 300.00042392 300.00042392 300.000354241 300.00032495);
    }
}


// ************************************************************************* //
