/*--------------------------------*- C++ -*----------------------------------*\
| =========                 |                                                 |
| \\      /  F ield         | OpenFOAM: The Open Source CFD Toolbox           |
|  \\    /   O peration     | Version:  2312                                  |
|   \\  /    A nd           | Website:  www.openfoam.com                      |
|    \\/     M anipulation  |                                                 |
\*---------------------------------------------------------------------------*/
FoamFile
{
    version     2.0;
    format      ascii;
    arch        "LSB;label=32;scalar=64";
    class       volScalarField;
    location    "0.03/water";
    object      p;
}
// * * * * * * * * * * * * * * * * * * * * * * * * * * * * * * * * * * * * * //

dimensions      [1 -1 -2 0 0 0 0];

internalField   nonuniform List<scalar> 
6000
(
100704.709011
100700.813736
100700.219359
100699.911566
100699.884389
100700.003381
100700.209011
100700.484061
100700.825875
100701.222529
100701.659312
100702.123619
100702.605479
100703.097933
100703.596528
100704.097829
100704.598657
100705.095995
100705.586995
100706.068923
100683.748548
100682.514888
100683.463423
100684.333588
100685.008513
100685.690196
100686.343662
100686.965341
100687.558292
100688.131555
100688.694005
100689.246631
100689.786026
100690.310705
100690.821766
100691.321456
100691.811613
100692.29291
100692.765018
100693.227061
100671.102
100669.743152
100670.548101
100671.486485
100672.179026
100672.898493
100673.624806
100674.320607
100674.975103
100675.593348
100676.182909
100676.747877
100677.288516
100677.804844
100678.298302
100678.772471
100679.23154
100679.678725
100680.115435
100680.54136
100660.469686
100659.791791
100660.476028
100661.051651
100661.398184
100661.813989
100662.289541
100662.786041
100663.284346
100663.780932
100664.267944
100664.73798
100665.189421
100665.623033
100666.03974
100666.441217
100666.830535
100667.211999
100667.588423
100667.959137
100650.341666
100649.99047
100650.806932
100651.174432
100651.238136
100651.364324
100651.564215
100651.823644
100652.127449
100652.453097
100652.776472
100653.0907
100653.398611
100653.701692
100654.000724
100654.296665
100654.590406
100654.883563
100655.178863
100655.477368
100641.745977
100641.294785
100641.911729
100641.967434
100641.620717
100641.308099
100641.136608
100641.141617
100641.25684
100641.37859
100641.490238
100641.609826
100641.744047
100641.893162
100642.057016
100642.235397
100642.427562
100642.632231
100642.848284
100643.075119
100633.25428
100632.26857
100632.484606
100632.103589
100631.306273
100630.670281
100630.35259
100630.314739
100630.312969
100630.20332
100630.08745
100630.014109
100629.9833
100629.991759
100630.036711
100630.115416
100630.224727
100630.360985
100630.52005
100630.697694
100623.009585
100621.244736
100620.700835
100619.815417
100618.854328
100618.411695
100618.454453
100618.663187
100618.619465
100618.342886
100618.097466
100617.924793
100617.813716
100617.757741
100617.751958
100617.791275
100617.870305
100617.983585
100618.125411
100618.289878
100608.694532
100606.354952
100605.432178
100604.489506
100604.017295
100604.335115
100604.991875
100605.468068
100605.500934
100605.294758
100605.144415
100605.059674
100605.026067
100605.038431
100605.092857
100605.185011
100605.310214
100605.463393
100605.639336
100605.832706
100591.744569
100589.254966
100588.474964
100588.040183
100588.284954
100589.208549
100590.200034
100590.860911
100591.128717
100591.229383
100591.371676
100591.54018
100591.724388
100591.923442
100592.136834
100592.363341
100592.601237
100592.848354
100593.102006
100593.358972
100576.470314
100573.88298
100573.085529
100572.980735
100573.525898
100574.487806
100575.465746
100576.168965
100576.633778
100577.033234
100577.468954
100577.905851
100578.331439
100578.744262
100579.144019
100579.530593
100579.9041
100580.264678
100580.612126
100580.94576
100562.256055
100559.723631
100559.265936
100559.482404
100560.084969
100560.924231
100561.809231
100562.501674
100563.034877
100563.566685
100564.1536
100564.748039
100565.328727
100565.888739
100566.42396
100566.931952
100567.41185
100567.863806
100568.288186
100568.685071
100551.116095
100548.427466
100547.65607
100547.797096
100548.292839
100548.994469
100549.763688
100550.386139
100550.854296
100551.325853
100551.876005
100552.461386
100553.05285
100553.637919
100554.20745
100554.754472
100555.274471
100555.764786
100556.223752
100556.650124
100539.72118
100537.156347
100536.797343
100537.080046
100537.60292
100538.273212
100538.998246
100539.571193
100539.937873
100540.25847
100540.653347
100541.103511
100541.581088
100542.074131
100542.573452
100543.069866
100543.554831
100544.020858
100544.462089
100544.874553
100530.001991
100527.390624
100526.969282
100527.195789
100527.67651
100528.278078
100528.94783
100529.461705
100529.724406
100529.897401
100530.125601
100530.412598
100530.734497
100531.082144
100531.451364
100531.83667
100532.229365
100532.61871
100532.995009
100533.351494
100519.358619
100516.721784
100516.617045
100517.010465
100517.538061
100518.156309
100518.854067
100519.389893
100519.627385
100519.727734
100519.853192
100520.025419
100520.224864
100520.444807
100520.685114
100520.944898
100521.219187
100521.499578
100521.777094
100522.044252
100510.031366
100507.21608
100506.85001
100507.136117
100507.611502
100508.232062
100508.926325
100509.444534
100509.630842
100509.656887
100509.695592
100509.777007
100509.880315
100509.997595
100510.128221
100510.270971
100510.423213
100510.581535
100510.741635
100510.898691
100500.654143
100497.538197
100497.026785
100497.221463
100497.685782
100498.336612
100499.045475
100499.547561
100499.680901
100499.635529
100499.595637
100499.596464
100499.614779
100499.639722
100499.668949
100499.701362
100499.735828
100499.772344
100499.810802
100499.850931
100490.686818
100487.521843
100487.284234
100487.430596
100487.881483
100488.55621
100489.268562
100489.747278
100489.82183
100489.691022
100489.555354
100489.460909
100489.382999
100489.30735
100489.229437
100489.148735
100489.066633
100488.984494
100488.90419
100488.829034
100480.91476
100477.774705
100477.588318
100477.652231
100478.134639
100478.848603
100479.572285
100480.022448
100480.017312
100479.778944
100479.528702
100479.321004
100479.12957
100478.939017
100478.744496
100478.5453
100478.343297
100478.141837
100477.944253
100477.755383
100471.155332
100467.65525
100467.732248
100467.88938
100468.408148
100469.164177
100469.885058
100470.267898
100470.156756
100469.794403
100469.423522
100469.096293
100468.783361
100468.469459
100468.150146
100467.825701
100467.499135
100467.175016
100466.85859
100466.555921
100461.670265
100458.067612
100457.900603
100458.044017
100458.562041
100459.347078
100460.038738
100460.321621
100460.093492
100459.606774
100459.124969
100458.685628
100458.254096
100457.815355
100457.366773
100456.912416
100456.458515
100456.010803
100455.576455
100455.162261
100452.167774
100447.781922
100447.842486
100448.050466
100448.420839
100449.242388
100449.903403
100450.08806
100449.74594
100449.141635
100448.554938
100448.003754
100447.450527
100446.882644
100446.301298
100445.714507
100445.131867
100444.562137
100444.013867
100443.495447
100441.654405
100437.528537
100437.44532
100437.585938
100438.059619
100438.942607
100439.582017
100439.655925
100439.174018
100438.421039
100437.696335
100437.000659
100436.297336
100435.578218
100434.849299
100434.122211
100433.408794
100432.720209
100432.067944
100431.461951
100430.95473
100425.805356
100426.8092
100427.360941
100427.554458
100428.515484
100429.110397
100429.01637
100428.336132
100427.373177
100426.450566
100425.553754
100424.651982
100423.744765
100422.844625
100421.967244
100421.126539
100420.335059
100419.605415
100418.946867
100419.472468
100414.91052
100415.521245
100415.96018
100416.647945
100417.738449
100418.304402
100417.991297
100417.017227
100415.746064
100414.532172
100413.351798
100412.189736
100411.057545
100409.974958
100408.960246
100408.026952
100407.185567
100406.445015
100405.808586
100408.219886
100401.879253
100403.669541
100404.830685
100405.529098
100406.80486
100407.142875
100406.285941
100404.682566
100402.881959
100401.216336
100399.657748
100398.20628
100396.876784
100395.684064
100394.637394
100393.739574
100392.989737
100392.383737
100391.911907
100390.988591
100387.3825
100388.753805
100390.284087
100392.243721
100393.515407
100393.378087
100391.403008
100388.832185
100386.530474
100384.533774
100382.812035
100381.352979
100380.146327
100379.179471
100378.433908
100377.886392
100377.514459
100377.296786
100377.210511
100366.136779
100360.949768
100362.929638
100365.549063
100367.093526
100369.481364
100368.941119
100366.492604
100364.230179
100362.615107
100361.458698
100360.671204
100360.189547
100359.962339
100359.946933
100360.107443
100360.409824
100360.822767
100361.321524
100361.882829
100303.088392
100298.838916
100303.708223
100307.401793
100313.01094
100317.979889
100321.189419
100323.663697
100326.288959
100328.777592
100331.041128
100333.141967
100335.118937
100336.989314
100338.7656
100340.458272
100342.074572
100343.615924
100345.081479
100346.470976
100275.372442
100275.658561
100275.73943
100275.744302
100276.915503
100279.524026
100282.57845
100286.62422
100291.93407
100297.612928
100302.88279
100307.564431
100311.742489
100315.498822
100318.895789
100321.981394
100324.793009
100327.362233
100329.709789
100331.85202
100274.825734
100274.803083
100274.788886
100274.770069
100274.742377
100274.718298
100274.963305
100275.904257
100277.924703
100281.279252
100285.713658
100290.519898
100295.138103
100299.428972
100303.391112
100307.041163
100310.39738
100313.477657
100316.295471
100318.861457
100274.150524
100274.136745
100274.130198
100274.125267
100274.117035
100274.10631
100274.128319
100274.289563
100274.91585
100276.308412
100278.637101
100281.865334
100285.586145
100289.330169
100292.91864
100296.315955
100299.51577
100302.515354
100305.309763
100307.891658
100273.522316
100273.513765
100273.514995
100273.519368
100273.521087
100273.520754
100273.550345
100273.654475
100274.028691
100274.849685
100276.211071
100278.183564
100280.698314
100283.462838
100286.241643
100288.956713
100291.586452
100294.116769
100296.531486
100298.811485
100272.799395
100272.804006
100272.83794
100272.863018
100272.871304
100272.883142
100272.898104
100272.984489
100273.28083
100273.885444
100274.833007
100276.135551
100277.775319
100279.63861
100281.588501
100283.554632
100285.50962
100287.437712
100289.322067
100291.142744
100271.43573
100271.443415
100271.838775
100271.957384
100271.793215
100271.66513
100271.669387
100271.796813
100272.106279
100272.619709
100273.29529
100274.135027
100275.151572
100276.319763
100277.58979
100278.911525
100280.258934
100281.618315
100282.976352
100284.317642
100269.082935
100270.190748
100271.293474
100271.664294
100271.219386
100270.692072
100270.421775
100270.458104
100270.699807
100271.100443
100271.522063
100271.948782
100272.415568
100272.979816
100273.66353
100274.429033
100275.247998
100276.105041
100276.989031
100277.888373
100266.538681
100268.721356
100269.868974
100269.949069
100269.052422
100268.22918
100267.846501
100267.904586
100268.168142
100268.547823
100268.827163
100268.947103
100268.99105
100269.112921
100269.364845
100269.704413
100270.10357
100270.550042
100271.036827
100271.557097
100264.025071
100266.508005
100267.803544
100267.434316
100266.038482
100264.892363
100264.376822
100264.390022
100264.619899
100264.931892
100265.079169
100264.968407
100264.726374
100264.559584
100264.512558
100264.540334
100264.620743
100264.747062
100264.917084
100265.128449
100261.669498
100263.902983
100265.085351
100264.267893
100262.547476
100261.136719
100260.421923
100260.314086
100260.460082
100260.661832
100260.669356
100260.357825
100259.875127
100259.460012
100259.156734
100258.92238
100258.739554
100258.604845
100258.518112
100258.479195
100259.509404
100261.003903
100261.913944
100260.753461
100258.732113
100257.02659
100255.988734
100255.687545
100255.724386
100255.789945
100255.656513
100255.154329
100254.446962
100253.800481
100253.267568
100252.807828
100252.405581
100252.057949
100251.764946
100251.52704
100255.217959
100255.999694
100256.789818
100255.541145
100253.476612
100251.698816
100250.386922
100249.916041
100249.894387
100249.893381
100249.696004
100249.07469
100248.206273
100247.393088
100246.696541
100246.076828
100245.51894
100245.02001
100244.580075
100244.199956
100248.709743
100248.87014
100249.417867
100248.292587
100246.356293
100244.71169
100243.349827
100242.783602
100242.743794
100242.734363
100242.524589
100241.868349
100240.9501
100240.079678
100239.318494
100238.628744
100237.997222
100237.422049
100236.904132
100236.445191
100240.065902
100239.927396
100240.804253
100239.8256
100238.045948
100236.486607
100235.140401
100234.512665
100234.457423
100234.456998
100234.252328
100233.621114
100232.733246
100231.892486
100231.150529
100230.470291
100229.83999
100229.25857
100228.72782
100228.250402
100229.891259
100229.205576
100230.501929
100229.977688
100228.403986
100226.986896
100225.82244
100225.22756
100225.227675
100225.25905
100225.085908
100224.516541
100223.715976
100222.966251
100222.303016
100221.690139
100221.1171
100220.583433
100220.091574
100219.644814
100218.527964
100217.318905
100219.111785
100219.005645
100217.749732
100216.505214
100215.53307
100215.17631
100215.272274
100215.35713
100215.238743
100214.7577
100214.082481
100213.463296
100212.916899
100212.409045
100211.930565
100211.481598
100211.065082
100210.684609
100207.571012
100206.083999
100207.729553
100207.807821
100206.75637
100205.6529
100204.913429
100204.747632
100204.921739
100205.044655
100204.960597
100204.567725
100204.029232
100203.555057
100203.141224
100202.756075
100202.391608
100202.048363
100201.729365
100201.438039
100195.285836
100194.535264
100195.921761
100196.212685
100195.474093
100194.616187
100194.144505
100194.170596
100194.391757
100194.521299
100194.459109
100194.140065
100193.732487
100193.398462
100193.114562
100192.852943
100192.606761
100192.376689
100192.16525
100191.975157
100185.410216
100183.872671
100185.289331
100185.451238
100184.671994
100183.890186
100183.541022
100183.615666
100183.821611
100183.936803
100183.874566
100183.608254
100183.320177
100183.111183
100182.944738
100182.79783
100182.664926
100182.546662
100182.444624
100182.360414
100170.036435
100171.032517
100173.711883
100173.996731
100173.530964
100173.043945
100172.874762
100173.022758
100173.228447
100173.337101
100173.260855
100173.046556
100172.868278
100172.766248
100172.701985
100172.657891
100172.630042
100172.618868
100172.624738
100172.647849
100162.751977
100161.391766
100163.309862
100163.770273
100163.266099
100162.766775
100162.54797
100162.622871
100162.76351
100162.803598
100162.680741
100162.506752
100162.412975
100162.394056
100162.415887
100162.464431
100162.536222
100162.630337
100162.745188
100162.878992
100148.298064
100148.902087
100151.841334
100152.422777
100152.377105
100152.098793
100151.96509
100152.022482
100152.113802
100152.088626
100151.956756
100151.856403
100151.855468
100151.927241
100152.04515
100152.197904
100152.381709
100152.593509
100152.829418
100153.085454
100142.360854
100140.133589
100141.29794
100141.896407
100141.655216
100141.224635
100140.917707
100140.846128
100140.858058
100140.837668
100140.818221
100140.883447
100141.040955
100141.261594
100141.526501
100141.82747
100142.160559
100142.521161
100142.903914
100143.303382
100127.108459
100126.321454
100128.346534
100128.745895
100128.969666
100128.700953
100128.507835
100128.563667
100128.745442
100128.96615
100129.233676
100129.576443
100129.981037
100130.426652
100130.90278
100131.405057
100131.930386
100132.474249
100133.031335
100133.59594
100116.002732
100113.707402
100114.400597
100115.747518
100116.067573
100115.882736
100115.874667
100116.164429
100116.609465
100117.119322
100117.686216
100118.314552
100118.983626
100119.676448
100120.386063
100121.10927
100121.843167
100122.583614
100123.325624
100124.063428
100101.771808
100099.181829
100101.421068
100102.999465
100103.393692
100103.442744
100103.747301
100104.313707
100105.012719
100105.780877
100106.608996
100107.488688
100108.395217
100109.313072
100110.236657
100111.163197
100112.089981
100113.013083
100113.927311
100114.826604
100090.9843
100088.617396
100091.052194
100092.200417
100092.416915
100092.530132
100092.941748
100093.619014
100094.451316
100095.37763
100096.379605
100097.435018
100098.512485
100099.596186
100100.680993
100101.764003
100102.842066
100103.91066
100104.964085
100105.995809
100082.503451
100080.708542
100082.415834
100083.100684
100083.198236
100083.298679
100083.680718
100084.337835
100085.167896
100086.131382
100087.20319
100088.341451
100089.50593
100090.679385
100091.856453
100093.033719
100094.207251
100095.371866
100096.521186
100097.647596
100074.617177
100073.645977
100075.285613
100075.74356
100075.722886
100075.720847
100075.976649
100076.506144
100077.217306
100078.091503
100079.117428
100080.240228
100081.407083
100082.595201
100083.797278
100085.008628
100086.224082
100087.437278
100088.640272
100089.823791
100068.094888
100067.205404
100068.814808
100069.210976
100069.129276
100069.056929
100069.213708
100069.629962
100070.228908
100070.989936
100071.924734
100072.984467
100074.10872
100075.268163
100076.453383
100077.658782
100078.878159
100080.103896
100081.326647
100082.535734
100062.127834
100061.106158
100062.606328
100062.990812
100062.904519
100062.812281
100062.929405
100063.293418
100063.839062
100064.526792
100065.38365
100066.38003
100067.456504
100068.577901
100069.732652
100070.914983
100072.118576
100073.335512
100074.556004
100075.76878
100056.748173
100055.523179
100056.759438
100057.142294
100057.059249
100056.961286
100057.066023
100057.406967
100057.924873
100058.569487
100059.36672
100060.307664
100061.340535
100062.425976
100063.549397
100064.704628
100065.8855
100067.084286
100068.291369
100069.495456
100051.990369
100050.591861
100051.387656
100051.704749
100051.609866
100051.5065
100051.605831
100051.935721
100052.436092
100053.053616
100053.806772
100054.70173
100055.696902
100056.750616
100057.845413
100058.974563
100060.131962
100061.310063
100062.499455
100063.688959
100046.683054
100045.411637
100046.474061
100046.774869
100046.631078
100046.495137
100046.573107
100046.880747
100047.358096
100047.951224
100048.669735
100049.527652
100050.491904
100051.519179
100052.589165
100053.694679
100054.82982
100055.987171
100057.157411
100058.329469
100041.667732
100040.527844
100041.805262
100042.128646
100041.966672
100041.810031
100041.873373
100042.169147
100042.638125
100043.223333
100043.92616
100044.763375
100045.707822
100046.716417
100047.766872
100048.851951
100049.966159
100051.102579
100052.252266
100053.404444
100037.502973
100036.363135
100037.66713
100037.989562
100037.802408
100037.606286
100037.632676
100037.902032
100038.353122
100038.924897
100039.612187
100040.431279
100041.357846
100042.349156
100043.381158
100044.445745
100045.537792
100046.651061
100047.777195
100048.905947
100034.076215
100032.868089
100034.038269
100034.340745
100034.136273
100033.904518
100033.892158
100034.1272
100034.551161
100035.100927
100035.765523
100036.560299
100037.463209
100038.43151
100039.439442
100040.478381
100041.543515
100042.628873
100043.726554
100044.826895
100031.291477
100029.991304
100030.804744
100031.056718
100030.852876
100030.614854
100030.590586
100030.811908
100031.219867
100031.752018
100032.392627
100033.157248
100034.028238
100034.964865
100035.940416
100036.94616
100037.977427
100039.028427
100040.091598
100041.157706
100028.163
100027.064973
100028.150251
100028.395117
100028.147451
100027.87322
100027.820253
100028.015281
100028.39491
100028.897144
100029.499989
100030.218922
100031.043454
100031.936943
100032.870825
100033.83535
100034.82547
100035.835594
100036.858268
100037.884483
100025.52342
100024.537398
100025.827289
100026.09152
100025.823388
100025.524447
100025.447047
100025.619311
100025.975597
100026.448568
100027.014409
100027.68678
100028.463867
100029.311872
100030.20075
100031.120164
100032.065072
100033.029933
100034.007618
100034.989414
100023.605765
100022.56447
100023.882617
100024.149665
100023.873318
100023.548994
100023.442048
100023.585141
100023.91154
100024.356196
100024.887965
100025.519499
100026.253685
100027.057763
100027.90177
100028.775089
100029.672984
100030.590088
100031.519722
100032.453563
100022.324218
100021.151135
100022.295169
100022.54894
100022.27595
100021.933469
100021.793791
100021.902538
100022.19837
100022.613167
100023.110837
100023.703822
100024.396085
100025.157019
100025.956109
100026.78241
100027.631402
100028.498356
100029.376834
100030.259166
100021.523473
100020.178671
100020.944357
100021.162002
100020.906019
100020.570727
100020.425238
100020.520911
100020.799633
100021.19271
100021.66441
100022.224807
100022.879118
100023.598183
100024.35177
100025.129267
100025.926658
100026.739824
100027.563127
100028.389606
100020.251101
100019.080672
100020.126535
100020.34194
100020.047455
100019.679429
100019.50239
100019.564494
100019.807856
100020.165183
100020.597171
100021.112286
100021.717418
100022.385228
100023.085486
100023.807382
100024.547037
100025.300641
100026.06308
100026.827946
100019.521245
100018.449926
100019.690559
100019.89297
100019.570117
100019.171823
100018.962273
100018.990534
100019.197733
100019.515319
100019.899929
100020.359163
100020.903778
100021.509767
100022.147008
100022.804406
100023.478127
100024.164514
100024.85866
100025.554772
100019.45825
100018.300512
100019.542065
100019.740595
100019.417299
100019.004167
100018.764562
100018.757002
100018.924872
100019.198702
100019.53144
100019.930121
100020.4086
100020.946048
100021.512972
100022.098179
100022.698005
100023.309012
100023.926924
100024.546515
100019.948884
100018.623354
100019.692678
100019.888559
100019.583831
100019.164772
100018.892654
100018.842071
100018.962487
100019.185437
100019.461727
100019.795008
100020.201696
100020.664527
100021.154548
100021.660498
100022.178921
100022.706907
100023.240659
100023.775776
100020.849632
100019.352832
100020.074449
100020.225101
100019.932339
100019.518641
100019.235057
100019.15788
100019.241698
100019.421963
100019.646024
100019.915299
100020.24894
100020.633391
100021.041154
100021.461331
100021.891078
100022.328213
100022.769738
100023.212119
100021.159193
100019.910196
100020.897124
100021.017966
100020.684129
100020.23787
100019.915715
100019.789443
100019.818122
100019.938929
100020.096057
100020.288634
100020.537195
100020.832288
100021.147779
100021.472671
100021.804416
100022.141375
100022.481494
100022.822192
100021.905918
100020.76919
100021.93158
100022.053181
100021.696488
100021.219513
100020.854888
100020.677939
100020.649474
100020.706322
100020.788954
100020.892736
100021.041785
100021.233735
100021.444231
100021.662016
100021.884602
100022.110734
100022.339103
100022.568301
100023.140984
100021.962946
100023.118207
100023.242167
100022.88357
100022.385236
100021.982025
100021.756836
100021.672548
100021.664648
100021.668033
100021.674045
100021.713152
100021.791203
100021.885757
100021.985458
100022.088037
100022.192768
100022.299154
100022.406906
100024.840813
100023.502857
100024.445698
100024.563388
100024.212038
100023.700981
100023.261431
100022.983691
100022.838269
100022.760846
100022.677773
100022.577027
100022.496746
100022.450944
100022.419422
100022.390779
100022.363097
100022.336373
100022.311123
100022.288221
100026.931356
100025.305418
100025.842703
100025.916859
100025.572585
100025.063148
100024.603094
100024.28557
100024.086088
100023.935855
100023.757729
100023.542315
100023.333262
100023.153585
100022.985822
100022.818725
100022.650904
100022.483263
100022.317495
100022.155784
100028.325733
100026.713182
100027.448774
100027.504748
100027.106292
100026.553861
100026.051628
100025.674676
100025.395288
100025.147549
100024.858959
100024.512562
100024.158256
100023.83085
100023.515132
100023.199363
100022.882373
100022.565799
100022.252432
100021.945773
100029.732865
100028.072465
100028.950183
100028.984869
100028.534613
100027.948472
100027.408529
100026.972312
100026.615936
100026.278883
100025.875289
100025.384241
100024.87324
100024.388649
100023.917007
100023.446076
100022.97475
100022.505184
100022.041103
100021.587216
100031.153424
100029.300497
100030.133484
100030.133004
100029.65816
100029.06133
100028.495084
100028.013621
100027.596254
100027.170019
100026.64556
100026.012582
100025.348086
100024.708416
100024.082564
100023.458238
100022.834602
100022.214428
100021.60241
100021.004396
100032.265248
100030.134841
100030.734279
100030.706954
100030.248908
100029.677046
100029.122084
100028.627365
100028.165193
100027.661758
100027.034452
100026.270463
100025.460285
100024.67477
100023.903758
100023.134912
100022.367723
100021.605621
100020.854293
100020.120688
100032.813428
100030.460401
100030.675026
100030.610066
100030.179959
100029.661743
100029.160281
100028.688361
100028.20925
100027.654094
100026.933206
100026.041494
100025.097638
100024.181401
100023.279883
100022.380921
100021.484289
100020.594208
100019.717489
100018.862312
100032.128768
100029.841797
100030.232473
100030.145226
100029.682666
100029.160665
100028.67346
100028.195391
100027.673839
100027.040616
100026.211437
100025.203152
100024.150726
100023.126984
100022.115819
100021.106403
100020.0998
100019.101658
100018.11978
100017.163109
100030.728628
100028.44353
100028.962011
100028.881495
100028.402826
100027.879779
100027.403143
100026.920561
100026.365383
100025.674602
100024.772062
100023.682562
100022.545078
100021.433174
100020.333121
100019.235813
100018.143566
100017.062199
100015.999571
100014.965069
100028.526343
100026.174603
100026.679899
100026.619844
100026.157316
100025.652523
100025.19744
100024.730509
100024.175217
100023.465547
100022.525144
100021.383231
100020.186569
100019.013113
100017.852645
100016.697214
100015.548849
100014.413044
100013.298139
100012.214196
100025.420024
100022.983171
100023.344271
100023.305626
100022.884906
100022.415815
100021.992324
100021.551921
100021.010552
100020.303193
100019.3548
100018.195154
100016.973896
100015.774905
100014.590902
100013.413858
100012.24541
100011.091465
100009.960683
100008.863333
100021.37649
100018.821772
100018.885919
100018.826397
100018.451651
100018.035957
100017.66654
100017.274402
100016.767488
100016.08796
100015.166758
100014.028804
100012.822579
100011.639194
100010.474598
100009.319693
100008.175935
100007.048768
100005.94648
100004.879014
100015.570417
100013.02231
100013.251361
100013.203109
100012.836541
100012.448049
100012.121021
100011.775461
100011.319607
100010.704267
100009.856435
100008.790804
100007.651536
100006.537283
100005.446796
100004.369276
100003.304678
100002.257537
100001.235305
100000.247129
100008.185826
100005.655627
100006.042622
100006.053492
100005.720356
100005.376082
100005.116353
100004.862468
100004.518979
100004.032888
100003.325506
100002.402558
100001.402057
100000.42806
99999.4803087
99998.546148
99997.6242297
99996.7178563
99995.8332729
99994.9786843
99999.3435737
99996.7979991
99997.2609443
99997.354767
99997.098798
99996.8339281
99996.6824214
99996.5718216
99996.3906704
99996.0875502
99995.5851461
99994.8770642
99994.0940944
99993.3372019
99992.6053937
99991.8844502
99991.1719287
99990.4695469
99989.7823498
99989.1173851
99989.0614827
99986.5366826
99987.0240115
99987.2386316
99987.1060659
99986.9568839
99986.9498749
99987.0215006
99987.0490512
99986.9843994
99986.7492768
99986.3292251
99985.8375842
99985.3688988
99984.9218892
99984.4802683
99984.0399339
99983.6012895
99983.1678326
99982.7451905
99978.0279229
99975.5203864
99975.8521345
99976.10681
99976.0682503
99976.0308797
99976.1695034
99976.4373815
99976.7057203
99976.9232943
99977.0107395
99976.9403395
99976.8047554
99976.6895604
99976.589758
99976.4865646
99976.3740815
99976.2510418
99976.1193718
99975.9831047
99966.3736703
99963.8191014
99964.2614156
99964.4905174
99964.4680857
99964.482392
99964.7212072
99965.1609744
99965.669515
99966.1860253
99966.628544
99966.9567945
99967.2359978
99967.5318385
99967.8318647
99968.1147383
99968.3730755
99968.6041281
99968.8084158
99968.988731
99953.4806162
99950.9592949
99951.6411362
99952.0234381
99952.1241098
99952.255946
99952.6618904
99953.3495104
99954.1750401
99955.0604966
99955.926323
99956.7173799
99957.4656568
99958.2151213
99958.9479911
99959.6423895
99960.2911632
99960.8916025
99961.4438415
99961.950075
99939.679143
99937.3922223
99938.536917
99939.2857908
99939.6486368
99940.0032524
99940.6627396
99941.6746355
99942.8804648
99944.1829407
99945.5003205
99946.763267
99947.979627
99949.1729365
99950.3232297
99951.41034
99952.4291361
99953.3783078
99954.2585285
99955.0719975
99927.7490111
99925.7727876
99927.2108857
99928.258496
99928.8379679
99929.3721802
99930.2134497
99931.4475256
99932.9189794
99934.518195
99936.1602016
99937.7766491
99939.3528419
99940.8917664
99942.3710366
99943.7717277
99945.090095
99946.3255663
99947.4787351
99948.5512338
99921.354719
99919.1498905
99920.1025814
99920.9127348
99921.3590505
99921.8055112
99922.564678
99923.73067
99925.1764423
99926.8008921
99928.5245428
99930.2779641
99932.0215654
99933.7391782
99935.4042174
99936.9952524
99938.5067767
99939.9364609
99941.2828451
99942.5453884
99918.1905987
99915.6857582
99916.2759611
99916.659396
99916.7972614
99916.9922248
99917.4988608
99918.3947305
99919.5979034
99921.0388026
99922.6465464
99924.3447083
99926.0775437
99927.8164826
99929.5294925
99931.1895528
99932.787085
99934.3162777
99935.7722734
99937.1512082
99915.9182864
99913.253748
99913.618888
99913.737509
99913.6538112
99913.6409761
99913.9186189
99914.5494262
99915.490968
99916.7068046
99918.1327972
99919.6923759
99921.3259682
99922.998177
99924.6729501
99926.3187959