/*--------------------------------*- C++ -*----------------------------------*\
| =========                 |                                                 |
| \\      /  F ield         | OpenFOAM: The Open Source CFD Toolbox           |
|  \\    /   O peration     | Version:  2312                                  |
|   \\  /    A nd           | Website:  www.openfoam.com                      |
|    \\/     M anipulation  |                                                 |
\*---------------------------------------------------------------------------*/
FoamFile
{
    version     2.0;
    format      ascii;
    arch        "LSB;label=32;scalar=64";
    class       volScalarField;
    location    "0.045/water";
    object      p;
}
// * * * * * * * * * * * * * * * * * * * * * * * * * * * * * * * * * * * * * //

dimensions      [1 -1 -2 0 0 0 0];

internalField   nonuniform List<scalar> 
1497
(
100311.902778
100312.293681
100312.601113
100312.853616
100313.081694
100313.258584
100313.383385
100313.50887
100313.66301
100313.831576
100314.006489
100314.18545
100314.366756
100308.047721
100305.642421
100306.304144
100306.387424
100306.313503
100306.33399
100306.594664
100306.997388
100307.370256
100307.650643
100307.871774
100308.069497
100308.216023
100308.301156
100308.377343
100308.48449
100308.610252
100308.743954
100308.883567
100309.027347
100303.62268
100300.936896
100301.260904
100301.313823
100301.265211
100301.323375
100301.620061
100302.046131
100302.423208
100302.692719
100302.891689
100303.062649
100303.18194
100303.228545
100303.260361
100303.325318
100303.410808
100303.505592
100303.607352
100303.71493
100298.017727
100295.518662
100296.148831
100296.229775
100296.202628
100296.291897
100296.617383
100297.059951
100297.437739
100297.694149
100297.870003
100298.015186
100298.106794
100298.121603
100298.118846
100298.147978
100298.198383
100298.259642
100298.328756
100298.404877
100292.419658
100290.028176
100290.876558
100291.007259
100291.013276
100291.133844
100291.486302
100291.947417
100292.333077
100292.58337
100292.744646
100292.87488
100292.951107
100292.946014
100292.918505
100292.921306
100292.945632
100292.981233
100293.025512
100293.077254
100287.033769
100284.647071
100285.505073
100285.673953
100285.710235
100285.851725
100286.21984
100286.694222
100287.086018
100287.332603
100287.486113
100287.610739
100287.682524
100287.67067
100287.632601
100287.623184
100287.634017
100287.654876
100287.683586
100287.719374
100281.917668
100279.375918
100280.065675
100280.252031
100280.309998
100280.463469
100280.839131
100281.321755
100281.715884
100281.960814
100282.111303
100282.236033
100282.309658
100282.300295
100282.263978
100282.254234
100282.26226
100282.278129
100282.300017
100282.327632
100276.984346
100274.189641
100274.541914
100274.695509
100274.76668
100274.933873
100275.323775
100275.825356
100276.236166
100276.493411
100276.651441
100276.78361
100276.864906
100276.864997
100276.838136
100276.834416
100276.845237
100276.861557
100276.882
100276.906329
100270.818505
100268.281933
100268.962121
100269.167899
100269.268214
100269.455419
100269.852622
100270.35961
100270.777426
100271.033981
100271.189117
100271.320162
100271.40324
100271.409149
100271.389106
100271.389672
100271.402691
100271.419804
100271.439785
100271.462462
100264.913009
100262.546087
100263.426681
100263.683796
100263.814109
100264.024919
100264.432479
100264.942591
100265.356859
100265.602047
100265.744882
100265.866802
100265.945084
100265.950389
100265.93095
100265.931276
100265.943704
100265.960097
100265.978962
100266.000265
100259.22517
100256.936619
100257.883739
100258.194394
100258.354872
100258.589892
100259.009774
100259.522948
100259.927592
100260.158532
100260.285657
100260.396013
100260.467931
100260.471257
100260.45137
100260.451351
100260.463724
100260.480285
100260.49925
100260.520336
100254.135415
100251.676227
100252.38727
100252.688947
100252.860133
100253.106739
100253.525931
100254.03137
100254.42808
100254.64626
100254.760822
100254.863979
100254.934647
100254.944083
100254.93248
100254.939312
100254.957322
100254.978379
100255.000784
100255.023956
100249.077114
100246.331177
100246.708086
100246.995439
100247.179485
100247.439553
100247.862669
100248.373268
100248.78077
100249.006722
100249.131411
100249.247872
100249.340078
100249.373844
100249.382771
100249.405064
100249.434577
100249.463786
100249.491606
100249.517877
100242.94296
100240.404746
100241.040574
100241.376298
100241.579506
100241.855741
100242.267024
100242.757588
100243.152408
100243.376922
100243.512206
100243.649893
100243.767698
100243.823986
100243.851765
100243.887521
100243.925593
100243.959356
100243.988524
100244.013876
100236.965076
100234.627619
100235.546183
100235.974955
100236.187673
100236.474385
100236.868685
100237.330909
100237.70682
100237.921464
100238.059037
100238.200824
100238.317129
100238.374971
100238.403442
100238.434811
100238.465327
100238.489418
100238.507589
100238.521516
100232.140294
100229.803047
100230.697559
100231.150476
100231.32901
100231.591629
100231.936074
100232.330985
100232.643117
100232.80428
100232.897048
100232.99481
100233.072987
100233.095595
100233.084134
100233.075903
100233.070011
100233.060943
100233.049378
100233.037223
100228.156096
100225.516644
100226.211797
100226.690325
100226.868029
100227.116773
100227.407212
100227.713197
100227.928712
100227.997996
100228.004314
100228.022556
100228.024516
100227.96239
100227.864449
100227.77905
100227.706889
100227.641634
100227.583324
100227.533205
100224.273961
100221.308579
100221.687586
100222.168083
100222.373025
100222.646364
100222.920543
100223.169218
100223.301566
100223.272586
100223.176019
100223.092074
100222.988401
100222.815147
100222.609537
100222.428772
100222.277471
100222.148393
100222.040318
100221.953134
100218.828901
100216.04546
100216.743739
100217.348561
100217.624778
100217.985675
100218.27575
100218.467146
100218.499136
100218.350117
100218.129743
100217.929066
100217.713273
100217.428286
100217.115618
100216.848194
100216.632956
100216.459398
100216.323263
100216.221748
100212.64136
100209.835908
100210.741042
100211.535435
100211.950061
100212.482513
100212.812944
100212.957075
100212.90437
100212.66254
100212.355583
100212.084628
100211.806366
100211.459701
100211.098206
100210.810225
100210.59629
100210.440122
100210.332991
100210.268553
100204.700603
100201.586627
100202.512898
100203.607838
100204.219326
100204.96171
100205.368252
100205.554682
100205.535545
100205.347745
100205.118817
100204.945316
100204.766706
100204.5189
100204.274716
100204.118531
100204.035916
100204.006965
100204.020786
100204.069678
100193.898502
100190.5409
100191.21602
100192.705383
100193.545116
100194.413847
100194.945701
100195.385125
100195.690716
100195.874896
100196.041556
100196.252788
100196.438265
100196.544983
100196.654203
100196.820682
100197.019567
100197.236192
100197.464147
100197.699546
100182.428638
100178.798293
100178.842098
100180.54219
100181.294232
100182.195207
100182.927599
100183.796164
100184.667551
100185.456441
100186.200499
100186.931518
100187.611092
100188.218659
100188.803174
100189.375385
100189.915771
100190.422394
100190.898209
100191.345802
100173.729977
100170.582356
100171.040366
100172.979461
100173.325647
100173.942559
100174.401435
100175.139842
100176.076916
100177.037427
100177.983952
100178.918812
100179.833237
100180.732231
100181.618595
100182.46075
100183.240929
100183.961656
100184.628385
100185.244844
100168.746161
100166.049647
100166.858278
100168.33419
100168.30429
100168.795499
100169.0303
100169.474208
100170.185469
100170.998556
100171.854457
100172.734239
100173.633096
100174.564356
100175.513342
100176.43136
100177.295985
100178.106099
100178.862948
100179.567038
100165.30001
100162.787891
100163.670683
100164.668113
100164.638496
100164.970293
100165.06115
100165.283071
100165.769941
100166.391939
100167.086346
100167.828768
100168.615271
100169.463212
100170.352596
100171.231534
100172.075154
100172.878897
100173.640744
100174.358306
100162.291109
100159.716213
100160.505002
100161.299339
100161.27079
100161.448491
100161.550869
100161.701219
100162.070144
100162.560577
100163.118167
100163.724
100164.376608
100165.102274
100165.884978
100166.67327
100167.441637
100168.18424
100168.898097
100169.579284
100159.550764
100156.786499
100157.314707
100158.02826
100158.001153
100158.039342
100158.175849
100158.32645
100158.654264
100159.075661
100159.547899
100160.064532
100160.61773
100161.228556
100161.895119
100162.57749
100163.250594
100163.907825
100164.546674
100165.163146
100155.951159
100153.371593
100154.210569
100154.908479
100154.875496
100154.835347
100155.069506
100155.223612
100155.503425
100155.856714
100156.254951
100156.696807
100157.167282
100157.675919
100158.23202
100158.809062
100159.383159
100159.947774
100160.500837
100161.039036
100152.8831
100150.363477
100151.450239
100152.062883
100152.041767
100152.013369
100152.368589
100152.469526
100152.668779
100152.937352
100153.245612
100153.593545
100153.964469
100154.364781
100154.808949
100155.278375
100155.750813
100156.220069
100156.68342
100157.137867
100150.214877
100147.591351
100148.760581
100149.302266
100149.28591
100149.26776
100149.738416
100149.79579
100149.942219
100150.145762
100150.374235
100150.637022
100150.914628
100151.209752
100151.542923
100151.905541
100152.277578
100152.651922
100153.025887
100153.39642
100147.714158
100144.882124
100145.930721
100146.482371
100146.462567
100146.441448
100146.994911
100147.040699
100147.152548
100147.307254
100147.478243
100147.680335
100147.890144
100148.101471
100148.340012
100148.609622
100148.892274
100149.18006
100149.470861
100149.762197
100145.411305
100142.28689
100142.981361
100143.590484
100143.571142
100143.551558
100144.141498
100144.179227
100144.259203
100144.374207
100144.503811
100144.662102
100144.822264
100144.971352
100145.137957
100145.333507
100145.542027
100145.756117
100145.973934
100146.193958
100141.977338
100138.953527
100139.875541
100140.636313
100140.615369
100140.595444
100141.256371
100141.291124
100141.32828
100141.396887
100141.483805
100141.599777
100141.71426
100141.81055
100141.918101
100142.0516
100142.196918
100142.347444
100142.501573
100142.658414
100138.713873
100135.650556
100136.719689
100137.610604
100137.589224
100137.56993
100138.290032
100138.327078
100138.325642
100138.355003
100138.407289
100138.488275
100138.563252
100138.613264
100138.668618
100138.746887
100138.835873
100138.929677
100139.027029
100139.12752
100135.612482
100132.371339
100133.440539
100134.507398
100134.485615
100134.467677
100135.25425
100135.283036
100135.241443
100135.235267
100135.259914
100135.313052
100135.354731
100135.363396
100135.371054
100135.399015
100135.43694
100135.479585
100135.52604
100135.576367
100132.498394
100129.031722
100129.92001
100131.295359
100131.274617
100131.259875
100132.144883
100132.148708
100132.066313
100132.027026
100132.027351
100132.056517
100132.068617
100132.038704
100132.001781
100131.983563
100131.975242
100131.972171
100131.973772
100131.980545
100129.560013
100125.6813
100126.198368
100127.925589
100127.906106
100127.894513
100128.900831
100128.857315
100128.746991
100128.686959
100128.671648
100128.684078
100128.671928
100128.606985
100128.529637
100128.470359
100128.421618
100128.379495
100128.34376
100128.31524
100314.543474
100314.707148
100314.854529
100314.984753
100315.098787
100315.198386
100315.285237
100315.361453
100315.428247
100315.485379
100315.533507
100315.573875
100315.607382
100315.634817
100315.656616
100315.670548
100315.673589
100315.668471
100315.663315
100315.66507
100309.169323
100309.302318
100309.423349
100309.531189
100309.626234
100309.709706
100309.782882
100309.84737
100309.904186
100309.953012
100309.994274
100310.029004
100310.057937
100310.081723
100310.100659
100310.112337
100310.113559
100310.107082
100310.100979
100310.103146
100303.823472
100303.927041
100304.022829
100304.109256
100304.186178
100304.254294
100304.314453
100304.367818
100304.415174
100304.456123
100304.490881
100304.520281
100304.544911
100304.565293
100304.581591
100304.591223
100304.590864
100304.583178
100304.576265
100304.57786
100298.484153
100298.561836
100298.635308
100298.702721
100298.763511
100298.817932
100298.866445
100298.909864
100298.948751
100298.982641
100299.01157
100299.036197
100299.056977
100299.074321
100299.088267
100299.096091
100299.094309
100299.085595
100299.078055
100299.079263
100293.133497
100293.190524
100293.245973
100293.29787
100293.345382
100293.388451
100293.427255
100293.462341
100293.494099
100293.522019
100293.546005
100293.566568
100293.584056
100293.598783
100293.610684
100293.61692
100293.613914
100293.604311
100293.596239
100293.597105
100287.759873
100287.802259
100287.844584
100287.884941
100287.922407
100287.956765
100287.988034
100288.01658
100288.042683
100288.065831
100288.085845
100288.103123
100288.117935
100288.130525
100288.140744
100288.145668
100288.141644
100288.131342
100288.12286
100288.123416
100282.359062
100282.392334
100282.42606
100282.458572
100282.489007
100282.517126
100282.542899
100282.566593
100282.588441
100282.607963
100282.624939
100282.639689
100282.652435
100282.663368
100282.672278
100282.676179
100282.671365
100282.660542
100282.65176
100282.652036
100276.933148
100276.961191
100276.989633
100277.017091
100277.042825
100277.066652
100277.088553
100277.108767
100277.127521
100277.144385
100277.159114
100277.171978
100277.183167
100277.192843
100277.200742
100277.203841
100277.198408
100277.187198
100277.178211
100277.178243
100271.486664
100271.511537
100271.536643
100271.560798
100271.583363
100271.60422
100271.623387
100271.641102
100271.657618
100271.672548
100271.685633
100271.697108
100271.707148
100271.715893
100271.723043
100271.725547
100271.71965
100271.708179
100271.699058
100271.698866
100266.022677
100266.045466
100266.06837
100266.090296
100266.110664
100266.129415
100266.146603
100266.162495
100266.177368
100266.190873
100266.202735
100266.21317
100266.22234
100266.230375
100266.236941
100266.238971
100266.232706
100266.22104
100266.211833
100266.211439
100260.542116
100260.56389
100260.585523
100260.606015
100260.624868
100260.642092
100260.657794
100260.672306
100260.685914
100260.698305
100260.709212
100260.718828
100260.727314
100260.734792
100260.7409
100260.74256
100260.736008
100260.72421
100260.71495
100260.714362
100255.046605
100255.068366
100255.089376
100255.108898
100255.126576
100255.142543
100255.156999
100255.170285
100255.182752
100255.194138
100255.204185
100255.213069
100255.220945
100255.22793
100255.233633
100255.234972
100255.228174
100255.216274
100255.206975
100255.206191
100249.541539
100249.562919
100249.582842
100249.600907
100249.616986
100249.631356
100249.644308
100249.656182
100249.66736
100249.677635
100249.686756
100249.694873
100249.702127
100249.708621
100249.713932
100249.714972
100249.707964
100249.695979
100249.686647
100249.68566
100244.035031
100244.052994
100244.069321
100244.083934
100244.096927
100244.108593
100244.119221
100244.129135
100244.138651
100244.147559
100244.155587
100244.162836
100244.169412
100244.175397
100244.180323
100244.181099
100244.17392
100244.161888
100244.152533
100244.151312
100238.531882
100238.540417
100238.548727
100238.556811
100238.564575
100238.572082
100238.579418
100238.586735
100238.594223
100238.601572
100238.608429
100238.614805
100238.620746
100238.626285
100238.630902
100238.631503
100238.624257
100238.612237
100238.602892
100238.601423
100233.025949
100233.017763
100233.013467
100233.01222
100233.01312
100233.015637
100233.019383
100233.024149
100233.029797
100233.035891
100233.041936
100233.047814
100233.053483
100233.058915
100233.063528
100233.064237
100233.057161
100233.045341
100233.036103
100233.034359
100227.492823
100227.46392
100227.445508
100227.43483
100227.42968
100227.428521
100227.430223
100227.434043
100227.43943
100227.445701
100227.452224
100227.45874
100227.465112
100227.471253
100227.47653
100227.477895
100227.471447
100227.46014
100227.451201
100227.449212
100221.887462
100221.84321
100221.816573
100221.80239
100221.796874
100221.797275
100221.801635
100221.808638
100221.817397
100221.826975
100221.836625
100221.845994
100221.854895
100221.863229
100221.870356
100221.873319
100221.868226
100221.857968
100221.849649
100221.84748
100216.152953
100216.113222
100216.095364
100216.092202
100216.098606
100216.110893
100216.126559
100216.143969
100216.162086
100216.179956
100216.196838
100216.212406
100216.226536
100216.239206
100216.249849
100216.25569
100216.252923
100216.244405
100216.237145
100216.234943
100210.241008
100210.242053
100210.261918
100210.292954
100210.329827
100210.368889
100210.407862
100210.445399
100210.480756
100210.513292
100210.542535
100210.568411
100210.591029
100210.610582
100210.626698
100210.636884
100210.637528
100210.631528
100210.625821
100210.623791
100204.144564
100204.233429
100204.326864
100204.419553
100204.508052
100204.590335
100204.6655
100204.733354
100204.79407
100204.84774
100204.894472
100204.934697
100204.968967
100204.997843
100205.021269
100205.037149
100205.042154
100205.039374
100205.035674
100205.034054
100197.932684
100198.150448
100198.347644
100198.524386
100198.681267
100198.819444
100198.94049
100199.046144
100199.138107
100199.217545
100199.285366
100199.342722
100199.390769
100199.430564
100199.462465
100199.484831
100199.494741
100199.49555
100199.494129
100199.493151
100191.756067
100192.116199
100192.426816
100192.694562
100192.924702
100193.122226
100193.291616
100193.436863
100193.561403
100193.667556
100193.757127
100193.832064
100193.894182
100193.945072
100193.985523
100194.014356
100194.029053
100194.033412
100194.03426
100194.034067
100185.799693
100186.278375
100186.6848
100187.03024
100187.323353
100187.572147
100187.783451
100187.963165
100188.116078
100188.245509
100188.354027
100188.444261
100188.518591
100188.579066
100188.626847
100188.661123
100188.679798
100188.687088
100188.689861
100188.69051
100180.202786
100180.751775
100181.217526
100181.612676
100181.947217
100182.230453
100182.470365
100182.67386
100182.846568
100182.992403
100183.114336
100183.215422
100183.298419
100183.365684
100183.41862
100183.45665
100183.477944
100183.487234
100183.491343
100183.492746
100175.012824
100175.5825
100176.068668
100176.482724
100176.834208
100177.132282
100177.385016
100177.599453
100177.781571
100177.935384
100178.063908
100178.170351
100178.257619
100178.328199
100178.383581
100178.423254
100178.445582
100178.455662
100178.460371
100178.462391
100170.20786
100170.760392
100171.235775
100171.643038
100171.9902
100172.285556
100172.536602
100172.750047
100172.93168
100173.085309
100173.213767
100173.320176
100173.407401
100173.477902
100173.533117
100173.572459
100173.594282
100173.604078
100173.608677
100173.611092
100165.737991
100166.248116
100166.690655
100167.072242
100167.399006
100167.678051
100167.915951
100168.118778
100168.2918
100168.438466
100168.561277
100168.6631
100168.746613
100168.814127
100168.866917
100168.904205
100168.924264
100168.93279
100168.936664
100168.939283
100161.545021
100161.997544
100162.393063
100162.736297
100163.031708
100163.285021
100163.501727
100163.687008
100163.845508
100163.980216
100164.093238
100164.187082
100164.264149
100164.326522
100164.37524
100164.409262
100164.426639
100164.433256
100164.435964
100164.438577
100157.568381
100157.956098
100158.297206
100158.595023
100158.852763
100159.07475
100159.265379
100159.428834
100159.569111
100159.688678
100159.789238
100159.8729
100159.941733
100159.997544
100160.041092
100160.071042
100160.085188
100160.089453
100160.090709
100160.093161
100153.750688
100154.072273
100154.357003
100154.607095
100154.824741
100155.013038
100155.175357
100155.315026
100155.435258
100155.538081
100155.624804
100155.697136
100155.7568
100155.805313
100155.843141
100155.868649
100155.879317
100155.881074
100155.880755
100155.882902
100150.043523
100150.301183
100150.531029
100150.734276
100150.912117
100151.066681
100151.200452
100151.316035
100151.415826
100151.50148
100151.57398
100151.63465
100151.68487
100151.725868
100151.75782
100151.778813
100151.786011
100151.78526
100151.783353
100151.785091
100146.408246
100146.606257
100146.784433
100146.943198
100147.082982
100147.205122
100147.311333
100147.403517
100147.483495
100147.552422
100147.61103
100147.660299
100147.701281
100147.734933
100147.761154
100147.777789
100147.781691
100147.778575
100147.77516
100147.776404
100142.812485
100142.956243
100143.08689
100143.204366
100143.308727
100143.400607
100143.481042
100143.551279
100143.612671
100143.665934
100143.711509
100143.750077
100143.782393
100143.809159
100143.830026
100143.842641
100143.843556
100143.838329
100143.833548
100143.834226
100139.22777
100139.322901
100139.410813
100139.491079
100139.56347
100139.628017
100139.685164
100139.735596
100139.780138
100139.819215
100139.852993
100139.881878
100139.906352
100139.92689
100139.94292
100139.951939
100139.950255
100139.943209
100139.937255
100139.937337
100135.628982
100135.681287
100135.731729
100135.779512
100135.824063
100135.864871
100135.901844
100135.935167
100135.965164
100135.991964
100136.015548
100136.036074
100136.053789
100136.068964
100136.080844
100136.086828
100136.083007
100136.074532
100136.067652
100136.067392
100131.992403
100132.008499
100132.02757
100132.048416
100132.070075
100132.091508
100132.112111
100132.131613
100132.14991
100132.166851
100132.182258
100132.196086
100132.208384
100132.21926
100132.227814
100132.231397
100132.225982
100132.216556
100132.209202
100132.207428
100128.294928
100128.283081
100128.278408
100128.27923
)
;

boundaryField
{
    emptyPatch
    {
        type            empty;
    }
    minY
    {
        type            calculated;
        value           nonuniform List<scalar> 0();
    }
    maxY
    {
        type            calculated;
        value           nonuniform List<scalar> 0();
    }
    water_to_cooler
    {
        type            calculated;
        value           nonuniform List<scalar> 
37
(
100315.66507
100310.103146
100304.57786
100299.079263
100293.597105
100288.123416
100282.652036
100277.178243
100271.698866
100266.211439
100260.714362
100255.206191
100249.68566
100244.151312
100238.601423
100233.034359
100227.449212
100221.84748
100216.234943
100210.623791
100205.034054
100199.493151
100194.034067
100188.69051
100183.492746
100178.462391
100173.611092
100168.939283
100164.438577
100160.093161
100155.882902
100151.785091
100147.776404
100143.834226
100139.937337
100136.067392
100132.207428
)
;
    }
    water_to_heater
    {
        type            calculated;
        value           nonuniform List<scalar> 
60
(
100310.168809
100307.564463
100305.095541
100302.489915
100298.841794
100296.234605
100292.593569
100287.209646
100284.077608
100281.435186
100278.486524
100275.842862
100271.662315
100269.017247
100265.097805
100259.412074
100256.310974
100253.66253
100250.595134
100247.941445
100243.798866
100241.149383
100237.16038
100232.337927
100230.349083
100227.691349
100225.804457
100223.147363
100219.69849
100217.036313
100212.845743
100204.903567
100196.254468
100193.385128
100184.068981
100181.200969
100174.654986
100171.788845
100168.956473
100165.512431
100164.647142
100161.792715
100161.178966
100158.360187
100156.878415
100154.051218
100153.104102
100150.436687
100150.11016
100147.214417
100147.074214
100144.203468
100142.927375
100140.043397
100138.943048
100135.84214
100134.957552
100131.987431
100131.278968
100128.308908
)
;
    }
    procBoundary1to0
    {
        type            processor;
        value           nonuniform List<scalar> 
41
(
100124.039086
100120.943377
100121.932524
100124.357668
100124.331422
100124.316722
100125.581406
100125.450915
100125.301893
100125.215046
100125.179727
100125.172653
100125.133707
100125.032604
100124.917986
100124.823671
100124.742363
100124.670632
100124.608209
100124.555838
100128.284162
100128.291626
100128.300557
100128.31028
100128.320352
100128.330404
100128.340112
100128.349268
100128.357781
100128.365635
100128.371835
100128.373738
100128.367282
100128.357319
100128.349632
100128.347501
100124.514936
100124.486082
100124.46759
100128.284162
100124.457274
)
;
    }
    procBoundary1to3
    {
        type            processor;
        value           nonuniform List<scalar> 
41
(
100316.926637
100317.33437
100317.663429
100317.940457
100318.191147
100318.39213
100318.549188
100318.713589
100318.907122
100319.113569
100319.32545
100319.54075
100319.757478
100312.623932
100310.406502
100311.230179
100311.314249
100311.222892
100311.232458
100311.491982
100311.491982
100319.967573
100320.161084
100320.334318
100320.486629
100320.619534
100320.735217
100320.835834
100320.923901
100321.000776
100321.066289
100321.121351
100321.167408
100321.20551
100321.236583
100321.261213
100321.277374
100321.282213
100321.278475
100321.274189
100321.276025
)
;
    }
}


// ************************************************************************* //
