/*--------------------------------*- C++ -*----------------------------------*\
| =========                 |                                                 |
| \\      /  F ield         | OpenFOAM: The Open Source CFD Toolbox           |
|  \\    /   O peration     | Version:  2312                                  |
|   \\  /    A nd           | Website:  www.openfoam.com                      |
|    \\/     M anipulation  |                                                 |
\*---------------------------------------------------------------------------*/
FoamFile
{
    version     2.0;
    format      ascii;
    arch        "LSB;label=32;scalar=64";
    class       surfaceScalarField;
    location    "0.045/water";
    object      phi.gas;
}
// * * * * * * * * * * * * * * * * * * * * * * * * * * * * * * * * * * * * * //

dimensions      [0 3 -1 0 0 0 0];

oriented        oriented;

internalField   nonuniform List<scalar> 
2916
(
1.84515227554e-07
6.88862881487e-07
1.82982444932e-07
6.4432835577e-07
1.80227772378e-07
6.14722713448e-07
1.76335103329e-07
6.01218661047e-07
1.68500978801e-07
6.07525799611e-07
1.53191543422e-07
6.23724028985e-07
1.32299920052e-07
6.46780393384e-07
1.13772892612e-07
6.74929185911e-07
1.00915750165e-07
7.06215941657e-07
9.18569217552e-08
7.39539701934e-07
8.43483514898e-08
7.74637757207e-07
7.65282971796e-08
8.11610399749e-07
8.5062912315e-07
6.55616508099e-08
2.61437526479e-07
5.81516700123e-07
2.52008716631e-07
5.83582095182e-07
2.21573180326e-07
6.3129526323e-07
2.01497265552e-07
7.32219950279e-07
1.87759874894e-07
8.06777781671e-07
1.8330805424e-07
8.04492504031e-07
1.84332404378e-07
7.52071041933e-07
1.84337731365e-07
6.92881842582e-07
1.82636908988e-07
6.46697474657e-07
1.80055971083e-07
6.16892213303e-07
1.76577616897e-07
6.03998112082e-07
1.69404794499e-07
6.10810803975e-07
1.55062461611e-07
6.271870776e-07
1.34884271797e-07
6.50253797829e-07
1.16429046846e-07
6.78396963837e-07
1.03397401562e-07
7.09721640898e-07
9.41533519862e-08
7.43111843066e-07
8.64813990602e-08
7.7828011042e-07
7.85166833333e-08
8.15326611091e-07
8.54422312387e-07
6.74411864881e-08
2.50459684903e-07
5.85980744224e-07
2.40456920715e-07
5.87471715146e-07
2.13311318488e-07
6.36073612261e-07
1.96062601993e-07
7.42929796883e-07
1.84113351089e-07
8.21520126239e-07
1.80721135259e-07
8.16724492983e-07
1.82425130289e-07
7.59359577797e-07
1.8274422864e-07
6.96635504402e-07
1.81244458643e-07
6.48835101407e-07
1.7901821848e-07
6.18841121882e-07
1.76008368569e-07
6.06695704303e-07
1.69424581178e-07
6.14134094533e-07
1.55828020361e-07
6.30750461902e-07
1.36190136405e-07
6.53857386674e-07
1.17891560171e-07
6.82006311959e-07
1.04833280334e-07
7.13367629941e-07
9.55158440546e-08
7.46816067781e-07
8.77806667187e-08
7.82047925966e-07
7.97578743447e-08
8.19159476873e-07
8.58324971627e-07
6.86493424504e-08
2.55018246577e-07
5.89257111808e-07
2.45875164588e-07
5.91015916976e-07
2.14510717725e-07
6.41892884341e-07
1.94645412041e-07
7.54953277431e-07
1.81100471314e-07
8.37296787519e-07
1.77600661348e-07
8.2921799122e-07
1.79666076846e-07
7.66488051929e-07
1.80191699591e-07
7.00145366374e-07
1.78865262183e-07
6.50710054603e-07
1.76929501093e-07
6.20527867644e-07
1.74293943941e-07
6.09234025407e-07
1.68204869811e-07
6.17372794285e-07
1.55147206486e-07
6.3426819646e-07
1.35978575759e-07
6.574476298e-07
1.17955567114e-07
6.85625632413e-07
1.05038008589e-07
7.17028174424e-07
9.58034604227e-08
7.50532972551e-07
8.81309541493e-08
7.85829353148e-07
8.01629548189e-08
8.23007282265e-07
8.62244328049e-07
6.91196922173e-08
2.61898963699e-07
5.91711544883e-07
2.52199542647e-07
5.94017128534e-07
2.17235963406e-07
6.48366985073e-07
1.9334937009e-07
7.68725440651e-07
1.77349950916e-07
8.54268520473e-07
1.73287710666e-07
8.41761722568e-07
1.75529915822e-07
7.73200848082e-07
1.76261424368e-07
7.03169540192e-07
1.75147264951e-07
6.52118915317e-07
1.73480612686e-07
6.21783233545e-07
1.71174789317e-07
6.11435953676e-07
1.65504556238e-07
6.20323614922e-07
1.52929274282e-07
6.37550682578e-07
1.34245347174e-07
6.60849187098e-07
1.16606851925e-07
6.89087677875e-07
1.03994725553e-07
7.20551971208e-07
9.50113026425e-08
7.54128085298e-07
8.75396434896e-08
7.89501564108e-07
7.97443378934e-08
8.26760062557e-07
8.66081816495e-07
6.88695166114e-08
2.6653479787e-07
5.9246857465e-07
2.5500383609e-07
5.96170171374e-07
2.1884964505e-07
6.54912640768e-07
1.92392878007e-07
7.84212327767e-07
1.74244361435e-07
8.72719540453e-07
1.69054457034e-07
8.54758925093e-07
1.709073088e-07
7.79824843873e-07
1.716318515e-07
7.0585020982e-07
1.70577565142e-07
6.53087260817e-07
1.69085512747e-07
6.22561176204e-07
1.67057632476e-07
6.13190710555e-07
1.6173772257e-07
6.22826921971e-07
1.49560309014e-07
6.40427394415e-07
1.31316499927e-07
6.63893196423e-07
1.14130238873e-07
6.92235180265e-07
1.019432659e-07
7.23799934672e-07
9.33327743637e-08
7.57481007532e-07
8.61754320807e-08
7.92960242132e-07
7.86464474829e-08
8.30324767141e-07
8.69755198901e-07
6.80228129971e-08
2.66184120542e-07
5.91384471995e-07
2.53369174509e-07
5.97853492106e-07
2.19593798353e-07
6.61202181051e-07
1.92902427584e-07
8.0102503501e-07
1.73329611162e-07
8.92920724153e-07
1.66507659919e-07
8.68837849825e-07
1.67339127095e-07
7.8691037742e-07
1.67603184399e-07
7.08578232212e-07
1.66254295169e-07
6.53860809909e-07
1.64751643435e-07
6.23009943912e-07
1.62887777075e-07
6.14569208314e-07
1.57796079509e-07
6.24907713198e-07
1.45859854681e-07
6.42889869101e-07
1.27918094288e-07
6.66547230911e-07
1.11143321908e-07
6.95024241482e-07
9.93874571804e-08
7.26723061925e-07
9.11694413015e-08
7.60541622959e-07
8.43561991531e-08
7.96157325868e-07
7.71297467508e-08
8.33656648261e-07
8.73222478783e-07
6.67935806533e-08
2.56010934463e-07
5.94515377585e-07
2.42868807364e-07
6.01195188901e-07
2.1330598784e-07
6.67031481981e-07
1.89541534554e-07
8.16704203702e-07
1.70905498292e-07
9.12868066422e-07
1.63621854236e-07
8.83047112191e-07
1.63932926466e-07
7.9397096444e-07
1.63818847733e-07
7.11142555568e-07
1.62315351015e-07
6.5436755338e-07
1.6086427802e-07
6.2316237001e-07
1.59148432838e-07
6.15632145516e-07
1.54227079758e-07
6.26650222435e-07
1.42444563185e-07
6.45021452063e-07
1.24707900752e-07
6.68887107158e-07
1.08251703918e-07
6.97519021583e-07
9.6845638735e-08
7.29370972096e-07
8.89548291867e-08
7.63345482482e-07
8.24388259028e-08
7.99116437463e-07
7.54857216872e-08
8.36769873235e-07
8.76489320134e-07
6.54202137917e-08
2.61014463858e-07
5.95629658298e-07
2.48626825679e-07
6.03120456092e-07
2.16025518797e-07
6.72575347951e-07
1.90683726095e-07
8.32557348718e-07
1.70154563961e-07
9.33749698859e-07
1.61560143093e-07
8.9771041107e-07
1.61266021103e-07
8.0094685459e-07
1.60897129302e-07
7.13535782819e-07
1.59359873431e-07
6.54735112567e-07
1.57878587754e-07
6.23207678982e-07
1.56184991273e-07
6.16588640798e-07
1.51325772583e-07
6.28261092285e-07
1.39632687962e-07
6.47004142804e-07
1.22038123193e-07
6.71067209246e-07
1.05790945518e-07
6.99846220995e-07
9.46206292944e-08
7.31845529198e-07
8.69609568499e-08
7.65973273752e-07
8.06658305425e-08
8.01899853005e-07
7.39232770252e-08
8.39710241741e-07
8.79588369338e-07
6.40807441316e-08
2.6756905155e-07
5.95664479685e-07
2.5441484678e-07
6.04015225952e-07
2.19523955271e-07
6.77975532151e-07
1.90515078995e-07
8.50241063758e-07
1.66953640969e-07
9.5649180817e-07
1.57541808162e-07
9.12397218661e-07
1.57637076866e-07
8.07216260701e-07
1.57914654105e-07
7.15369159946e-07
1.56642069127e-07
6.54840862607e-07
1.5522385723e-07
6.23151484741e-07
1.53542456741e-07
6.17524809804e-07
1.48732090648e-07
6.2984024039e-07
1.37158011433e-07
6.48932097647e-07
1.19735666418e-07
6.73171047161e-07
1.03668076381e-07
7.02077047602e-07
9.2681120013e-08
7.34206722882e-07
8.52007135704e-08
7.68475027389e-07
7.90783543353e-08
8.04549074961e-07
7.25030279456e-08
8.42510901521e-07
8.82546528114e-07
6.28470520386e-08
2.7146986951e-07
5.94163400973e-07
2.57573785092e-07
6.03887142492e-07
2.22716329785e-07
6.83193602142e-07
1.89661415559e-07
8.71322012672e-07
1.62560613154e-07
9.82420792345e-07
1.52427562822e-07
9.27484946842e-07
1.53272366624e-07
8.12912747814e-07
1.54420411517e-07
7.1669999637e-07
1.53590293345e-07
6.54659732215e-07
1.52371416785e-07
6.22976845747e-07
1.5075602247e-07
6.18414229917e-07
1.46029196569e-07
6.31342995279e-07
1.34625202872e-07
6.50753882358e-07
1.17450330825e-07
6.75152304899e-07
1.01623800266e-07
7.04176047529e-07
9.08553630018e-08
7.36431326973e-07
8.35703703789e-08
7.7083804441e-07
7.76219174419e-08
8.07059751222e-07
7.12108745385e-08
8.45175250416e-07
8.85371574291e-07
6.17307456227e-08
2.70817727038e-07
5.91039989425e-07
2.57237378846e-07
6.03189032219e-07
2.24631087727e-07
6.87922609859e-07
1.88927056584e-07
8.9559777487e-07
1.58882496767e-07
1.01168818645e-06
1.48125647739e-07
9.43054835954e-07
1.49348850573e-07
8.18274693209e-07
1.51019655859e-07
7.17775124472e-07
1.50634906204e-07
6.54348822931e-07
1.49574878777e-07
6.22752734343e-07
1.47992618748e-07
6.19202566348e-07
1.43291771084e-07
6.32667535874e-07
1.32046365968e-07
6.52360076577e-07
1.15173472064e-07
6.76916598347e-07
9.96480844955e-08
7.06071864484e-07
8.91431459703e-08
7.38469242654e-07
8.2081314676e-08
7.73031183665e-07
7.6319732234e-08
8.09416390882e-07
7.00733517058e-08
8.47701127034e-07
8.88070263368e-07
6.07630363193e-08
2.6030335845e-07
5.91736597683e-07
2.46467718e-07
6.0400232319e-07
2.17780249394e-07
6.916399392e-07
1.83104371052e-07
9.19881971679e-07
1.53285663816e-07
1.04119293889e-06
1.43735590028e-07
9.57194000551e-07
1.45905874451e-07
8.22474917967e-07
1.48333141565e-07
7.1827467877e-07
1.48281419466e-07
6.538326694e-07
1.4722167413e-07
6.22429865864e-07
1.45551531751e-07
6.19732187818e-07
1.40828325468e-07
6.33670989175e-07
1.29810969671e-07
6.53661759545e-07
1.13292603071e-07
6.78418462317e-07
9.80698850338e-08
7.07746537606e-07
8.78067964873e-08
7.4032286603e-07
8.09378081189e-08
7.75071351674e-07
7.53290935306e-08
8.1164560124e-07
6.92062454549e-08
8.5012004733e-07
8.90678663386e-07
6.00249634909e-08
2.6497566947e-07
5.89830152298e-07
2.51857711477e-07
6.02808527422e-07
2.20997340541e-07
6.93872409898e-07
1.81448290726e-07
9.46920017351e-07
1.49881486574e-07
1.07144054562e-06
1.41509739533e-07
9.6918554046e-07
1.44558419871e-07
8.25190365205e-07
1.47497947862e-07
7.18195234147e-07
1.47482060342e-07
6.53238074725e-07
1.46138981864e-07
6.22178234021e-07
1.44220550893e-07
6.20125740608e-07
1.39500879507e-07
6.34483518827e-07
1.28680305645e-07
6.54780213722e-07
1.12429041774e-07
6.7976992016e-07
9.7384809309e-08
7.09313143399e-07
8.72264094998e-08
7.42104158691e-07
8.04209461971e-08
7.77065629714e-07
7.48505863061e-08
8.13847445293e-07
6.87489582989e-08
8.52522637879e-07
8.93276257681e-07
5.96031370909e-08
2.69415850357e-07
5.86197846606e-07
2.55487259829e-07
6.00140417896e-07
2.23188831307e-07
6.94983530429e-07
1.77173671781e-07
9.78648858881e-07
1.4577300422e-07
1.10075148832e-06
1.39899219633e-07
9.77850727713e-07
1.44498640218e-07
8.26026326707e-07
1.48164871785e-07
7.17498328391e-07
1.48285813384e-07
6.52699524361e-07
1.46703880643e-07
6.22216494615e-07
1.44620701075e-07
6.20688758457e-07
1.3983606724e-07
6.35396895931e-07
1.29065639082e-07
6.55971857888e-07
1.12974357964e-07
6.81218906168e-07
9.79075268292e-08
7.11008825342e-07
8.76212334426e-08
7.44028590824e-07
8.06680344357e-08
7.79204322013e-07
7.49550504783e-08
8.161861911e-07
6.87239768833e-08
8.55047608051e-07
8.95976379954e-07
5.94867268722e-08
2.69893358688e-07
5.82272046293e-07
2.55298243836e-07
5.97630007908e-07
2.22722570854e-07
6.96829692822e-07
1.77202238076e-07
1.01100005947e-06
1.46550790961e-07
1.1298556946e-06
1.41924993941e-07
9.851392481e-07
1.47393700864e-07
8.2620568015e-07
1.51391219286e-07
7.1692878167e-07
1.5136790197e-07
6.52776282591e-07
1.49447052418e-07
6.23019132761e-07
1.46986718609e-07
6.21935991232e-07
1.4186314784e-07
6.36911722798e-07
1.31081565213e-07
6.57723440836e-07
1.15001940796e-07
6.83202572896e-07
9.96099129755e-08
7.1319862768e-07
8.88879401209e-08
7.46397170673e-07
8.15276645931e-08
7.81731866646e-07
7.5463357803e-08
8.1885668516e-07
6.89401055037e-08
8.57847382357e-07
8.98894690357e-07
5.94866957712e-08
2.65508553451e-07
5.79511199287e-07
2.50440234927e-07
5.96982992249e-07
2.18647379416e-07
7.00883750301e-07
1.78529251021e-07
1.03974872601e-06
1.49688904961e-07
1.15841349507e-06
1.46347066347e-07
9.9171511385e-07
1.52454779722e-07
8.26046266287e-07
1.5653031929e-07
7.16777789299e-07
1.56198476313e-07
6.53790794399e-07
1.53750060863e-07
6.2495018641e-07
1.50656231126e-07
6.24352735187e-07
1.45065544141e-07
6.39549218799e-07
1.34103729112e-07
6.60505753963e-07
1.17746224458e-07
6.86105838856e-07
1.01755162606e-07
7.16198648022e-07
9.03578359751e-08
7.49461832999e-07
8.2399250025e-08
7.84839950352e-07
7.58422014495e-08
8.21998041611e-07
6.89287149599e-08
8.61017254665e-07
9.02091077376e-07
5.91974202104e-08
2.52053929623e-07
5.8437406495e-07
2.36214338675e-07
6.01229412688e-07
2.06019166191e-07
7.08061823684e-07
1.65927385779e-07
1.07036272469e-06
1.43413293165e-07
1.18259107307e-06
1.45288141681e-07
9.94433839943e-07
1.54510851684e-07
8.23729963746e-07
1.59890598581e-07
7.1613708226e-07
1.59807032318e-07
6.55269200327e-07
1.57082901123e-07
6.27781621796e-07
1.53469806519e-07
6.27962293912e-07
1.47396861495e-07
6.43409296284e-07
1.36099176274e-07
6.64411553153e-07
1.19377396668e-07
6.90015556195e-07
1.02780130503e-07
7.2007938256e-07
9.07221346286e-08
7.53257491845e-07
8.21974922451e-08
7.88528666938e-07
7.51986108007e-08
8.25581190055e-07
6.79617487875e-08
8.64505717053e-07
9.05498725449e-07
5.80316980763e-08
2.56677496249e-07
5.90212743534e-07
2.42137326145e-07
6.07086075878e-07
2.07716329769e-07
7.18992546309e-07
1.5533084173e-07
1.11333194644e-06
1.29000885077e-07
1.21220376513e-06
1.37384522982e-07
9.92400898165e-07
1.51285124033e-07
8.18321114376e-07
1.58563889137e-07
7.14418800611e-07
1.59001074871e-07
6.56731491637e-07
1.56255185293e-07
6.31109047981e-07
1.52317028486e-07
6.32543424008e-07
1.45908286379e-07
6.48303303043e-07
1.34430889646e-07
6.69246330133e-07
1.17528879796e-07
6.94712658857e-07
1.0062642773e-07
7.24576493364e-07
8.82877655366e-08
7.57494436363e-07
7.9565650954e-08
7.92503665199e-07
7.24643379529e-08
8.29320622505e-07
6.52129059657e-08
8.68044338688e-07
9.08871400835e-07
5.53599754026e-08
2.69443455631e-07
5.95620040225e-07
2.5643559707e-07
6.13300554437e-07
2.17901887923e-07
7.33115025816e-07
1.35425645943e-07
1.18569345317e-06
9.93983282813e-08
1.25311152475e-06
1.16218706541e-07
9.83343555739e-07
1.36397056385e-07
8.08066217354e-07
1.46400622998e-07
7.10173329545e-07
1.4814647264e-07
6.56864966973e-07
1.46265597018e-07
6.33700501424e-07
1.42877274165e-07
6.36984613514e-07
1.36957476952e-07
6.53164420503e-07
1.25939578817e-07
6.74011846675e-07
1.09393604228e-07
6.99251561997e-07
9.30452381568e-08
7.28801774449e-07
8.13624933257e-08
7.61374112439e-07
7.32634889657e-08
7.96065336892e-07
6.67476842221e-08
8.32613539529e-07
6.00556884154e-08
8.71120369199e-07
9.11778108854e-07
5.0757254347e-08
2.83554004189e-07
5.96811032403e-07
2.71608448324e-07
6.15221519593e-07
2.36878252699e-07
7.42444130841e-07
1.03793602533e-07
1.30601498356e-06
5.89899288991e-08
1.30294082543e-06
7.90237756861e-08
9.6946125135e-07
1.04873533645e-07
7.92271811918e-07
1.18780242579e-07
7.01509724694e-07
1.23327981266e-07
6.53407871819e-07
1.2399434974e-07
6.33237698515e-07
1.22756108904e-07
6.3882627157e-07
1.18614176941e-07
6.55681440265e-07
1.08875664498e-07
6.76672533166e-07
9.35315088608e-08
7.01862700725e-07
7.91073101655e-08
7.31262456729e-07
6.94285272212e-08
7.63673586143e-07
6.30569470315e-08
7.98223422172e-07
5.79984529916e-08
8.3466433215e-07
5.25541514622e-08
8.73098889016e-07
9.13716294362e-07
4.43570573857e-08
2.92984475093e-07
5.88144520604e-07
2.84590613018e-07
6.07894118843e-07
2.64190588168e-07
7.3682861058e-07
6.35475069614e-08
1.486567564e-06
2.31183017567e-08
1.34713687824e-06
3.71832272637e-08
9.56666106246e-07
6.45798397352e-08
7.71953200244e-07
8.25507526985e-08
6.87416248007e-07
9.12535416886e-08
6.4469552304e-07
9.56306417867e-08
6.27894028916e-07
9.74651517442e-08
6.3584369421e-07
9.53935002854e-08
6.53783150632e-07
8.67644235208e-08
6.75447141236e-07
7.29833761329e-08
7.01090106705e-07
6.14238310238e-08
7.30815731995e-07
5.4638825962e-08
7.63500250467e-07
5.07059403905e-08
7.98283050866e-07
4.76507955817e-08
8.34935165645e-07
4.38762497236e-08
8.73567033966e-07
9.14372844885e-07
3.71123079502e-08
2.89973787032e-07
5.75706682099e-07
2.83550254408e-07
5.95114372382e-07
2.7269743777e-07
7.20095809187e-07
5.31631006886e-08
1.67670280466e-06
2.20709994053e-08
1.37973018321e-06
1.66837279875e-08
9.5773702722e-07
3.84104749589e-08
7.53454916959e-07
5.70948941149e-08
6.71606340906e-07
6.82891792657e-08
6.33313151257e-07
7.51050386594e-08
6.1949943062e-07
7.87681655287e-08
6.29205451971e-07
7.72308591217e-08
6.48279011488e-07
6.81375260911e-08
6.70892400681e-07
5.50162903308e-08
6.9738046169e-07
4.57693862291e-08
7.27844834175e-07
4.14448773101e-08
7.61153503319e-07
3.96278219089e-08
7.96472714222e-07
3.83333778568e-08
8.33600014689e-07
3.60516181813e-08
8.72660830547e-07
9.1385764854e-07
3.05948275682e-08
2.9173584622e-07
5.63521152668e-07
2.76296062126e-07
5.83932009089e-07
2.49353407288e-07
7.12320021692e-07
1.86365082581e-07
1.70735170054e-06
8.6402096877e-08
1.47822662077e-06
3.97480521273e-08
9.94254273248e-07
4.32381551541e-08
7.49742046418e-07
5.51771005012e-08
6.6205364215e-07
6.39637685582e-08
6.24902889378e-07
6.98694759642e-08
6.12350350082e-07
7.29198285874e-08
6.22561722962e-07
7.02554672379e-08
6.42284942974e-07
5.95577215065e-08
6.65625330017e-07
4.57130885396e-08
6.92846747079e-07
3.70436977332e-08
7.2400076293e-07
3.36989266332e-08
7.57928206736e-07
3.28475656558e-08
7.93812288685e-07
3.24375365643e-08
8.31467031171e-07
3.09697747144e-08
8.71022293682e-07
9.12681680682e-07
2.62896358075e-08
2.90261511749e-07
5.53750489924e-07
2.65493382217e-07
5.75529537236e-07
2.2391375561e-07
7.16095077068e-07
2.87795040206e-07
1.61919576351e-06
1.34451278394e-07
1.62779199477e-06
6.98336900104e-08
1.04529113275e-06
5.88789923483e-08
7.56849840714e-07
6.43619204341e-08
6.57915060928e-07
7.00875750007e-08
6.19702158005e-07
7.43266112573e-08
6.07333373587e-07
7.62223208867e-08
6.17342718375e-07
7.24108171189e-08
6.37406932273e-07
6.04146098065e-08
6.61266310817e-07
4.53666572009e-08
6.89000239395e-07
3.59713488898e-08
7.20623406472e-07
3.22870449048e-08
7.54996099994e-07
3.12985647427e-08
7.9131804786e-07
3.08668031744e-08
8.29406712253e-07
2.94544529892e-08
8.69387764862e-07
9.11461169342e-07
2.49173469632e-08
2.8544070988e-07
5.46947043084e-07
2.55840288694e-07
5.7005028716e-07
2.02623740844e-07
7.33743421094e-07
2.23264155281e-07
1.58166075326e-06
1.67958237413e-07
1.67488258788e-06
9.68909550382e-08
1.10434142908e-06
7.73996395638e-08
7.71427748676e-07
7.80908981792e-08
6.58274686054e-07
8.1263839439e-08
6.17458291632e-07
8.40493295186e-08
6.0459229617e-07
8.49363305863e-08
6.14116478452e-07
8.03233969238e-08
6.34280891944e-07
6.75414196808e-08
6.5844708325e-07
5.13850104368e-08
6.86481067005e-07
4.07445795479e-08
7.18365679095e-07
3.60170057671e-08
7.5300039496e-07
3.42188085442e-08
7.89601190673e-07
3.31475737648e-08
8.27983499617e-07
3.12292455179e-08
8.68267965265e-07
9.10651340789e-07
2.63330359394e-08
2.79267047127e-07
5.41582618047e-07
2.50260623022e-07
5.65865646155e-07
2.00009732178e-07
7.51660211476e-07
2.15201032544e-07
1.55302062721e-06
1.80529329619e-07
1.70082564279e-06
1.1061735206e-07
1.16674292742e-06
9.01449717665e-08
7.88266850551e-07
8.9640745923e-08
6.60689611865e-07
9.21177251007e-08
6.1687136546e-07
9.4432797522e-08
6.03434642411e-07
9.4947318763e-08
6.1264856983e-07
9.02871045679e-08
6.32881194609e-07
7.75702146905e-08
6.5723957243e-07
6.08405213162e-08
6.85420091125e-07
4.89849094685e-08
7.17407238079e-07
4.30131570715e-08
7.52155486725e-07
4.01311853744e-08
7.88896818656e-07
3.81285463284e-08
8.27442863199e-07
3.54100569745e-08
8.67910899525e-07
9.10496267648e-07
2.98658115826e-08
2.68619493597e-07
5.41186406999e-07
2.41342987252e-07
5.64746141242e-07
1.96785482136e-07
7.66413941005e-07
2.09176306698e-07
1.52854613346e-06
2.00665313846e-07
1.70381520638e-06
1.17732955638e-07
1.24682206715e-06
9.77316989415e-08
8.0640198871e-07
9.78426397441e-08
6.63576105831e-07
1.00636259197e-07
6.16776073447e-07
1.03039412227e-07
6.02981829125e-07
1.0365688663e-07
6.12280961885e-07
9.95134040866e-08
6.3271288511e-07
8.76721154266e-08
6.57289911322e-07
7.11397783126e-08
6.85579764133e-07
5.84817935235e-08
7.17601141379e-07
5.14245189163e-08
7.52386566389e-07
4.74949638547e-08
7.89188852935e-07
4.45405775865e-08
8.27815346598e-07
4.09648690524e-08
8.68382866188e-07
9.11087529222e-07
3.46854457578e-08
2.74597956406e-07
5.39761557016e-07
2.47309824104e-07
5.62974446821e-07
2.00916758151e-07
7.79120827498e-07
2.25006692372e-07
1.49179885521e-06
2.46999349863e-07
1.67986050662e-06
1.25618554981e-07
1.36907407701e-06
1.0306930926e-07
8.27483090439e-07
1.03696281712e-07
6.66453918106e-07
1.06834538635e-07
6.165938671e-07
1.09548744989e-07
6.02723089846e-07
1.10605024401e-07
6.12575490094e-07
1.07277519737e-07
6.3337097934e-07
9.65876796592e-08
6.58217530118e-07
8.07322044472e-08
6.86634974375e-07
6.77588053125e-08
7.18694718093e-07
5.99279841884e-08
7.53503633958e-07
5.51340137658e-08
7.9033995471e-07
5.13519447112e-08
8.29012470645e-07
4.69996790085e-08
8.6963689604e-07
9.12411906542e-07
4.0024616948e-08
2.79804236858e-07
5.38575857552e-07
2.4979059809e-07
5.61454535976e-07
2.00919343698e-07
7.91780604996e-07
2.23289460919e-07
1.45735123514e-06
2.48726089367e-07
1.65303387672e-06
1.34780827875e-07
1.48559402393e-06
1.07050472422e-07
8.52857032793e-07
1.07442679733e-07
6.69588794634e-07
1.10957098485e-07
6.16260404224e-07
1.14259131217e-07
6.02582910034e-07
1.15980129792e-07
6.13404859196e-07
1.13589568129e-07
6.34700284342e-07
1.04062967007e-07
6.5984348193e-07
8.9089092766e-08
6.88402613115e-07
7.61304995829e-08
7.2051473746e-07
6.77964426018e-08
7.55345948876e-07
6.23397198143e-08
7.92204991514e-07
5.78788573849e-08
8.3090793795e-07
5.2868251293e-08
8.71568622308e-07
9.14387592344e-07
4.52851828338e-08
2.80635839892e-07
5.37824025896e-07
2.48618249016e-07
5.60244361881e-07
2.05648356229e-07
7.98976020517e-07
2.06891050542e-07
1.44462167332e-06
2.0870936976e-07
1.64913365861e-06
1.44857371305e-07
1.55267917497e-06
1.1126127595e-07
8.82147569961e-07
1.1054318885e-07
6.73765989062e-07
1.14225856512e-07
6.16142042825e-07
1.17923178685e-07
6.0274677662e-07
1.2015031292e-07
6.14741000783e-07
1.1854662017e-07
6.36616175362e-07
1.10102679234e-07
6.62074559029e-07
9.60387759615e-08
6.9077383576e-07
8.32664630726e-08
7.22934256894e-07
7.46243350848e-08
7.57781385798e-07
6.86864599167e-08
7.94654633982e-07
6.36930139808e-08
8.333755752e-07
5.81453228908e-08
8.74059426136e-07
9.16907094096e-07
5.00549619164e-08
2.76545828726e-07
5.37231230562e-07
2.45553329021e-07
5.59481061952e-07
2.16840813023e-07
7.94434113764e-07
2.07745158399e-07
1.44184224909e-06
2.00653675486e-07
1.65407292765e-06
1.51799757507e-07
1.6057304947e-06
1.15646664032e-07
9.11708833541e-07
1.13755682819e-07
6.78759614538e-07
1.17256105888e-07
6.16316543164e-07
1.20989974754e-07
6.03269951089e-07
1.23495326067e-07
6.16479479144e-07
1.22432642714e-07
6.38970619446e-07
1.14810087267e-07
6.64754866096e-07
1.0150482422e-07
6.93596080361e-07
8.89857832346e-08
7.25806495308e-07
8.01817156675e-08
7.60674053672e-07
7.39100126619e-08
7.97564046474e-07
6.85240173325e-08
8.36301403104e-07
6.25615134465e-08
8.77003219715e-07
9.1987181528e-07
5.40695690803e-08
2.66363735916e-07
5.41237238079e-07
2.37866084766e-07
5.61611902435e-07
2.21561407737e-07
7.81042530553e-07
2.06681454712e-07
1.4441197196e-06
1.92806273376e-07
1.66574685181e-06
1.53684843589e-07
1.64927678792e-06
1.18715599216e-07
9.38163759194e-07
1.16507418338e-07
6.83543524323e-07
1.19820859118e-07
6.16562407299e-07
1.23465343105e-07
6.04091219236e-07
1.26161237131e-07
6.18515602589e-07
1.25488141171e-07
6.41643950552e-07
1.18400619861e-07
6.67756367001e-07
1.0561499626e-07
6.96745028725e-07
9.33240216082e-08
7.29019267709e-07
8.44332109159e-08
7.63921590487e-07
7.7921750599e-08
8.008378773e-07
7.2243267819e-08
8.39596857689e-07
6.59666096203e-08
8.80316764562e-07
9.23201728069e-07
5.71671143598e-08
2.72726647687e-07
5.44719852476e-07
2.44855296994e-07
5.6350970878e-07
2.30961142896e-07
7.62843602591e-07
2.08892757113e-07
1.45112832916e-06
1.88408867988e-07
1.68297785339e-06
1.52033616416e-07
1.68887264291e-06
1.20434828933e-07
9.58800951626e-07
1.18697975095e-07
6.87127202924e-07
1.21916500067e-07
6.16761332334e-07
1.25419628611e-07
6.05272932762e-07
1.28244814699e-07
6.20916339877e-07
1.27858361703e-07
6.44675213919e-07
1.2109095082e-07
6.71085950383e-07
1.08599274375e-07
7.00205583505e-07
9.6427189829e-08
7.32544123726e-07
8.74399534079e-08
7.6748382744e-07
8.07226943063e-08
8.04425935863e-07
7.48020918021e-08
8.43203339484e-07
6.82746415041e-08
8.83935276585e-07
9.26827227491e-07
5.92376673572e-08
2.79312759803e-07
5.49256778475e-07
2.49496720044e-07
5.66025919999e-07
2.35750095526e-07
7.43330086195e-07
2.0835771757e-07
1.46149403876e-06
1.82051956476e-07
1.70472537637e-06
1.42561652786e-07
1.72827896977e-06
1.19091168793e-07
9.69042650002e-07
1.19233374325e-07
6.87848047233e-07
1.22793246745e-07
6.16494160957e-07
1.26288697375e-07
6.06747811965e-07
1.29312984396e-07
6.23697342937e-07
1.29230804783e-07
6.48096198404e-07
1.22718513724e-07
6.74767663622e-07
1.10392373337e-07
7.03988398329e-07
9.82365270341e-08
7.36376639086e-07
8.91231942951e-08
7.71340113575e-07
8.22164931436e-08
8.08292130092e-07
7.60917269391e-08
8.47070666404e-07
6.93665361451e-08
8.87796583395e-07
9.30676223495e-07
6.01580852865e-08
2.83314697049e-07
5.54844913229e-07
2.53530370257e-07
5.68817322132e-07
2.41302488819e-07
7.23744301228e-07
2.05648141423e-07
1.47804558434e-06
1.71231024967e-07
1.73371648462e-06
1.24079411178e-07
1.77237914533e-06
1.14009351315e-07
9.64063909045e-07
1.17559682846e-07
6.84209696305e-07
1.21865362676e-07
6.15383709202e-07
1.25509736384e-07
6.08426756904e-07
1.28818831919e-07
6.26856002673e-07
1.29084919655e-07
6.51909715168e-07
1.22820719568e-07
6.78793817072e-07
1.10597494133e-07
7.08073687126e-07
9.84127893033e-08
7.40483247323e-07
8.91874358567e-08
7.75442205199e-07
8.21425545597e-08
8.12374205269e-07
7.58831609942e-08
8.51124039332e-07
6.90416445733e-08
8.91814879809e-07
9.34653960683e-07
5.97537852806e-08
2.85874731923e-07
5.61227880071e-07
2.58559309228e-07
5.72433956651e-07
2.46393738334e-07
7.06696792928e-07
1.96541046002e-07
1.50588046113e-06
1.50779433561e-07
1.77389073101e-06
9.66241027243e-08
1.82391771984e-06
1.04744109588e-07
9.39091715461e-07
1.13046673078e-07
6.75208395163e-07
1.18397600127e-07
6.13123215423e-07
1.22349678385e-07
6.10182812302e-07
1.26038290216e-07
6.3033735922e-07
1.26702892782e-07
6.56048595541e-07
1.20694873369e-07
6.83084198276e-07
1.08560468345e-07
7.12373415278e-07
9.63923598201e-08
7.44766165715e-07
8.71608616103e-08
7.79681686818e-07
8.01078904439e-08
8.16554068864e-07
7.38512264911e-08
8.55236958663e-07
6.70349677445e-08
8.9585726303e-07
9.38623456597e-07
5.78133303364e-08
2.83807742886e-07
2.53652186297e-07
2.42110130273e-07
1.81630281231e-07
1.24492444048e-07
6.53557212451e-08
9.08712900052e-08
1.04414230811e-07
1.11037586549e-07
1.15540492059e-07
1.19820086333e-07
1.2103167209e-07
1.15364923575e-07
1.03414432984e-07
9.14621057217e-08
8.24750326596e-08
7.56638492698e-08
6.9646444716e-08
6.30816806775e-08
5.41446222286e-08
5.38073806842e-08
8.49793376911e-07
4.43373722995e-08
8.09176793731e-07
3.62430762276e-08
7.70693645593e-07
3.00341802933e-08
7.34247745768e-07
2.53015991473e-08
6.99628300303e-07
2.15068420755e-08
6.66507966178e-07
1.81847450957e-08
6.35032959466e-07
1.49895197458e-08
6.04876115242e-07
1.19105604428e-08
5.74265006813e-07
1.30342342659e-08
5.11427737265e-07
5.45792108824e-09
4.80942287253e-07
4.44732781737e-09
4.58393625467e-07
3.49048641965e-09
4.36889678391e-07
2.6582138011e-09
4.16377039286e-07
2.7936792785e-09
3.96636333377e-07
4.34624119385e-09
3.748259439e-07
5.59090267967e-09
3.39884830528e-07
4.28731229989e-09
2.97554449789e-07
4.57527364803e-10
2.57356320563e-07
2.2009962738e-07
5.56051807683e-08
8.53488771451e-07
4.6044130958e-08
8.12615168132e-07
3.77910770116e-08
7.73901605734e-07
3.14116833066e-08
7.37249909726e-07
2.65513583892e-08
7.02448450457e-07
2.26768060502e-08
6.69160176433e-07
1.9326493858e-08
6.37501964391e-07
1.61611348962e-08
6.07197988189e-07
1.30420455491e-08
5.76002178843e-07
1.33935292557e-08
5.17184072426e-07
7.11626792843e-09
4.82965614198e-07
5.84682590557e-09
4.60324048545e-07
4.65738237444e-09
4.38722376964e-07
3.61382231288e-09
4.18117727651e-07
3.57693971812e-09
3.98285150464e-07
5.00652224257e-09
3.76311306572e-07
6.10916652176e-09
3.41085306673e-07
4.66473503801e-09
2.98605479053e-07
3.05525245353e-10
2.58273715971e-07
2.20913632044e-07
5.67996759314e-08
8.57283164752e-07
4.72154551678e-08
8.1614010338e-07
3.88779367649e-08
7.7718639264e-07
3.23912299193e-08
7.40320900255e-07
2.74521133294e-08
7.05330521394e-07
2.35339480037e-08
6.71868551679e-07
2.01757420936e-08
6.40023578075e-07
1.70393448395e-08
6.09567821017e-07
1.38631742851e-08
5.77938895488e-07
1.32441839663e-08
5.22963426581e-07
8.63969010723e-09
4.85132869198e-07
7.12129448562e-09
4.62391072067e-07
5.71126616331e-09
4.40683949584e-07
4.46658464406e-09
4.19980611018e-07
4.26507592003e-09
4.00050108471e-07
5.5622434282e-09
3.77904417829e-07
6.55649889656e-09
3.42385383432e-07
4.97825504906e-09
2.99749268672e-07
5.31568310815e-10
2.59278660036e-07
2.21797864149e-07
5.73412359984e-08
8.61095655736e-07
4.78129606715e-08
8.19684065765e-07
3.94716894825e-08
7.80490798288e-07
3.29459302346e-08
7.4341165193e-07
2.79810083425e-08
7.08232047968e-07
2.40580586994e-08
6.74596086461e-07
2.07160275752e-08
6.42565262812e-07
1.76142936709e-08
6.11958018894e-07
1.43810333403e-08
5.80024695585e-07
1.27416088626e-08
5.28583041759e-07
9.95893892195e-09