/*--------------------------------*- C++ -*----------------------------------*\
| =========                 |                                                 |
| \\      /  F ield         | OpenFOAM: The Open Source CFD Toolbox           |
|  \\    /   O peration     | Version:  2312                                  |
|   \\  /    A nd           | Website:  www.openfoam.com                      |
|    \\/     M anipulation  |                                                 |
\*---------------------------------------------------------------------------*/
FoamFile
{
    version     2.0;
    format      ascii;
    arch        "LSB;label=32;scalar=64";
    class       volScalarField;
    location    "41";
    object      alpha.water;
}
// * * * * * * * * * * * * * * * * * * * * * * * * * * * * * * * * * * * * * //

dimensions      [0 0 0 0 0 0 0];

internalField   nonuniform List<scalar> 
1875
(
0.81879
0.82183
0.814965
0.804497
0.794104
0.784262
0.775655
0.767294
0.757977
0.7472
0.734484
0.721282
0.708923
0.697833
0.691832
0.69006
0.691674
0.704986
0.731513
0.751057
0.740751
0.720004
0.732039
0.781414
0.764024
0.92804
0.928073
0.924687
0.919494
0.913309
0.906865
0.898883
0.888216
0.874909
0.858372
0.837309
0.810691
0.780031
0.74831
0.710731
0.671504
0.675621
0.682792
0.719456
0.775952
0.816876
0.805408
0.789952
0.781373
0.777287
0.929667
0.928088
0.926453
0.924468
0.907667
0.880577
0.851174
0.823087
0.799796
0.769856
0.729668
0.699021
0.676849
0.675619
0.673893
0.67562
0.672682
0.691226
0.74317
0.804036
0.832199
0.830678
0.804034
0.786848
0.797857
0.929584
0.931065
0.911798
0.849294
0.773873
0.722765
0.696021
0.681466
0.675617
0.674374
0.675617
0.67385
0.675618
0.673415
0.675619
0.687896
0.702747
0.742862
0.791508
0.826337
0.83218
0.824049
0.795693
0.787136
0.799481
0.93254
0.921793
0.800855
0.698541
0.676402
0.677634
0.677261
0.680624
0.684966
0.689275
0.69297
0.696858
0.702798
0.711909
0.727519
0.750527
0.778492
0.809643
0.827899
0.83218
0.832199
0.808988
0.792716
0.791819
0.805517
0.929584
0.887791
0.734081
0.676913
0.677634
0.677018
0.692106
0.709863
0.72478
0.737837
0.748892
0.760969
0.773625
0.786953
0.801678
0.816395
0.826719
0.830867
0.831343
0.830305
0.819725
0.801236
0.796104
0.799718
0.805624
0.932406
0.850562
0.714912
0.680424
0.680386
0.707263
0.739392
0.763454
0.782051
0.79738
0.809927
0.82026
0.828155
0.833735
0.836902
0.837935
0.836576
0.8344
0.831112
0.824226
0.817154
0.810209
0.809258
0.81257
0.805849
0.929584
0.828495
0.704325
0.679986
0.694473
0.746365
0.782021
0.805173
0.820514
0.830371
0.836287
0.839663
0.841432
0.842161
0.842315
0.841201
0.839552
0.837391
0.834685
0.832169
0.83092
0.831585
0.832477
0.830081
0.806198
0.931461
0.839742
0.710797
0.679935
0.709644
0.773867
0.804559
0.820536
0.829407
0.834656
0.83829
0.841009
0.842979
0.843934
0.844118
0.844082
0.844137
0.844207
0.844319
0.845606
0.846584
0.846887
0.847003
0.843677
0.806195
0.929584
0.862165
0.734992
0.682956
0.696709
0.766294
0.803179
0.819219
0.827024
0.83156
0.83477
0.837185
0.839141
0.840645
0.841567
0.841817
0.841518
0.841123
0.841313
0.843442
0.846289
0.847003
0.846887
0.841456
0.806249
0.931093
0.888535
0.782307
0.698161
0.696386
0.737191
0.787359
0.81125
0.820662
0.823134
0.823304
0.822639
0.822676
0.824662
0.826848
0.827617
0.827136
0.825217
0.824087
0.825271
0.833578
0.84172
0.845586
0.833406
0.808683
0.929584
0.909907
0.842241
0.747344
0.702701
0.708328
0.742911
0.783313
0.803422
0.806725
0.80141
0.792786
0.788807
0.789853
0.798744
0.804892
0.807129
0.806562
0.804042
0.803799
0.815245
0.827649
0.833432
0.829041
0.812204
0.930052
0.92354
0.890388
0.819742
0.739755
0.709809
0.712054
0.732905
0.763582
0.781826
0.780268
0.768806
0.758826
0.759416
0.774753
0.787489
0.795484
0.798298
0.796378
0.796127
0.807412
0.823049
0.830243
0.82933
0.814994
0.926433
0.92423
0.906268
0.871781
0.801937
0.735237
0.713053
0.712305
0.723397
0.744644
0.756389
0.752552
0.74756
0.754553
0.769223
0.781159
0.790984
0.796302
0.794714
0.795371
0.806663
0.826065
0.835095
0.834752
0.817686
0.90733
0.916897
0.903846
0.880801
0.846742
0.785265
0.732036
0.708537
0.708477
0.714418
0.723672
0.732443
0.74533
0.759541
0.773974
0.783056
0.790421
0.795858
0.79451
0.795507
0.810466
0.83051
0.841461
0.842408
0.821196
0.892139
0.899196
0.891948
0.873968
0.844104
0.790992
0.732123
0.691447
0.693199
0.700354
0.717995
0.734836
0.751142
0.769175
0.78273
0.788294
0.793087
0.795991
0.794519
0.7994
0.816287
0.832389
0.844775
0.847235
0.827136
0.891772
0.87922
0.863183
0.838271
0.804396
0.753986
0.70455
0.687808
0.688402
0.705034
0.725907
0.74608
0.764527
0.781311
0.790761
0.795434
0.798822
0.797508
0.797251
0.807117
0.82019
0.832806
0.84523
0.848621
0.837245
0.891428
0.844187
0.793441
0.745902
0.709059
0.693557
0.687808
0.687823
0.697896
0.721695
0.743655
0.763103
0.779154
0.791385
0.797884
0.803185
0.80293
0.800101
0.802673
0.811417
0.820444
0.831081
0.843363
0.848681
0.848703
0.891737
0.778651
0.722324
0.693819
0.686123
0.685611
0.688574
0.697783
0.720287
0.744263
0.763461
0.779725
0.792335
0.800726
0.80525
0.80683
0.80372
0.802052
0.805007
0.808576
0.814474
0.822681
0.834286
0.848096
0.855573
0.878057
0.734044
0.7055
0.690286
0.685618
0.686159
0.696964
0.718409
0.744665
0.76528
0.78141
0.794601
0.804218
0.80962
0.811384
0.808003
0.803716
0.80214
0.799137
0.792155
0.794754
0.805246
0.81693
0.837051
0.857145
0.861271
0.715437
0.705913
0.69134
0.686123
0.688977
0.712419
0.739987
0.764212
0.782628
0.796584
0.806731
0.812441
0.813462
0.812473
0.807749
0.804407
0.799627
0.782159
0.768511
0.770468
0.783507
0.796668
0.822418
0.857797
0.850714
0.710079
0.707757
0.693016
0.686036
0.694323
0.728154
0.757374
0.780026
0.796436
0.807331
0.812745
0.813472
0.813522
0.812107
0.807737
0.803051
0.789271
0.765074
0.762993
0.763434
0.769015
0.781388
0.81144
0.857145
0.852981
0.712589
0.711535
0.697127
0.686301
0.69737
0.726042
0.755841
0.779599
0.796935
0.807325
0.812201
0.813453
0.813436
0.811306
0.807091
0.797851
0.776009
0.763289
0.763434
0.763154
0.765274
0.775014
0.806232
0.859115
0.852987
0.725151
0.717392
0.705547
0.690717
0.697373
0.717119
0.744457
0.770811
0.791035
0.803267
0.808824
0.811362
0.812529
0.809763
0.805086
0.792737
0.771582
0.763434
0.763302
0.763434
0.76575
0.774191
0.80501
0.857145
0.850904
0.752536
0.728532
0.717947
0.702611
0.702197
0.708485
0.723529
0.745928
0.769034
0.787008
0.797623
0.803504
0.806024
0.805136
0.801825
0.79292
0.777456
0.765887
0.763434
0.763658
0.768504
0.776955
0.80499
0.860569
0.837654
0.785061
0.749758
0.735846
0.72355
0.715474
0.714726
0.717515
0.723257
0.734973
0.751856
0.768114
0.780962
0.788938
0.793709
0.794844
0.792977
0.786541
0.776801
0.770318
0.77017
0.77616
0.784364
0.806697
0.857145
0.806674
0.806676
0.78276
0.763318
0.750933
0.739935
0.732454
0.726346
0.726572
0.727642
0.729769
0.735305
0.745709
0.752123
0.762535
0.772891
0.783079
0.785549
0.785479
0.784151
0.783797
0.789011
0.795135
0.808225
0.861762
0.806669
0.824818
0.81645
0.800691
0.786774
0.773883
0.761976
0.750354
0.741709
0.734884
0.731164
0.731389
0.730877
0.731396
0.732155
0.739265
0.753171
0.77049
0.783086
0.791673
0.795889
0.80192
0.804517
0.808931
0.857145
0.806674
0.840028
0.844957
0.838999
0.828588
0.815607
0.801302
0.785972
0.770793
0.756566
0.743594
0.734707
0.731396
0.730298
0.731402
0.733092
0.737946
0.751155
0.771358
0.788886
0.800929
0.807203
0.807344
0.80613
0.861736
0.813914
0.849798
0.85572
0.855735
0.853296
0.847246
0.836968
0.822563
0.804987
0.78601
0.766721
0.749099
0.733995
0.731402
0.731251
0.732386
0.736066
0.744998
0.762359
0.784367
0.801391
0.808138
0.807203
0.799693
0.857145
0.8418
0.854207
0.856166
0.85572
0.85529
0.852324
0.846583
0.837652
0.824311
0.806468
0.785229
0.762942
0.737986
0.730927
0.731831
0.733311
0.737794
0.747908
0.765404
0.786389
0.803302
0.807203
0.807816
0.789184
0.861395
0.860964
0.855359
0.85572
0.856087
0.853009
0.846406
0.838831
0.829214
0.815322
0.796602
0.774783
0.752701
0.731772
0.731831
0.732479
0.735734
0.742706
0.755583
0.773616
0.792102
0.806057
0.808639
0.807203
0.785056
0.857145
0.862337
0.851604
0.855473
0.851478
0.837407
0.824295
0.812201
0.798419
0.782353
0.764038
0.746435
0.735126
0.732023
0.733231
0.73613
0.742579
0.753499
0.768889
0.785607
0.799325
0.806136
0.807203
0.807725
0.785129
0.861015
0.860964
0.838415
0.834513
0.824137
0.800553
0.781408
0.765444
0.751747
0.741615
0.73678
0.735527
0.735353
0.735302
0.740327
0.7471
0.757363
0.770699
0.784465
0.795217
0.799718
0.803356
0.808633
0.803148
0.786547
0.857145
0.864286
0.810316
0.799698
0.784851
0.760618
0.746439
0.739091
0.737014
0.736979
0.736914
0.73799
0.741695
0.747893
0.756351
0.766072
0.776743
0.786465
0.792433
0.79478
0.795424
0.792998
0.801334
0.789884
0.787215
0.860602
0.860964
0.772285
0.769487
0.755837
0.739329
0.733097
0.73149
0.735436
0.738178
0.741783
0.749004
0.75715
0.766002
0.774763
0.781859
0.786427
0.788951
0.790598
0.789837
0.78638
0.783679
0.784406
0.784317
0.787339
0.857145
0.863944
0.732648
0.747808
0.738433
0.72881
0.726744
0.730737
0.736946
0.744258
0.753047
0.761849
0.769901
0.776516
0.780805
0.783393
0.78541
0.786236
0.785746
0.784335
0.783535
0.78354
0.783469
0.784298
0.788855
0.85978
0.860964
0.711611
0.732194
0.727255
0.72245
0.724073
0.731654
0.740785
0.751057
0.760473
0.76791
0.773469
0.777243
0.779881
0.781624
0.782501
0.782906
0.783228
0.783686
0.783944
0.784447
0.78524
0.788562
0.791653
0.819936
0.856066
0.711499
0.721732
0.719841
0.717132
0.721993
0.73158
0.743116
0.754509
0.763824
0.77051
0.77482
0.777376
0.779017
0.780277
0.781317
0.782416
0.783675
0.785189
0.787045
0.789271
0.791767
0.79504
0.790622
0.777773
0.846014
0.711326
0.715385
0.714211
0.711284
0.718987
0.729961
0.74288
0.756214
0.766313
0.772749
0.776281
0.778096
0.779118
0.78003
0.781341
0.783314
0.786336
0.79009
0.794232
0.797961
0.799859
0.79726
0.785157
0.777656
0.843544
0.711499
0.712357
0.710266
0.705796
0.714207
0.726234
0.741451
0.757184
0.768606
0.77442
0.7767
0.777868
0.778671
0.779233
0.780979
0.784677
0.790068
0.796199
0.801889
0.805207
0.805485
0.794384
0.784513
0.79489
0.841821
0.71638
0.712567
0.709346
0.705309
0.708039
0.719971
0.73742
0.755395
0.76798
0.773915
0.776151
0.777137
0.77771
0.777948
0.779641
0.784213
0.791119
0.798422
0.804681
0.80728
0.807276
0.792597
0.785131
0.826088
0.837888
0.730903
0.714681
0.709749
0.705294
0.704872
0.712136
0.729043
0.749577
0.764938
0.772228
0.775099
0.776193
0.77675
0.777128
0.778117
0.782358
0.789049
0.796085
0.802426
0.807056
0.807527
0.793854
0.78435
0.844153
0.831573
0.75469
0.721832
0.71167
0.705992
0.704877
0.706811
0.717667
0.736956
0.755906
0.767434
0.772936
0.775239
0.776225
0.776811
0.777607
0.780196
0.785386
0.791619
0.797421
0.802958
0.807492
0.795547
0.785155
0.845096
0.801999
0.778939
0.738355
0.718318
0.709347
0.706404
0.707366
0.711227
0.722117
0.738887
0.754987
0.765951
0.77225
0.775344
0.776771
0.77778
0.779395
0.782788
0.787849
0.793288
0.798184
0.804502
0.795573
0.784343
0.846191
0.791352
0.793708
0.76409
0.735441
0.719941
0.713032
0.71184
0.71319
0.717206
0.724611
0.73714
0.75098
0.762801
0.7709
0.775374
0.777635
0.779614
0.782397
0.78654
0.792001
0.796562
0.801985
0.795189
0.785446
0.845096
0.793689
0.806336
0.791184
0.764577
0.743838
0.731237
0.72517
0.72193
0.722218
0.725101
0.729843
0.737565
0.747922
0.759168
0.768569
0.774792
0.778828
0.782398
0.786745
0.792377
0.797082
0.802404
0.795696
0.784875
0.847576
0.791357
0.81892
0.816168
0.80063
0.781804
0.765651
0.753622
0.744411
0.738231
0.733428
0.73366
0.736344
0.740206
0.74657
0.756365
0.766434
0.774582
0.780907
0.786546
0.793089
0.79842
0.804039
0.79734
0.786055
0.845096
0.793689
0.827906
0.841337
0.835553
0.824708
0.810808
0.795986
0.781624
0.768641
0.756311
0.747264
0.741655
0.742136
0.744065
0.748603
0.756712
0.766722
0.776424
0.78487
0.792962
0.799685
0.806592
0.800059
0.785655
0.848454
0.793416
0.830414
0.855902
0.856286
0.853532
0.846895
0.836559
0.822791
0.806548
0.789443
0.772743
0.757308
0.748019
0.745445
0.745807
0.751007
0.759742
0.77047
0.781448
0.79203
0.80055
0.809207
0.80289
0.786662
0.845096
0.811373
0.835134
0.855158
0.860904
0.860905
0.859508
0.855649
0.848304
0.83607
0.819291
0.799605
0.778608
0.760154
0.749424
0.74632
0.749036
0.755822
0.765787
0.777778
0.790527
0.801396
0.810366
0.803412
0.78648
0.848844
0.849772
0.84345
0.851472
0.860464
0.860897
0.859509
0.856309
0.85159
0.844826
0.833821
0.817258
0.79566
0.77207
0.753938
0.746587
0.748107
0.75398
0.763664
0.775971
0.790199
0.802965
0.810497
0.802955
0.786967
0.845096
0.870946
0.846079
0.848675
0.860004
0.860637
0.858116
0.853772
0.848507
0.841575
0.830608
0.81378
0.791699
0.76827
0.751718
0.746577
0.748455
0.755376
0.76528
0.777687
0.792109
0.8057
0.810496
0.801632
0.787572
0.848825
0.871931
0.842855
0.845948
0.860012
0.858777
0.853136
0.846789
0.84041
0.832045
0.818862
0.799574
0.776825
0.757217
0.747713
0.74682
0.75058
0.759352
0.769935
0.782856
0.797427
0.808694
0.81005
0.80057
0.793003
0.845096
0.870946
0.836759
0.842501
0.858264
0.851978
0.84309
0.834702
0.82534
0.812164
0.794033
0.773388
0.756467
0.748563
0.747746
0.748814
0.756362
0.766737
0.778529
0.791949
0.804505
0.810743
0.808498
0.802533
0.804909
0.847567
0.874729
0.827965
0.837001
0.850854
0.838934
0.827078
0.814308
0.798792
0.780958
0.764144
0.75302
0.748931
0.748607
0.74959
0.755665
0.766383
0.778128
0.790661
0.802201
0.809327
0.810899
0.809198
0.809274
0.820455
0.825304
0.870946
0.813901
0.8275
0.838022
0.819905
0.803802
0.785863
0.768615
0.755533
0.749065
0.747529
0.748035
0.750908
0.756751
0.767762
0.779938
0.791829
0.802153
0.808689
0.811096
0.811765
0.813415
0.823973
0.835823
0.82637
0.875461
0.790388
0.813293
0.821307
0.797775
0.779856
0.763559
0.752959
0.748128
0.746887
0.747136
0.750257
0.758524
0.769543
0.782234
0.793743
0.802808
0.808462
0.811037
0.812534
0.815869
0.824899
0.83865
0.840444
0.825168
0.870946
0.758417
0.79473
0.802881
0.780199
0.764463
0.753574
0.748406
0.746857
0.746826
0.749882
0.758713
0.771208
0.783774
0.795063
0.803395
0.808348
0.810693
0.812134
0.814936
0.8231
0.834796
0.840444
0.840891
0.82637
0.875014
0.727955
0.771877
0.784681
0.76971
0.757291
0.749669
0.746387
0.745496
0.748511
0.757187
0.770285
0.78385
0.794844
0.802496
0.806987
0.809489
0.811207
0.813023
0.816612
0.824213
0.83432
0.840902
0.840444
0.828495
0.870946
0.720222
0.745988
0.765578
0.761759
0.753416
0.74741
0.744643
0.744039
0.750111
0.760897
0.773749
0.785947
0.795522
0.802364
0.80663
0.809185
0.811086
0.81324
0.816803
0.822855
0.828546
0.83152
0.840908
0.839129
0.873807
0.71998
0.725622
0.746339
0.749881
0.748294
0.744607
0.742416
0.74191
0.748651
0.758601
0.770798
0.782893
0.792726
0.799784
0.80438
0.807547
0.810063
0.812553
0.815834
0.819707
0.820638
0.802061
0.818205
0.845096
0.870946
0.720056
0.720101
0.730277
0.731424
0.737219
0.737664
0.737237
0.737379
0.743267
0.751583
0.76189
0.772768
0.782297
0.789684
0.795162
0.799783
0.804081
0.808189
0.812158
0.8141
0.812748
0.785715
0.785672
0.84646
0.872933
0.721187
0.720162
0.72289
0.722962
0.724038
0.725127
0.726889
0.728418
0.732673
0.738633
0.745615
0.753054
0.760177
0.766715
0.773086
0.780275
0.788527
0.797535
0.805969
0.808017
0.806798
0.785682
0.785944
0.845096
0.870946
0.724712
0.725784
0.728188
0.725552
0.724545
0.724879
0.725477
0.726534
0.728333
0.731179
0.734657
0.738658
0.743347
0.749342
0.757006
0.767132
0.779789
0.792791
0.806001
0.807955
0.808018
0.794344
0.788884
0.847491
0.872339
0.741866
0.763059
0.765391
0.760012
0.755625
0.753293
0.75212
0.752251
0.753297
0.755309
0.758251
0.761312
0.764825
0.769169
0.77409
0.780165
0.78793
0.795547
0.804509
0.808018
0.807955
0.803654
0.794846
0.845096
0.798904
0.716988
0.806276
0.812069
0.811994
0.807358
0.803615
0.801333
0.80055
0.800436
0.800432
0.800229
0.793192
0.7827
0.765278
0.745713
0.724056
0.707308
0.696983
0.692456
0.69538
0.700807
0.695489
0.683801
0.759692
0.297478
0.37191
0.502981
0.50619
0.503777
0.502537
0.502184
0.502078
0.501937
0.501773
0.501484
0.494888
0.470473
0.433735
0.387518
0.332185
0.283472
0.253945
0.237293
0.227227
0.223295
0.223219
0.223536
0.223464
0.206138
0.0181881
0.0330382
0.052799
0.0548776
0.0539199
0.0547123
0.0560621
0.05696
0.0569703
0.0561065
0.0543242
0.0489086
0.0404257
0.0318732
0.0247118
0.0197586
0.0171846
0.0162668
0.0159671
0.0158538
0.0158769
0.0160364
0.0162336
0.0138919
0.00770805
9.37723e-05
0.000276277
0.000798147
0.00114796
0.0011609
0.00111082
0.00104337
0.000970821
0.000895847
0.000814826
0.000724556
0.000610316
0.000488395
0.000381895
0.000294063
0.000230405
0.000203415
0.000209036
0.000229036
0.000257365
0.000291583
0.000329495
0.000310908
0.000125166
1.79464e-05
1.36318e-07
2.52737e-07
8.62303e-07
5.09108e-07
2.29305e-07
2.03346e-06
1.72595e-06
1.37188e-06
1.0174e-06
1.17441e-06
1.41119e-06
1.40683e-06
1.2448e-06
9.67134e-07
7.55409e-07
7.7268e-07
6.57665e-07
5.96902e-07
7.77984e-07
8.01245e-07
8.9304e-07
1.5012e-06
1.43268e-06
1.67948e-07
7.91053e-09
3.00319e-08
7.267e-09
4.22372e-10
5.32241e-13
0
0
0
0
1.37668e-14
1.3507e-12
1.41135e-10
6.91546e-10
1.78839e-09
2.27295e-09
1.85473e-09
1.17032e-09
2.69872e-10
6.14772e-11
1.60393e-10
5.45941e-12
4.17905e-11
1.10903e-09
2.27557e-09
1.20218e-09
6.31478e-09
5.16572e-09
6.61732e-11
3.33067e-14
0
0
0
0
0
0
1.11022e-16
1.17684e-14
4.89275e-13
4.63429e-12
8.54083e-12
4.38927e-12
7.04103e-13
1.12133e-14
0
0
0
3.10862e-15
2.45137e-13
1.51457e-12
4.27836e-12
3.2059e-09
6.99467e-10
1.80855e-13
0
0
0
0
0
0
0
0
0
1.33227e-15
1.9873e-14
4.57412e-14
1.68754e-14
3.33067e-16
0
0
0
0
0
0
3.33067e-16
6.21725e-15
1.39865e-09
3.4514e-10
8.88178e-16
0
0
0
0
0
0
0
0
0
0
0
3.33067e-16
5.55112e-16
0
0
0
0
0
0
0
0
0
8.95522e-10
)
;

boundaryField
{
    inlet
    {
        type            calculated;
        value           uniform 0.5;
    }
    outlet
    {
        type            calculated;
        value           nonuniform List<scalar> 
25
(
3.4514e-10
8.88178e-16
0
0
0
0
0
0
0
0
0
0
0
3.33067e-16
5.55112e-16
0
0
0
0
0
0
0
0
0
8.95522e-10
)
;
    }
    walls
    {
        type            calculated;
        value           nonuniform List<scalar> 
150
(
0.81879
0.92804
0.929667
0.929584
0.93254
0.929584
0.932406
0.929584
0.931461
0.929584
0.931093
0.929584
0.930052
0.926433
0.90733
0.892139
0.891772
0.891428
0.891737
0.878057
0.861271
0.850714
0.852981
0.852987
0.850904
0.837654
0.806674
0.806669
0.806674
0.813914
0.8418
0.860964
0.862337
0.860964
0.864286
0.860964
0.863944
0.860964
0.856066
0.846014
0.843544
0.841821
0.837888
0.831573
0.801999
0.791352
0.793689
0.791357
0.793689
0.793416
0.811373
0.849772
0.870946
0.871931
0.870946
0.874729
0.870946
0.875461
0.870946
0.875014
0.870946
0.873807
0.870946
0.872933
0.870946
0.872339
0.798904
0.297478
0.0181881
9.37723e-05
1.36318e-07
3.00319e-08
5.16572e-09
6.99467e-10
3.4514e-10
0.764024
0.777287
0.797857
0.799481
0.805517
0.805624
0.805849
0.806198
0.806195
0.806249
0.808683
0.812204
0.814994
0.817686
0.821196
0.827136
0.837245
0.848703
0.855573
0.857145
0.857797
0.857145
0.859115
0.857145
0.860569
0.857145
0.861762
0.857145
0.861736
0.857145
0.861395
0.857145
0.861015
0.857145
0.860602
0.857145
0.85978
0.819936
0.777773
0.777656
0.79489
0.826088
0.844153
0.845096
0.846191
0.845096
0.847576
0.845096
0.848454
0.845096
0.848844
0.845096
0.848825
0.845096
0.847567
0.825304
0.82637
0.825168
0.82637
0.828495
0.839129
0.845096
0.84646
0.845096
0.847491
0.845096
0.759692
0.206138
0.00770805
1.79464e-05
7.91053e-09
6.31478e-09
3.2059e-09
1.39865e-09
8.95522e-10
)
;
    }
    defaultFaces
    {
        type            empty;
    }
}


// ************************************************************************* //
