/*--------------------------------*- C++ -*----------------------------------*\
| =========                 |                                                 |
| \\      /  F ield         | OpenFOAM: The Open Source CFD Toolbox           |
|  \\    /   O peration     | Version:  2312                                  |
|   \\  /    A nd           | Website:  www.openfoam.com                      |
|    \\/     M anipulation  |                                                 |
\*---------------------------------------------------------------------------*/
FoamFile
{
    version     2.0;
    format      ascii;
    arch        "LSB;label=32;scalar=64";
    class       volScalarField;
    location    "0.34/water";
    object      d.gas;
}
// * * * * * * * * * * * * * * * * * * * * * * * * * * * * * * * * * * * * * //

dimensions      [0 1 0 0 0 0 0];

internalField   nonuniform List<scalar> 
750
(
0.00499323657191
0.00499323719002
0.00499323733937
0.00499323734878
0.00499323734985
0.00499323735166
0.00499323735381
0.00499323735624
0.00499323735918
0.00499323736286
0.00499323736735
0.00499323737259
0.0049932373785
0.00499323738502
0.00499323739206
0.00499323739951
0.00499323740729
0.00499323741554
0.0049932374241
0.00499323743351
0.00499324874303
0.00499324920548
0.00499324931704
0.00499324932312
0.00499324932215
0.00499324932124
0.00499324932021
0.00499324931908
0.0049932493181
0.00499324931749
0.00499324931735
0.00499324931768
0.00499324931847
0.00499324931963
0.00499324932104
0.00499324932254
0.00499324932421
0.00499324932621
0.00499324932807
0.00499324933021
0.00499325765494
0.00499325811157
0.00499325822094
0.00499325822619
0.00499325822472
0.00499325822338
0.00499325822191
0.00499325822031
0.00499325821881
0.00499325821765
0.00499325821691
0.00499325821662
0.00499325821669
0.00499325821698
0.00499325821736
0.00499325821782
0.00499325821875
0.00499325822009
0.0049932582217
0.00499325822619
0.00499326705936
0.00499326751628
0.0049932676262
0.00499326763196
0.00499326763084
0.00499326762972
0.00499326762843
0.00499326762699
0.00499326762561
0.00499326762451
0.00499326762374
0.00499326762325
0.00499326762295
0.00499326762279
0.00499326762274
0.00499326762308
0.00499326762393
0.00499326762519
0.00499326762719
0.00499326763199
0.00499327584957
0.00499327668126
0.00499327688212
0.00499327689339
0.00499327689214
0.00499327689091
0.00499327688955
0.00499327688813
0.00499327688684
0.00499327688584
0.00499327688514
0.00499327688473
0.00499327688467
0.00499327688499
0.00499327688581
0.00499327688738
0.00499327688972
0.00499327689301
0.004993276898
0.00499327690658
0.00499328454495
0.00499328551652
0.00499328575163
0.00499328576528
0.00499328576457
0.00499328576398
0.0049932857631
0.00499328576186
0.0049932857604
0.00499328575891
0.00499328575759
0.00499328575662
0.00499328575605
0.00499328575588
0.00499328575614
0.00499328575695
0.00499328575846
0.00499328576104
0.00499328576481
0.00499328576886
0.00499329307244
0.00499329368535
0.00499329383403
0.00499329384298
0.00499329384217
0.00499329384107
0.00499329383974
0.00499329383815
0.00499329383633
0.00499329383441
0.00499329383256
0.00499329383092
0.00499329382946
0.00499329382813
0.0049932938269
0.00499329382578
0.00499329382468
0.00499329382351
0.00499329382239
0.00499329382135
0.00499330085099
0.00499330124211
0.00499330133667
0.00499330134213
0.00499330134144
0.00499330134053
0.00499330133944
0.00499330133819
0.00499330133687
0.00499330133562
0.00499330133452
0.00499330133355
0.00499330133275
0.00499330133212
0.00499330133155
0.00499330133086
0.00499330132952
0.00499330132656
0.00499330132225
0.00499330131842
0.00499330861852
0.00499330900959
0.00499330910414
0.00499330910944
0.00499330910867
0.00499330910775
0.00499330910663
0.00499330910536
0.00499330910409
0.00499330910292
0.00499330910187
0.00499330910098
0.00499330910029
0.0049933090998
0.00499330909946
0.00499330909933
0.00499330909936
0.00499330909786
0.00499330909243
0.00499330908519
0.00499331553581
0.00499331625497
0.00499331642902
0.00499331643927
0.00499331643835
0.00499331643715
0.00499331643574
0.00499331643426
0.00499331643287
0.0049933164317
0.00499331643086
0.00499331643036
0.00499331643012
0.00499331643011
0.0049933164304
0.00499331643107
0.00499331643234
0.00499331643481
0.00499331643719
0.00499331643717
0.00499332248195
0.00499332302833
0.00499332316056
0.00499332316828
0.0049933231675
0.00499332316654
0.00499332316528
0.00499332316381
0.00499332316236
0.0049933231611
0.00499332316001
0.00499332315896
0.00499332315791
0.00499332315692
0.0049933231561
0.00499332315564
0.00499332315576
0.0049933231566
0.00499332315744
0.00499332315507
0.00499332969726
0.00499333005836
0.00499333014605
0.00499333015127
0.00499333015072
0.00499333014995
0.00499333014885
0.00499333014771
0.00499333014672
0.00499333014576
0.00499333014462
0.00499333014332
0.00499333014188
0.00499333014021
0.00499333013821
0.00499333013628
0.00499333013461
0.00499333013308
0.0049933301318
0.00499333013003
0.0049933360402
0.00499333639204
0.00499333647744
0.00499333648246
0.00499333648184
0.00499333648095
0.00499333647985
0.00499333647869
0.00499333647748
0.00499333647628
0.0049933364752
0.00499333647431
0.00499333647366
0.00499333647289
0.00499333647092
0.00499333646686
0.00499333646168
0.00499333645631
0.00499333645068
0.0049933448138
0.00499334516523
0.00499334525078
0.00499334525603
0.00499334525572
0.00499334525517
0.00499334525437
0.00499334525333
0.00499334525229
0.00499334525137
0.0049933452505
0.00499334524973
0.00499334524924
0.00499334524941
0.00499334525012
0.00499334524844
0.00499334523985
0.00499334522647
0.00499334521131
0.0049933570527
0.00499335770796
0.00499335786677
0.00499335787604
0.00499335787517
0.00499335787405
0.00499335787258
0.00499335787079
0.00499335786885
0.0049933578669
0.00499335786504
0.00499335786338
0.00499335786205
0.00499335786132
0.00499335786156
0.00499335786255
0.004993357863
0.00499335786142
0.00499335785907
0.00499337218073
0.00499337271965
0.00499337285074
0.00499337285902
0.00499337285875
0.00499337285821
0.00499337285735
0.00499337285613
0.0049933728545
0.0049933728524
0.00499337284993
0.00499337284731
0.00499337284471
0.00499337284251
0.00499337284111
0.004993372841
0.00499337284183
0.00499337284279
0.0049933728458
0.00499339118215
0.00499339169735
0.00499339182171
0.00499339182835
0.00499339182672
0.00499339182478
0.00499339182236
0.00499339181931
0.00499339181565
0.0049933918113
0.00499339180571
0.00499339179942
0.00499339179454
0.004993391791
0.0049933917881
0.00499339178671
0.00499339179202
0.00499339180396
0.00499339181085
0.00499340881889
0.00499340933435
0.00499340945856
0.00499340946523
0.00499340946387
0.0049934094622
0.00499340945997
0.00499340945705
0.00499340945352
0.00499340945038
0.00499340929552
0.00499340891643
0.00499340868909
0.00499340882513
0.0049934092843
0.00499340999915
0.00499341093027
0.00499341163139
0.00499341163699
0.00499341636807
0.00499341693249
0.00499341706841
0.00499341707574
0.00499341707453
0.0049934170732
0.00499341707153
0.0049934170695
0.00499341706738
0.00499341706595
0.00499341683698
0.00499341640286
0.00499341609644
0.00499341605699
0.00499341625388
0.00499341660088
0.00499341739422
0.00499341914614
0.00499342088006
0.00499342941467
0.00499342986697
0.00499342997616
0.00499342998217
0.00499342998091
0.00499342997917
0.00499342997716
0.00499342997532
0.00499342997397
0.00499342997348
0.00499342997421
0.00499342997538
0.0049934299758
0.00499342997491
0.00499342997274
0.00499342997016
0.00499342996505
0.00499342995034
0.00499342992598
0.00499343793815
0.00499343803403
0.00499343805701
0.0049934380578
0.00499343805676
0.00499343805542
0.00499343805391
0.00499343805238
0.00499343805095
0.00499343804973
0.00499343804876
0.00499343804801
0.00499343804735
0.00499343804645
0.00499343804498
0.00499343804267
0.00499343803911
0.0049934380344
0.00499343802848
0.0049934431199
0.00499344314868
0.00499344315585
0.00499344315625
0.00499344315613
0.004993443156
0.00499344315583
0.00499344315551
0.00499344315523
0.00499344315512
0.00499344315488
0.00499344315438
0.00499344315374
0.00499344315283
0.00499344315144
0.00499344314957
0.00499344314692
0.00499344314374
0.00499344313966
0.00499344786508
0.00499344792602
0.00499344794098
0.00499344794179
0.00499344794142
0.0049934479409
0.00499344794029
0.0049934479394
0.00499344793824
0.00499344793725
0.00499344793641
0.00499344793529
0.00499344793379
0.00499344793212
0.00499344793008
0.00499344792794
0.00499344792535
0.00499344792282
0.00499344791963
0.00499344791551
0.00499345318813
0.00499345323563
0.00499345324755
0.00499345324824
0.00499345324798
0.00499345324767
0.00499345324732
0.00499345324665
0.0049934532454
0.00499345324374
0.00499345324239
0.00499345324117
0.0049934532397
0.0049934532382
0.00499345323677
0.0049934532351
0.00499345323344
0.00499345323178
0.00499345323064
0.00499345323086
0.00499346253119
0.00499346257027
0.00499346258013
0.00499346258045
0.00499346257987
0.00499346257921
0.00499346257874
0.00499346257815
0.00499346257704
0.00499346257488
0.0049934625708
0.00499346256624
0.00499346256194
0.00499346255846
0.00499346255659
0.00499346255503
0.00499346255289
0.00499346255109
0.00499346255198
0.0049934625628
0.00499348589276
0.00499348608331
0.00499348612885
0.00499348613075
0.00499348612939
0.00499348612754
0.00499348612509
0.00499348612322
0.00499348612249
0.00499348612455
0.00499348605539
0.00499348580821
0.00499348550592
0.00499348529956
0.0049934852304
0.00499348530356
0.00499348552449
0.0049934859428
0.00499348666792
0.00499348744961
0.00499352015369
0.00499352152569
0.00499352185194
0.00499352186091
0.00499352185013
0.00499352184311
0.00499352191031
0.00499352218354
0.00499352258789
0.00499352284711
0.00499352275655
0.00499352229222
0.0049935215991
0.00499352100445
0.00499352083835
0.0049935214253
0.00499352154459
0.00499352059374
0.00499351899769
0.00499351909005
0.00499354752979
0.00499355051577
0.00499355123295
0.00499355123715
0.00499355120208
0.00499355131844
0.00499355165351
0.00499355198248
0.00499355182729
0.00499355092364
0.00499354998229
0.00499355144695
0.0049935586507
0.00499356178613
0.00499357300939
0.0049935737559
0.00499359074457
0.00499359187265
0.00499355810172
0.00499355784404
0.00499357710323
0.00499358734234
0.004993595792
0.00499359620389
0.00499359836509
0.00499360204898
0.0049936058303
0.00499360781569
0.0049936077675
0.004993609312
0.0049936176574
0.00499363174516
0.00499362605403
0.00499364451787
0.00499365343021
0.00499366782547
0.00499363428221
0.00499360323427
0.00499360291542
0.00499360277529
0.00499393414868
0.00499393735351
0.00499393808664
0.00499393786951
0.00499393751183
0.00499393732114
0.00499393701904
0.00499393663498
0.00499393741964
0.00499394221017
0.00499395331516
0.0049939548023
0.00499396715041
0.00499396501176
0.00499396506908
0.00499394398176
0.00499393464717
0.00499393443337
0.00499393439022
0.00499393484693
0.00499514830678
0.00499515126628
0.00499515201269
0.00499515206619
0.00499515204628
0.00499515199159
0.00499515194221
0.00499515238645
0.00499515375836
0.00499515645812
0.00499516049043
0.00499516445955
0.00499516653575
0.00499516611126
0.00499516509507
0.00499516542085
0.00499516739686
0.00499516999704
0.00499517319486
0.00499517735609
0.00499696300293
0.00499696589885
0.00499696660128
0.00499696664239
0.00499696666629
0.00499696660386
0.00499696673905
0.00499696741999
0.00499696911126
0.00499697259981
0.00499697951577
0.00499698983349
0.00499699946003
0.00499700368783
0.00499701172459
0.00499701800591
0.00499702994242
0.00499704015395
0.00499705251778
0.00499706300884
0.00499977897428
0.00499977690423
0.00499977954413
0.00499976533255
0.00499975503435
0.00499975313472
0.00499975950486
0.00499976582193
0.0049997609206
0.00499976075825
0.00499975724386
0.00499975641964
0.0049997527835
0.00499975477436
0.00499975559152
0.00499976111777
0.00499976926472
0.00499974976467
0.00499971246817
0.00499969669309
0.00499984797077
0.00499985059871
0.0049998512064
0.00499985075835
0.00499984885338
0.00499984623211
0.0049998430967
0.00499983908025
0.00499983451325
0.00499983026845
0.00499982711544
0.0049998248392
0.00499982278986
0.00499982054514
0.00499981764335
0.00499981355688
0.00499980724348
0.00499979927518
0.00499979203439
0.00499978606019
0.00499994462766
0.00499994483554
0.00499994488436
0.00499994488918
0.00499994489161
0.00499994489331
0.00499994489392
0.00499994489328
0.00499994489106
0.00499994488676
0.00499994488067
0.00499994487412
0.00499994486829
0.00499994486371
0.00499994485985
0.00499994485513
0.00499994484781
0.00499994483677
0.00499994482301
0.00499994480504
0.00499996625855
0.00499996631897
0.00499996633306
0.0049999663342
0.00499996633504
0.00499996633606
0.00499996633689
0.00499996633732
0.00499996633721
0.00499996633658
0.00499996633565
0.00499996633474
0.00499996633417
0.0049999663342
0.00499996633484
0.00499996633603
0.00499996633743
0.00499996633848
0.00499996633983
0.0049999663475
0.00499997746338
0.00499997751485
0.00499997752697
0.00499997752769
0.00499997752783
0.00499997752803
0.00499997752815
0.0049999775281
0.00499997752785
0.00499997752743
0.00499997752691
0.00499997752636
0.00499997752586
0.0049999775255
0.00499997752529
0.0049999775252
0.00499997752533
0.00499997752563
0.00499997752696
0.00499997753141
0.00499998995795
0.00499999000951
0.00499999002198
0.00499999002282
0.0049999900229
0.00499999002296
0.00499999002295
0.00499999002286
0.0049999900227
0.00499999002249
0.00499999002226
0.00499999002201
0.00499999002175
0.0049999900215
0.00499999002125
0.00499999002101
0.00499999002092
0.004999990021
0.00499999002287
0.00499999002942
)
;

boundaryField
{
    emptyPatch
    {
        type            empty;
    }
    minY
    {
        type            calculated;
        value           nonuniform List<scalar> 0();
    }
    maxY
    {
        type            calculated;
        value           uniform 0.005;
    }
    maxX
    {
        type            calculated;
        value           nonuniform List<scalar> 0();
    }
    water_to_heater
    {
        type            calculated;
        value           nonuniform List<scalar> 
61
(
0.00499321917207
0.00499325385924
0.00499324059604
0.00499327296732
0.00499325759991
0.00499326700311
0.00499324786963
0.00499328508831
0.00499326516838
0.00499330377998
0.00499328435574
0.00499331896885
0.00499330079121
0.00499330855777
0.00499328849852
0.00499332445549
0.00499330557544
0.00499333925688
0.00499332200712
0.00499335251793
0.00499333597544
0.00499334474724
0.00499333058598
0.00499336577492
0.00499335531846
0.00499338889997
0.00499338280164
0.00499341603326
0.00499340874244
0.0049934162885
0.00499340518801
0.00499343739185
0.00499342679015
0.00499344897572
0.00499343892308
0.00499345551018
0.00499344781202
0.00499345313315
0.00499344905942
0.00499346694004
0.00499347273373
0.00499349889792
0.00499350955345
0.00499355146434
0.00499354730195
0.00499357683137
0.00499388779154
0.00499394924022
0.00499511950994
0.00499517656571
0.00499694844878
0.00499700559313
0.00499977865786
0.0049998477438
0.00499992445781
0.00499995123508
0.00499995625009
0.0049999761244
0.00499997261951
0.00499999173293
0.00499998989413
)
;
    }
    procBoundary3to0
    {
        type            processor;
        value           nonuniform List<scalar> 
20
(
0.00499322183826
0.0049932224143
0.00499322255183
0.0049932225579
0.00499322255538
0.00499322255296
0.00499322255042
0.00499322254782
0.00499322254542
0.00499322254352
0.00499322254224
0.00499322254157
0.00499322254146
0.00499322254191
0.00499322254302
0.00499322254497
0.00499322254789
0.0049932225519
0.00499322255657
0.00499322256144
)
;
    }
    procBoundary3to1
    {
        type            processor;
        value           uniform 0.00499323750233;
    }
    procBoundary3to2
    {
        type            processor;
        value           nonuniform List<scalar> 
39
(
0.00499324935806
0.00499325827117
0.00499326766996
0.00499327696065
0.00499328579124
0.00499329382698
0.00499330131535
0.00499330906164
0.00499331642765
0.00499332312482
0.00499333645209
0.00499333011368
0.00499333645209
0.00499334520443
0.00499335787049
0.00499337287035
0.0049933918196
0.00499341163244
0.00499342087764
0.0049934299087
0.00499343801642
0.00499344313346
0.00499344313346
0.00499344788671
0.00499345324175
0.0049934626426
0.00499348763148
0.00499351914834
0.00499355708226
0.00499360238983
0.0049939414258
0.00499519957491
0.00499703713994
0.00499964646886
0.00499974957589
0.00499993683876
0.00499996583328
0.00499997752709
0.00499999062197
)
;
    }
}


// ************************************************************************* //
