/*--------------------------------*- C++ -*----------------------------------*\
| =========                 |                                                 |
| \\      /  F ield         | OpenFOAM: The Open Source CFD Toolbox           |
|  \\    /   O peration     | Version:  2312                                  |
|   \\  /    A nd           | Website:  www.openfoam.com                      |
|    \\/     M anipulation  |                                                 |
\*---------------------------------------------------------------------------*/
FoamFile
{
    version     2.0;
    format      ascii;
    arch        "LSB;label=32;scalar=64";
    class       surfaceScalarField;
    location    "0.095/water";
    object      phi.gas;
}
// * * * * * * * * * * * * * * * * * * * * * * * * * * * * * * * * * * * * * //

dimensions      [0 3 -1 0 0 0 0];

oriented        oriented;

internalField   nonuniform List<scalar> 
2916
(
6.03820809688e-07
8.2959159537e-07
6.45188072566e-07
8.57449981392e-07
6.46444150224e-07
8.98654196963e-07
5.73302365659e-07
9.45576078648e-07
4.18177866183e-07
9.98112397676e-07
2.20956768063e-07
1.06224646829e-06
5.56572830085e-08
1.132762608e-06
-2.50701222847e-08
1.19630396296e-06
-5.38861578965e-08
1.22874590838e-06
-4.44615372656e-08
1.13388639945e-06
-3.87664207781e-08
8.70034923102e-07
-6.59487605021e-08
7.51907901865e-07
7.37698643444e-07
-1.07786348148e-07
3.44659105289e-07
8.67430425024e-07
4.27603509228e-07
8.48407708233e-07
3.63707446032e-07
8.68256364167e-07
3.18998489049e-07
8.75487229824e-07
3.20907145e-07
8.52161286872e-07
3.53873751596e-07
8.44381717933e-07
3.93199471554e-07
8.43529201979e-07
4.04191574901e-07
8.45315471123e-07
3.50435399785e-07
8.6392767875e-07
2.37002324735e-07
9.06942718144e-07
1.03882717685e-07
9.65708674476e-07
-1.74307184199e-08
1.03081869725e-06
-9.79027770913e-08
1.09370700812e-06
-1.28509897513e-07
1.15211287902e-06
-1.32219825954e-07
1.20012926834e-06
-1.2089555019e-07
1.21236673675e-06
-9.40534861718e-08
1.09465552774e-06
-9.76984992297e-08
8.35352628118e-07
-1.31237340534e-07
7.22096958007e-07
7.10387659641e-07
-1.72094887294e-07
3.95922285954e-07
8.71136888711e-07
2.90603352053e-07
9.01233870983e-07
1.60503169828e-07
9.51357265196e-07
4.76084864341e-08
9.63417076013e-07
-2.6887501833e-08
9.26159055002e-07
-8.88327535164e-08
9.06225603311e-07
-1.40697248582e-07
8.89086945676e-07
-1.91369509769e-07
8.70737357227e-07
-2.43084060727e-07
8.74204520376e-07
-2.80413949303e-07
9.06084036276e-07
-2.99875730747e-07
9.56937465462e-07
-3.02139153645e-07
1.01455073952e-06
-2.88138526193e-07
1.07108680582e-06
-2.61273402585e-07
1.12071623067e-06
-2.21447593659e-07
1.1558537292e-06
-1.71024170522e-07
1.15454352259e-06
-1.32673987048e-07
1.03499757706e-06
-1.40489904633e-07
7.96878300151e-07
-1.76358630979e-07
6.83098619938e-07
6.72647812167e-07
-2.17700076693e-07
3.40848810701e-07
7.91542436429e-07
1.48749211749e-07
9.15748660245e-07
7.55774081355e-09
9.94391386303e-07
-1.46412087817e-07
1.01755689747e-06
-3.16954430833e-07
9.90066377659e-07
-4.99110240648e-07
9.71898102309e-07
-6.56680309744e-07
9.45286681667e-07
-7.46464354671e-07
9.07830738878e-07
-7.46480805218e-07
8.79730314045e-07
-6.88465024388e-07
8.76652016307e-07
-6.15192921531e-07
9.03400981782e-07
-5.35432643075e-07
9.4289651317e-07
-4.57941541944e-07
9.88159620448e-07
-3.808217811e-07
1.03269485627e-06
-2.97286178269e-07
1.06311850408e-06
-2.09698020792e-07
1.05634096571e-06
-1.5181885819e-07
9.51655736058e-07
-1.55223950971e-07
7.5185172181e-07
-1.89034931933e-07
6.41305391757e-07
6.26752357849e-07
-2.33330012746e-07
2.8465261315e-07
6.50563654538e-07
1.98414617454e-07
9.0964753069e-07
1.30775211237e-07
1.00085080348e-06
3.63001152941e-08
1.04699001437e-06
-1.19383028568e-07
1.06672864164e-06
-3.24840283159e-07
1.08483634371e-06
-5.8449168312e-07
1.09117439475e-06
-8.17195543381e-07
1.00815798882e-06
-9.2665897402e-07
8.92064801199e-07
-9.08216920314e-07
8.46159296244e-07
-8.08679887687e-07
8.34257415121e-07
-6.90602392868e-07
8.49426458574e-07
-5.68673518525e-07
8.78371249399e-07
-4.49660112443e-07
9.10270570411e-07
-3.34934530417e-07
9.37230747065e-07
-2.23968826664e-07
9.32939608717e-07
-1.45604191485e-07
8.52199888155e-07
-1.36357160814e-07
7.0201628013e-07
-1.63637940733e-07
6.03523693612e-07
5.80568158462e-07
-2.09471424459e-07
1.42170915019e-07
6.07220238748e-07
1.40841703177e-07
8.82028144083e-07
1.37143274227e-07
9.86613938552e-07
1.25631239202e-07
1.04390569783e-06
9.29152152782e-08
1.08276202395e-06
3.71929376049e-08
1.11909061472e-06
-5.059932911e-08
1.1483722187e-06
-2.49607928484e-07
1.14998980207e-06
-5.70282530532e-07
1.10080060733e-06
-7.52724939656e-07
9.06604755246e-07
-7.67336352047e-07
8.04464723504e-07
-6.83395062629e-07
7.79326619338e-07
-5.67115376169e-07
7.81669538117e-07
-4.4100283894e-07
7.96083440838e-07
-3.14431797756e-07
8.10306361474e-07
-1.98266085079e-07
8.07936697471e-07
-1.14874212637e-07
7.54323409021e-07
-9.24542586518e-08
6.52748345047e-07
-1.09883731113e-07
5.73217474524e-07
5.42998455724e-07
-1.5186368225e-07
1.19408213024e-07
5.72102440351e-07
1.3024956304e-07
8.50320983881e-07
1.50612319548e-07
9.57080606248e-07
1.73742421323e-07
1.01889459303e-06
1.88827461868e-07
1.06824665203e-06
1.9409693423e-07
1.11564763165e-06
1.82759301918e-07
1.15980228671e-06
1.35740782035e-07
1.18945191788e-06
1.3719076828e-08
1.1871169349e-06
-2.80328262105e-07
1.12156666652e-06
-4.76367637366e-07
9.0131542429e-07
-5.04221048868e-07
7.59401545596e-07
-4.45844025557e-07
7.24634556396e-07
-3.51446262081e-07
7.12854649577e-07
-2.41987487017e-07
7.10218502856e-07
-1.38793715131e-07
7.04655061533e-07
-6.48428947037e-08
6.71143848364e-07
-3.8025258622e-08
6.09045725723e-07
-4.62857691922e-08
5.50515501693e-07
5.1846157545e-07
-7.97707236311e-08
1.16745140732e-07
5.37192921769e-07
1.33616179073e-07
8.10521117837e-07
1.61619033265e-07
9.17559823535e-07
1.92938844615e-07
9.81636549786e-07
2.22245505272e-07
1.03582212202e-06
2.46847900742e-07
1.08908265996e-06
2.63578619709e-07
1.14161458088e-06
2.63667383032e-07
1.18810714523e-06
2.29763429183e-07
1.2170242057e-06
1.38224906174e-07
1.19267440085e-06
-1.07197786298e-07
1.09658076269e-06
-2.06741079821e-07
8.02738984586e-07
-2.33083082907e-07
7.24415382165e-07
-1.96037533343e-07
6.73959574375e-07
-1.28885032898e-07
6.48722727232e-07
-5.6289658983e-08
6.34460875953e-07
-2.43379915119e-09
6.11666630168e-07
1.90492083496e-08
5.7518223929e-07
1.57107821595e-08
5.34170096474e-07
5.05824812177e-07
-9.35597195173e-09
1.13342600096e-07
5.04567622546e-07
1.30818788278e-07
7.69383209339e-07
1.5823089787e-07
8.76311349822e-07
1.90109979239e-07
9.41749915498e-07
2.22134634131e-07
9.98557054716e-07
2.52289332441e-07
1.05491438342e-06
2.78845779043e-07
1.11157254732e-06
2.98252423409e-07
1.16536838371e-06
3.06001978644e-07
1.20769552509e-06
2.88537247383e-07
1.20927240271e-06
2.50280375304e-07
1.13143044295e-06
5.75732127357e-08
9.82155133581e-07
-6.2360205221e-09
7.69330503892e-07
-1.80388037145e-08
6.77046945843e-07
3.82190902316e-09
6.26438917533e-07
3.91048246724e-08
5.99325065124e-07
6.69359080804e-08
5.78279482185e-07
7.78034997252e-08
5.53795330771e-07
7.32064357044e-08
5.24767404315e-07
5.01738182146e-07
5.33885664533e-08
1.08651127965e-07
4.76468696585e-07
1.25781417365e-07
7.29385417768e-07
1.50786855824e-07
8.36994461565e-07
1.78564667672e-07
9.05151393285e-07
2.06361763497e-07
9.64505843876e-07
2.32844856489e-07
1.02348614274e-06
2.56420047842e-07
1.08341724217e-06
2.75078910267e-07
1.14254378485e-06
2.84641071408e-07
1.19494575374e-06
2.80480935398e-07
1.21352090352e-06
2.54108357761e-07
1.16236825961e-06
2.02709078843e-07
1.03777851169e-06
1.51694387766e-07
8.20357390013e-07
1.27009071117e-07
7.00323169295e-07
1.24250916942e-07
6.30093113622e-07
1.32914752509e-07
5.90367941395e-07
1.38504289541e-07
5.65934538651e-07
1.36083602965e-07
5.4545385091e-07
1.2593879629e-07
5.23244248885e-07
5.04583321023e-07
1.08049016983e-07
1.06750246293e-07
4.49999072331e-07
1.2564134637e-07
6.89233174477e-07
1.52288097471e-07
7.97805812297e-07
1.75770699822e-07
8.72422240503e-07
1.97555823617e-07
9.36065263184e-07
2.17531401282e-07
9.979085262e-07
2.35790914242e-07
1.06023619311e-06
2.50851795627e-07
1.12251271016e-06
2.62075450133e-07
1.17992661848e-06
2.68827622344e-07
1.20646767189e-06
2.73007999499e-07
1.1641654398e-06
2.60972420876e-07
1.06092865821e-06
2.36545613598e-07
8.5486342245e-07
2.19765433465e-07
7.25010202762e-07
2.12940274859e-07
6.43501288763e-07
2.10187294638e-07
5.95035455093e-07
2.01801186323e-07
5.66809726883e-07
1.87557116006e-07
5.47118699304e-07
1.71396789388e-07
5.28404997097e-07
5.12827313368e-07
1.53754998085e-07
1.18352583005e-07
4.24121836475e-07
1.35610648355e-07
6.49966224976e-07
1.64334158322e-07
7.58293443694e-07
1.88252781806e-07
8.40839074831e-07
2.02829873054e-07
9.13816619878e-07
2.15592110012e-07
9.79295630757e-07
2.2661850754e-07
1.04366136719e-06
2.36598169079e-07
1.10743664421e-06
2.45302869097e-07
1.16672047139e-06
2.57181746423e-07
1.19470407034e-06
2.7230078834e-07
1.15595970493e-06
2.83607483486e-07
1.06215473992e-06
2.79576371447e-07
8.72289470492e-07
2.74657458313e-07
7.43297007503e-07
2.72700129534e-07
6.58012041207e-07
2.67850051462e-07
6.05305163289e-07
2.52163611991e-07
5.74751018122e-07
2.29334375507e-07
5.55177755655e-07
2.0792202569e-07
5.38250298249e-07
5.24859689904e-07
1.90204974943e-07
1.42650472679e-07
4.03812035337e-07
1.52164925232e-07
6.16076398757e-07
1.77490617814e-07
7.22039876473e-07
2.02703247671e-07
8.10125647297e-07
2.12515368554e-07
8.96401379178e-07
2.16332016941e-07
9.68965495464e-07
2.18550584507e-07
1.03579524444e-06
2.19964009696e-07
1.100313919e-06
2.23220524713e-07
1.15884251e-06
2.38576901117e-07
1.18154942952e-06
2.62681529558e-07
1.14126865431e-06
2.88820028559e-07
1.04980120929e-06
3.01335607224e-07
8.74638225415e-07
3.08029347235e-07
7.54099132138e-07
3.14123967439e-07
6.70661578649e-07
3.11016571585e-07
6.17544822985e-07
2.91276136283e-07
5.86470329371e-07
2.61845590823e-07
5.67305464326e-07
2.36058137846e-07
5.51377718022e-07
5.39668506304e-07
2.1852960651e-07
1.6276265622e-07
3.91856832601e-07
1.63370337509e-07
5.90469081806e-07
1.81048012031e-07
6.92777394746e-07
2.02483170913e-07
7.83802010066e-07
2.11069538554e-07
8.82206745241e-07
2.07134189798e-07
9.66384413381e-07
1.99438401763e-07
1.03731058581e-06
1.91869361336e-07
1.10219387985e-06
1.92155832217e-07
1.15605175843e-06
2.10731241382e-07
1.16967294489e-06
2.36056424451e-07
1.12840272057e-06
2.8785659075e-07
1.01328601011e-06
3.13476623528e-07
8.6648680014e-07
3.31357421866e-07
7.59065349336e-07
3.45496844705e-07
6.8126243748e-07
3.44936720599e-07
6.3055989286e-07
3.21940598798e-07
6.00581447875e-07
2.86537245138e-07
5.82359826506e-07
2.57331977906e-07
5.67013873591e-07
5.56719439032e-07
2.4037216159e-07
1.73428413258e-07
3.87907671804e-07
1.65533914116e-07
5.74833499962e-07
1.72987538816e-07
6.73414250649e-07
1.83658766367e-07
7.67692478266e-07
1.8879295602e-07
8.74022411596e-07
1.81757050466e-07
9.69288975651e-07
1.70519191792e-07
1.04478838204e-06
1.62130268826e-07
1.10815283745e-06
1.70254555637e-07
1.15233186239e-06
1.96545861091e-07
1.15580857051e-06
2.27585374926e-07
1.11316741048e-06
2.90884961025e-07
9.67090796374e-07
3.2446216742e-07
8.54152933934e-07
3.51156628079e-07
7.60837050671e-07
3.7176874056e-07
6.90737330328e-07
3.72963848346e-07
6.44369336768e-07
3.46032876561e-07
6.16760718916e-07
3.04457123471e-07
5.99919358956e-07
2.72761490968e-07
5.84782465549e-07
5.75865223759e-07
2.56876602224e-07
1.78805346501e-07
3.93012523068e-07
1.66690814233e-07
5.66056541387e-07
1.57327581039e-07
6.69372942972e-07
1.49067578866e-07
7.69853577376e-07
1.4275642532e-07
8.8005355514e-07
1.36325668623e-07
9.78625702391e-07
1.30799048685e-07
1.05425451829e-06
1.33840816337e-07
1.11191604894e-06
1.55597754086e-07
1.1438256549e-06
1.90934084153e-07
1.13773529304e-06
2.50358380532e-07
1.07238752863e-06
2.9986911143e-07
9.36822433229e-07
3.37354505602e-07
8.41770799908e-07
3.70464196576e-07
7.61755854645e-07
3.95568561597e-07
7.00406350384e-07
3.9651943712e-07
6.59497462273e-07
3.64006222832e-07
6.35185256829e-07
3.15827262238e-07
6.20004640278e-07
2.82678262061e-07
6.04579637441e-07
5.9707652562e-07
2.68566646819e-07
1.67485515604e-07
4.24185853177e-07
1.72425050578e-07
5.43558010779e-07
1.3598214056e-07
6.92521017913e-07
9.57312228794e-08
8.05386104196e-07
6.48687835062e-08
9.15579719213e-07
5.40930320442e-08
1.00204545959e-06
5.7978158929e-08
1.06611695919e-06
7.60920316714e-08
1.11213784364e-06
1.09307574077e-07
1.13114217024e-06
1.59142443721e-07
1.10731743691e-06
2.62292359655e-07
9.87675505411e-07
3.11793874521e-07
9.08681922473e-07
3.52131667294e-07
8.30989330004e-07
3.90427173987e-07
7.63576385005e-07
4.17425365482e-07
7.11588834338e-07
4.15008748832e-07
6.7652340031e-07
3.75095666254e-07
6.56348556228e-07
3.20266106538e-07
6.42988778755e-07
2.86824662096e-07
6.26366229142e-07
6.20205001814e-07
2.75263044356e-07
1.22273642557e-07
5.18369727611e-07
9.45604552321e-08
5.64047821726e-07
7.92746331675e-08
6.99657119922e-07
-1.36113282671e-08
8.98745708762e-07
-8.64269944768e-08
1.00065185533e-06
-1.11802899212e-07
1.05013344713e-06
-8.35615840223e-08
1.06535755192e-06
-1.65354387532e-08
1.07313512903e-06
9.60668103655e-08
1.04359611663e-06
2.20171597455e-07
1.00570978392e-06
2.78106155335e-07
9.50544409884e-07
3.24982355672e-07
8.86785187119e-07
3.68146269058e-07
8.23271898208e-07
4.10360179955e-07
7.67774265603e-07
4.3504050843e-07
7.25289580992e-07
4.26198398197e-07
6.95897191748e-07
3.7781899241e-07
6.81089937602e-07
3.16640894807e-07
6.69302634567e-07
2.84249368059e-07
6.49756881033e-07
6.44844455299e-07
2.75946560094e-07
1.50020662823e-07
5.99733067787e-07
9.73740516887e-08
6.05590726988e-07
6.10840356189e-08
7.27336395138e-07
-1.40113051848e-07
1.10305888361e-06
-2.80487473629e-07
1.15650825045e-06
-1.9409759388e-07
9.88010820149e-07
-6.28131386515e-08
9.67231956838e-07
6.86461868725e-08
9.76758372006e-07
1.63315260211e-07
9.79349026152e-07
2.33910979768e-07
9.60520433577e-07
2.88802603705e-07
9.19613844839e-07
3.35692099976e-07
8.70029432568e-07
3.82751405061e-07
8.18745878863e-07
4.25642351588e-07
7.747738827e-07
4.43348766043e-07
7.41275942711e-07
4.27993128446e-07
7.17915372803e-07
3.70028696114e-07
7.10329646817e-07
3.03093865103e-07
6.98750638813e-07
2.73709964129e-07
6.73761458576e-07
6.70103861537e-07
2.69069056969e-07
2.02360021445e-07
6.42016019335e-07
1.37651004121e-07
6.5250741837e-07
8.06185542612e-08
7.73552980189e-07
-1.63175895279e-07
1.34812743704e-06
-1.18217364652e-07
1.12152330667e-06
-6.73537547474e-08
9.57010612418e-07
1.05503998916e-08
9.24883831716e-07
9.61498603567e-08
9.2994632953e-07
1.7494416964e-07
9.34036809459e-07
2.40631826622e-07
9.22916951127e-07
2.93329523007e-07
8.95244637337e-07
3.43088075125e-07
8.56763024613e-07
3.93333777587e-07
8.16856737057e-07
4.29342255132e-07
7.83738361095e-07
4.39353144805e-07
7.58312451739e-07
4.20098112896e-07
7.43262420754e-07
3.49795499686e-07
7.45055252801e-07
2.78704422373e-07
7.29853558957e-07
2.54547528144e-07
6.96674821373e-07
6.94199115163e-07
2.52846447554e-07
2.14852924784e-07
6.79978713259e-07
1.50865025302e-07
6.93311659153e-07
9.33076861552e-08
8.19657382749e-07
-3.8107015243e-08
1.47844391756e-06
-3.87884653284e-08
1.1238862485e-06
-1.86723589025e-08
9.48799183203e-07
3.75820156114e-08
8.99047983507e-07
1.10073960597e-07
8.95806751966e-07
1.80080231576e-07
8.99745125263e-07
2.40484852433e-07
8.94024424429e-07
2.93632760389e-07
8.74575105467e-07
3.45668468773e-07
8.4541021762e-07
3.93072592074e-07
8.15805845593e-07
4.18055707309e-07
7.92133726359e-07
4.27723952317e-07
7.74606833015e-07
4.02401258842e-07
7.71903968432e-07
3.14042269611e-07
7.84058873401e-07
2.44578377768e-07
7.59007313076e-07
2.27596270806e-07
7.16127189401e-07
7.13936693818e-07
2.26015041673e-07
2.26653397132e-07
7.09518960185e-07
1.67520346546e-07
7.25965219191e-07
1.19410194844e-07
8.55474215443e-07
6.75418610804e-08
1.52599138427e-06
4.06744619029e-08
1.14872636865e-06
3.40245127335e-08
9.59766477557e-07
6.35240165643e-08
8.8950963797e-07
1.18136625963e-07
8.73263701912e-07
1.79078598746e-07
8.72898356294e-07
2.3588397902e-07
8.68960836291e-07
2.88609939941e-07
8.54563608245e-07
3.39205963966e-07
8.32535984975e-07
3.76573896973e-07
8.11777830406e-07
3.98590319447e-07
7.96123008478e-07
4.1677228743e-07
7.88126739263e-07
3.72229856652e-07
8.01836742432e-07
2.61338710949e-07
8.22037663298e-07
2.05783659233e-07
7.81038528526e-07
1.95991748614e-07
7.28522419369e-07
7.25361240725e-07
1.90373799023e-07
2.31735884208e-07
7.36044580742e-07
1.77728291335e-07
7.5295567322e-07
1.41857194328e-07
8.79042122949e-07
1.36125090784e-07
1.52533620071e-06
1.07354611975e-07
1.17550359516e-06
9.05915844186e-08
9.79171007951e-07
1.03042632136e-07
8.90819659169e-07
1.39184359789e-07
8.60231398525e-07
1.85936352172e-07
8.52697258492e-07
2.33722080245e-07
8.47024312886e-07
2.80422979138e-07
8.3429628818e-07
3.22839713745e-07
8.1685897558e-07
3.541901543e-07
8.03261875401e-07
3.86282896211e-07
7.94486047018e-07
4.05808948931e-07
7.9841344497e-07
3.14117174598e-07
8.28608411807e-07
2.05757746978e-07
8.54160560521e-07
1.73592970546e-07
7.9548637712e-07
1.66137373545e-07
7.33322312512e-07
7.28809266222e-07
1.55185975557e-07
2.52971136297e-07
7.49704126015e-07
2.07564054313e-07
7.68294934777e-07
1.78996651511e-07
8.91839120457e-07
1.90834558733e-07
1.5048255215e-06
1.63013836903e-07
1.20128530322e-06
1.4093030308e-07
1.00366650033e-06
1.43559568638e-07
9.00604690375e-07
1.6611512892e-07
8.55972958339e-07
1.99064402849e-07
8.39697844359e-07
2.35418719968e-07
8.29982706764e-07
2.72830242989e-07
8.16552258569e-07
3.06915731922e-07
8.01491905514e-07
3.39897697241e-07
7.92980534306e-07
3.84857675389e-07
7.9099453474e-07
3.6777559422e-07
8.08852798458e-07
2.43510028821e-07
8.53747831552e-07
1.79504364678e-07
8.78780766348e-07
1.56977140551e-07
8.07048663215e-07
1.46742416897e-07
7.34774928082e-07
7.28419111923e-07
1.30746858143e-07
2.67322955509e-07
7.52799593623e-07
2.31374179099e-07
7.73504343261e-07
2.11582792185e-07
8.93593584295e-07
2.35548552276e-07
1.46911860491e-06
2.06853197835e-07
1.22617835095e-06
1.79618890765e-07
1.03036808093e-06
1.73236126474e-07
9.15866867689e-07
1.86040129274e-07
8.58729277737e-07
2.09129606461e-07
8.33382279879e-07
2.3704518989e-07
8.18430927458e-07
2.68339489357e-07
8.03036065812e-07
2.99147227045e-07
7.89034922647e-07
3.37278189308e-07
7.83938044281e-07
3.76780823718e-07
7.89283677715e-07
3.07691098279e-07
8.23577275372e-07
2.13400516695e-07
8.76097332629e-07
1.77077206431e-07
8.96556361026e-07
1.53167516163e-07
8.17338271173e-07
1.38956528433e-07
7.35726117642e-07
7.26987183267e-07
1.18789021687e-07
2.81479072435e-07
7.4760415909e-07
2.5153458621e-07
7.70570472618e-07
2.37831901141e-07
8.87315531613e-07
2.76846507077e-07
1.4157798907e-06
2.36119505079e-07
1.26032384399e-06
2.06247623239e-07
1.05688502928e-06
1.94389773507e-07
9.32377194668e-07
1.99423560023e-07
8.64976174074e-07
2.15376278815e-07
8.3123392358e-07
2.38647892408e-07
8.10704510149e-07
2.67970063974e-07
7.92804986191e-07
2.9911997946e-07
7.79242356714e-07
3.41490401457e-07
7.76500318483e-07
3.50420055401e-07
7.89835015122e-07
2.63559478498e-07
8.40583329936e-07
2.12600038943e-07
8.92163322833e-07
1.79159954749e-07
9.07726340235e-07
1.54414743263e-07
8.26111080331e-07
1.38166558147e-07
7.37697147103e-07
7.26398300709e-07
1.1639709004e-07
2.8281229173e-07
7.36371781654e-07
2.5928970459e-07
7.62720704802e-07
2.47095329533e-07
8.7854174966e-07
2.96055084735e-07
1.34934838458e-06
2.38174450751e-07
1.31197898836e-06
2.12910929665e-07
1.07924775608e-06
2.02895966109e-07
9.4649940777e-07
2.06372361621e-07
8.71630313541e-07
2.19832029808e-07
8.31044365272e-07
2.41912209805e-07
8.05609367633e-07
2.71222476459e-07
7.85491427385e-07
3.02789138251e-07
7.72237775459e-07
3.42873971009e-07
7.71630650786e-07
3.19271708002e-07
7.94131148248e-07
2.46915997258e-07
8.55642897924e-07
2.16501181886e-07
9.04441063933e-07
1.83787834076e-07
9.16164221249e-07
1.57855242622e-07
8.34618574225e-07
1.4161226328e-07
7.41799965763e-07
7.277999699e-07
1.20023145937e-07
2.74256466788e-07
7.3338995779e-07
2.4647433549e-07
7.59199893227e-07
2.28506739703e-07
8.74895859616e-07
2.60333526248e-07
1.30173548558e-06
2.21536455495e-07
1.34687994085e-06
2.03474758408e-07
1.09650754851e-06
1.98845022353e-07
9.57903367714e-07
2.06222739377e-07
8.77512788359e-07
2.22553034193e-07
8.31598483189e-07
2.46319456393e-07
8.02313371628e-07
2.76022284616e-07
7.8046049794e-07
3.0789487934e-07
7.67641517624e-07
3.35526436415e-07
7.6900845178e-07
2.97280854288e-07
8.01930680804e-07
2.50895956326e-07
8.68806597908e-07
2.23037587244e-07
9.14832405e-07
1.88724036451e-07
9.23728022061e-07
1.62466074976e-07
8.43341197965e-07
1.46779621958e-07
7.47499093514e-07
7.30972994379e-07
1.2605227832e-07
2.74950936465e-07
7.27479483123e-07
2.48308726863e-07
7.55150440122e-07
2.21378607223e-07
8.77964292934e-07
2.23831723202e-07
1.28316276023e-06
2.08771176766e-07
1.35812082699e-06
1.94008345209e-07
1.11126788332e-06
1.91994683044e-07
9.68385726212e-07
2.03196100974e-07
8.82789750203e-07
2.22962742185e-07
8.32083850653e-07
2.48499690127e-07
7.9957134282e-07
2.78753095927e-07
7.76511108895e-07
3.10638967154e-07
7.64545612354e-07
3.24934118228e-07
7.67853549873e-07
2.86990478335e-07
8.10494310725e-07
2.54635687529e-07
8.79140128525e-07
2.27643736251e-07
9.23113850006e-07
1.93298203359e-07
9.3050104998e-07
1.66775830123e-07
8.51507647535e-07
1.51891901164e-07
7.53835529718e-07
7.35229702433e-07
1.32298990298e-07
2.79975479272e-07
7.21786490875e-07
2.50150362323e-07
7.51634289081e-07
2.13475653379e-07
8.87595146739e-07
2.1139899383e-07
1.27018631051e-06
2.03124661245e-07
1.36159681958e-06
1.88908620019e-07
1.12452236898e-06
1.8612110609e-07
9.78955193989e-07
1.98143452171e-07
8.87839885007e-07
2.19498683005e-07
8.32272198667e-07
2.46867829624e-07
7.96865887094e-07
2.77623286147e-07
7.73158336164e-07
3.09118111785e-07
7.62508878754e-07
3.14705774011e-07
7.67705828377e-07
2.81085291065e-07
8.17915453607e-07
2.57915458057e-07
8.87687686234e-07
2.31719068882e-07
9.30042919824e-07
1.96341710485e-07
9.36379298426e-07
1.70438298775e-07
8.58914657337e-07
1.56481706867e-07
7.60286243679e-07
7.40151343762e-07
1.38158279113e-07
2.77487702343e-07
7.14339402688e-07
2.47491293224e-07
7.48042529472e-07
2.04174938424e-07
9.037305513e-07
2.00627731687e-07
1.25935325322e-06
2.04551333631e-07
1.35221404601e-06
1.88203814789e-07
1.13857460386e-06
1.81942164078e-07
9.90854326907e-07
1.9252796673e-07
8.93414441595e-07
2.14550843064e-07
8.32569085512e-07
2.43517426183e-07
7.9434018451e-07
2.73822871635e-07
7.70241867273e-07
3.03608076226e-07
7.61061499617e-07
3.05818303319e-07
7.6810162612e-07
2.7975425635e-07
8.23842422564e-07
2.59904462421e-07
8.94390815816e-07
2.33966690038e-07
9.3575417707e-07
1.98891973368e-07
9.41659144503e-07
1.73329111863e-07
8.65337588065e-07
1.60534104744e-07
7.6655478254e-07
7.4549624268e-07
1.43576027006e-07
2.77872227716e-07
7.06360926006e-07
2.44516470625e-07
7.4542860851e-07
1.89644152699e-07
9.28862724936e-07
1.97812938294e-07
1.23920010197e-06
2.12466455885e-07
1.3316758237e-06
1.89765478661e-07
1.15648933696e-06
1.79632415754e-07
1.00398327294e-06
1.88284954459e-07
8.99319670973e-07
2.10507680763e-07
8.3304538404e-07
2.4001352761e-07
7.92177984725e-07
2.68841130731e-07
7.67863023588e-07
2.97905192672e-07
7.60226673707e-07
3.01279765167e-07
7.68817313994e-07
2.78386898647e-07
8.27735036462e-07
2.60838123004e-07
8.99311056335e-07
2.35823653964e-07
9.40323884615e-07
2.0015922125e-07
9.45962344308e-07
1.75838190523e-07
8.70794096937e-07
1.64259338346e-07
7.7250531873e-07
7.51101768178e-07
1.486828262e-07
2.63067434497e-07
7.05014012392e-07
2.24638160474e-07
7.48477767135e-07
1.61081100417e-07
9.66065007964e-07
1.87575612539e-07
1.20299038575e-06
2.23931280519e-07
1.28894603218e-06
1.89181768719e-07
1.1850212527e-06
1.77705592455e-07
1.01677435093e-06
1.85989880036e-07
9.04601584343e-07
2.08531702617e-07
8.33454244817e-07
2.38025451112e-07
7.90414309811e-07
2.65597683819e-07
7.66105220004e-07
2.94609000518e-07
7.59920584889e-07
2.98852065835e-07
7.69624981865e-07
2.79105813668e-07
8.3006569942e-07
2.61896178171e-07
9.02574904739e-07
2.37061618762e-07
9.43836371076e-07
2.02113668052e-07
9.49648550966e-07
1.78409534868e-07
8.75267995181e-07
1.68008017071e-07
7.78124244413e-07
7.56902267795e-07
1.53765085988e-07
2.67873341963e-07
7.00961810006e-07
2.22077374567e-07
7.54256524492e-07
1.64062676526e-07
9.98391216714e-07
1.93916525829e-07
1.16420623067e-06
2.26983305614e-07
1.24851430822e-06
1.88093369942e-07
1.21916223259e-06
1.775531222e-07
1.02874600664e-06
1.86585067643e-07
9.09406380812e-07
2.09471740524e-07
8.34129129557e-07
2.38899216109e-07
7.89405494788e-07
2.65314181796e-07
7.65329011803e-07
2.94376675458e-07
7.60496262504e-07
2.99934750609e-07
7.7082816079e-07
2.81670349422e-07
8.31044632768e-07
2.64484582648e-07
9.0495414083e-07
2.39942378237e-07
9.46900827412e-07
2.0417972302e-07
9.52818831924e-07
1.81562501303e-07
8.791367571e-07
1.72180163875e-07
7.83567936672e-07
7.62963022011e-07
1.59157500779e-07
2.61555094253e-07
6.98937594839e-07
2.0080250474e-07
7.66970680298e-07
1.72259222385e-07
1.00752020218e-06
1.82234471622e-07
1.14476883104e-06
1.99662537768e-07
1.22335868564e-06
1.86242300636e-07
1.22893445201e-06
1.78159679449e-07
1.03876154309e-06
1.88576964507e-07
9.13768821175e-07
2.12141474127e-07
8.3502661351e-07
2.41801759595e-07
7.89120321237e-07
2.67675787619e-07
7.65630008751e-07
2.96120193977e-07
7.62005664432e-07
3.03214823476e-07
7.72608918201e-07
2.88398778634e-07
8.31283110774e-07
2.68357182558e-07
9.06851642049e-07
2.43130796227e-07
9.49918387725e-07
2.07442629811e-07
9.56222561326e-07
1.85186727177e-07
8.82725337057e-07
1.76901328244e-07
7.89067557574e-07
7.69427132261e-07
1.65028199422e-07
2.54899797228e-07
6.99212166016e-07
1.85256938323e-07
7.88677851955e-07
1.69197425781e-07
1.00727517025e-06
1.78473613209e-07
1.12606406407e-06
1.88686058076e-07
1.20525529756e-06
1.83221245482e-07
1.22983417731e-06
1.7847422717e-07
1.04553192292e-06
1.89948996757e-07
9.17531058704e-07
2.14734486252e-07
8.35918333187e-07
2.45218523015e-07
7.89325886295e-07
2.70633363556e-07
7.66898515116e-07
2.98677376707e-07
7.64460434785e-07
3.09377571726e-07
7.75084611492e-07
2.96404467086e-07
8.30642721817e-07
2.73026171315e-07
9.08560405129e-07
2.47458302714e-07
9.53096710149e-07
2.10610313832e-07
9.59734049661e-07
1.8934660763e-07
8.86434213645e-07
1.82066227276e-07
7.94799793054e-07
7.7634714286e-07
1.71295295539e-07
2.43054774691e-07
7.03132076129e-07
1.59633610918e-07
8.28437741258e-07
1.55744636465e-07
9.98504447063e-07
1.65802074908e-07
1.10654309725e-06
1.80858429082e-07
1.1819807483e-06
1.84256343661e-07
1.2213977414e-06
1.80809797706e-07
1.05028392276e-06
1.91984333484e-07
9.21664778347e-07
2.17894701883e-07
8.37544124288e-07
2.4896342876e-07
7.90289257974e-07
2.73885635552e-07
7.69120416214e-07
3.01307020906e-07
7.67665902729e-07
3.16694592223e-07
7.78170815017e-07
3.0635480749e-07
8.29470737375e-07
2.77467986302e-07
9.09685593033e-07
2.51553338884e-07
9.56178950119e-07
2.15037895973e-07
9.63491460099e-07
1.94006583701e-07
8.90156417136e-07
1.87570626621e-07
8.00711974953e-07
7.83609229749e-07
1.77860987351e-07
2.1634910582e-07
1.52553833424e-07
1.52782658272e-07
1.6797306997e-07
1.83072065175e-07
1.92143250685e-07
1.88831740995e-07
1.9844875894e-07
2.23516014306e-07
2.53359967263e-07
2.76936864949e-07
3.04357321993e-07
3.25822129957e-07
3.15688900731e-07
2.82541971711e-07
2.56706004339e-07
2.19529740943e-07
1.99315983366e-07
1.93604691609e-07
1.84951220768e-07
-1.39738369102e-07
7.08334091458e-07
-1.51248245734e-07
6.58214344351e-07
-1.51652561635e-07
6.16323666513e-07
-1.46777820142e-07
5.79510041949e-07
-1.39609112252e-07
5.46628177253e-07
-1.32111979448e-07
5.16823306522e-07
-1.2528009524e-07
4.89244506201e-07
-1.1920390051e-07
4.63414505614e-07
-1.13136459127e-07
4.39461774428e-07
-1.04645607641e-07
4.18414571225e-07
-7.925972173e-08
4.0224074472e-07
-4.31734426101e-09
3.89700345111e-07
3.40364682396e-09
3.69708781898e-07
1.72337944777e-09
3.48935287772e-07
6.04113110991e-10
3.21260040993e-07
5.55730911454e-10
2.90012430555e-07
1.20539654843e-09
2.60027633696e-07
2.32884782085e-09
2.32256850777e-07
8.21588544086e-09
2.07263444236e-07
1.85030376856e-07
-1.95415924968e-07
6.83923611556e-07
-1.98548669247e-07
6.36983886255e-07
-1.92598585566e-07
5.97655816852e-07
-1.82775037277e-07
5.62933610939e-07
-1.71115460567e-07
5.31785558859e-07
-1.59313379939e-07
5.03523046344e-07
-1.48604446614e-07
4.77315783746e-07
-1.39333808411e-07
4.52625690984e-07
-1.30979037475e-07
4.29494004809e-07
-1.2184526876e-07
4.08843073116e-07
-1.06427710172e-07
3.93032942217e-07
-3.83611729992e-08
3.85195738155e-07
-1.55631998389e-08
3.67266403129e-07
-1.40161865135e-08
3.46816751583e-07
-1.23675438522e-08
3.19401289448e-07
-9.82134252378e-09
2.88279704026e-07
-6.65136213744e-09
2.58267629802e-07
-2.9731869218e-09
2.30408373886e-07
6.25458153839e-09
2.05400943834e-07
1.8338321626e-07
-2.35608949132e-07
6.50772687606e-07
-2.3235990962e-07
6.08749043907e-07
-2.21365987682e-07
5.73246191862e-07
-2.07908299033e-07
5.41593749155e-07
-1.93183889001e-07
5.12917422332e-07
-1.78290874917e-07
4.86750792835e-07
-1.64573382725e-07
4.62382346182e-07
-1.5267025888e-07
4.39236455409e-07
-1.4234565655e-07
4.17280022685e-07
-1.32477647289e-07
3.97251046676e-07
-1.2042571557e-07
3.81429147602e-07
-7.45311264483e-08
3.74933120864e-07
-3.52065010198e-08
3.62554532919e-07
-3.01425312922e-08
3.42683349072e-07
-2.56167710298e-08
3.15696042725e-07
-2.04518429981e-08
2.84853033794e-07
-1.47888693422e-08
2.54932934221e-07
-8.57036295086e-09
2.27069181669e-07
3.80602577594e-09
2.02094062649e-07
1.80319018557e-07
-2.52465641888e-07
6.10775315751e-07
-2.46845225359e-07
5.75272242509e-07
-2.33135177562e-07
5.44703287422e-07
-2.17930448248e-07
5.16933182405e-07
-2.02113981976e-07
4.91329163839e-07
-1.85999065674e-07