/*--------------------------------*- C++ -*----------------------------------*\
| =========                 |                                                 |
| \\      /  F ield         | OpenFOAM: The Open Source CFD Toolbox           |
|  \\    /   O peration     | Version:  2312                                  |
|   \\  /    A nd           | Website:  www.openfoam.com                      |
|    \\/     M anipulation  |                                                 |
\*---------------------------------------------------------------------------*/
FoamFile
{
    version     2.0;
    format      ascii;
    arch        "LSB;label=32;scalar=64";
    class       volScalarField;
    location    "0.095/water";
    object      rhom;
}
// * * * * * * * * * * * * * * * * * * * * * * * * * * * * * * * * * * * * * //

dimensions      [1 -3 0 0 0 0 0];

internalField   nonuniform List<scalar> 
1497
(
911.162859813
917.270239608
914.921707233
895.475394303
853.243163403
794.25218553
739.98020523
721.270802524
721.510488048
736.404665486
807.128328677
889.761187438
949.813078555
782.176570448
827.308758992
828.472205736
835.68730893
856.020771278
880.697461198
897.819389036
900.622414975
882.573569766
835.200527491
783.841501467
746.072613469
725.239863496
721.222296338
721.510386053
721.124042488
741.105641418
811.658320809
889.968544125
948.199144168
780.742466692
783.87005748
779.286602416
792.605297912
825.375838935
852.906530972
863.385698603
851.049200402
807.415777708
760.412174292
734.759992045
723.040720273
721.443524666
721.51027686
721.17062829
721.510306188
740.700600605
808.299684166
882.858432375
942.732761141
713.030739964
675.726067371
678.621175178
690.996197806
718.554823859
740.672063922
759.355632371
770.237778794
766.047040233
753.815464684
737.543762546
726.346173123
721.715772518
721.403254502
721.510195981
721.239123573
736.112784324
793.518964585
864.045730456
931.164397002
627.44258491
610.613615195
611.991194641
613.49029623
619.774162023
626.094491429
638.203201333
668.496833087
715.324674966
741.706910731
740.42120627
737.963562622
728.898385262
722.770605274
721.406483413
721.510127707
730.147410528
772.041830153
837.549384317
912.283829179
596.901232413
595.550341167
593.819616769
592.343442045
591.778735465
592.304243286
593.881992247
603.404933777
635.400378969
689.045863267
730.163150802
739.861263723
739.750403601
732.6516852
724.599127908
722.061713497
729.290331943
756.073747767
812.005168845
888.380584191
591.28592829
592.405692883
591.546467469
591.161382701
591.630838421
591.088066336
591.684952974
591.422946054
596.59557475
622.660633562
675.89330098
724.399094018
741.235895287
743.125328368
737.120117777
730.239447895
732.04787615
750.251150175
793.600253378
865.397569118
591.273932185
591.420142804
591.264232989
591.575405427
590.999893325
591.634734334
591.046731387
591.68540122
591.525681137
599.835727805
627.583478957
679.568199752
726.056797853
744.562997597
750.749117052
743.79141817
740.229854005
750.403194282
783.458621881
848.147691291
591.258316393
591.404125815
591.530957955
591.169213757
591.620752029
591.02729482
591.67534178
591.185486659
591.72034903
596.377796964
614.291464928
649.449377953
696.686693237
735.72895421
755.442478482
755.637571933
751.220486351
754.282852302
780.298924619
837.425766633
591.325339845
591.880302229
591.463630395
591.604397657
591.121918518
591.672115976
591.095758883
591.719632081
591.499579187
595.619577355
611.952388598
641.65260814
679.896747481
721.77026156
754.699950855
765.228491874
762.303269889
762.241996775
780.83886085
832.231978443
591.329226071
594.208616973
592.39729615
591.505761268
591.664717526
591.177382108
591.718115093
591.332552487
591.775830615
595.356935242
611.55007605
640.096325822
674.674130656
714.803593457
754.427095345
774.20471407
773.043386633
771.348821727
784.386220225
831.366759974
594.197175726
599.122517927
596.451446164
592.400259353
591.465557004
591.714630468
591.330856778
591.775077772
591.648908759
595.445189684
611.800390107
640.011325851
673.320779645
713.345815426
756.201062839
783.159138143
783.21014981
780.062183525
790.191113705
833.096923745
600.378157944
606.191851493
603.77124719
596.717255555
591.706923551
591.493484303
591.77343074
591.596203099
591.826270729
596.264239448
613.381614637
640.866849945
673.555302779
714.166840008
760.760317859
792.307478219
792.571393426
787.47843868
796.236972955
837.902367238
607.094068513
614.597773186
612.916532787
604.475905357
593.702797812
591.769964567
591.633033978
591.825523194
591.816355426
599.031301794
617.538621914
643.946517362
675.998223761
718.395900784
768.350665034
801.604037506
800.910039823
793.171437384
801.663834209
844.607893695
613.1019908
623.958615615
622.735478682
613.483568893
599.176449125
592.462192618
591.824082567
591.928319442
594.251248113
605.015359073
624.560616448
649.826278597
682.179413958
727.081081358
779.044213115
810.889460588
808.06599123
797.106377477
806.506400097
852.624809886
619.108493094
634.293703268
632.367051171
621.961603593
606.650949985
596.969289111
594.780485284
595.669183554
601.30011725
614.429931629
633.885549099
658.375352483
692.11478037
739.741997829
792.569171604
819.704089438
813.59018675
799.358879607
811.134729756
862.193527332
625.914379758
645.343531435
640.79697642
629.308900939
615.49587559
606.666684555
604.184748421
606.001634132
613.63556072
626.913191856
645.187997002
669.654961559
705.636678549
755.952495551
808.112926048
826.981148453
816.850270604
800.437832746
816.179855011
873.673935739
634.42734644
655.949862569
647.170721849
635.828572069
625.841685473
621.327376719
620.82940757
623.65890404
631.083939913
642.585381481
659.174901671
684.464007974
723.429625735
775.645350887
823.450644003
831.788613007
817.740021601
801.082424699
822.384253612
887.363419606
647.549763168
662.670736599
651.886216236
641.70658137
637.507476375
639.778054996
644.26779487
648.264316793
653.776127292
662.4189161
677.543941161
704.420796964
746.671663596
798.347793228
833.944155756
834.608080344
817.116977717
800.868026289
830.214711389
903.35777174
662.323533713
667.043092059
655.047788945
646.350893388
648.110999603
660.680802267
673.37902508
678.538806822
681.713557268
687.748969013
702.151790126
730.931825409
775.154016925
821.123840757
836.109640724
836.061997817
814.134682527
799.624938938
840.169885315
920.889160935
671.425373233
669.760857437
656.935950553
649.078658823
655.096069894
678.643196299
702.768681343
711.930148532
714.599999022
719.420538442
733.556016305
763.244931969
805.041458134
834.790457275
836.061986694
835.923671155
804.811701721
795.849349202
852.419356601
937.457221814
671.546382737
671.596123072
658.795612325
650.274086903
657.709567412
686.084675293
721.787697146
741.071051268
747.890444873
753.927661385
768.109741494
795.833256858
828.194794435
836.061967915
836.40084038
831.200297497
782.585869385
788.194377736
865.639068023
948.631794636
672.011339265
671.614247181
660.564999955
650.539486245
658.010486354
685.923605056
724.828756141
754.361024581
769.936311251
780.545655279
795.984147146
819.356331327
836.003782275
836.271346418
836.06196511
810.488354377
742.766903868
779.033751853
873.166479518
952.1084199
671.548156068
672.054915466
661.61389889
650.609192288
657.661362473
683.904588743
723.128220511
754.535290359
774.276537353
789.594130124
808.424803393
830.073664317
836.151545993
836.061943785
836.07293997
757.349654101
721.36741581
772.290355879
872.556090759
951.637541177
672.776847038
671.613687476
662.833941101
650.650422311
656.468494126
679.12017912
717.111824714
751.125428216
772.926502868
789.532560555
810.443456247
833.460089091
836.06191896
836.519302819
812.987153948
721.431456931
721.768469096
765.795973667
866.33336629
948.02847845
671.548592208
672.826445282
664.137176881
650.514457799
654.329760923
672.228952926
706.486617755
741.786221225
767.094661525
786.940728071
810.222815916
834.905066671
836.359304431
836.06192202
763.335283739
721.768446083
721.082653559
758.832321761
856.115988377
941.991402208
673.310992469
671.613097344
665.712810767
650.783025502
651.495814771
665.720158043
695.475524769
729.613430014
757.405541486
781.671315293
809.389888366
835.714199882
836.061900008
827.880920504
726.803106905
720.482132511
721.768438385
753.15427398
847.40693834
936.48179443
671.548470766
673.348412031
665.715490882
650.299494248
650.90307777
661.91636941
688.523349793
721.259865673
750.464239664
778.482297238
809.332239411
836.03588253
836.365524299
803.595201948
720.955335154
721.768419974
721.015541454
749.333081463
841.369998484
932.276474399
673.390280867
671.613480056
665.168511029
650.897329864
650.591116655
660.159138189
685.176715065
718.048514964
749.008011549
778.5869888
810.275173914
836.074010856
836.061882726
779.380695594
721.768396684
720.372865514
721.768411814
746.627842649
836.892371089
928.905896427
671.548336736
673.5555806
663.079977425
650.220361832
651.004548689
658.943974063
682.915504892
716.573819272
749.213806254
780.192301776
813.006090981
836.061856428
835.985239237
764.318696551
720.495448289
721.768394503
720.972823106
744.632761453
833.377986979
926.100027589
673.487067842
671.613382717
661.071313138
650.998849932
650.528620106
657.703049911
680.258243255
714.882382295
749.906129524
783.495666473
817.223764714
836.163002862
833.854919477
758.175903048
721.768372589
720.311262479
721.768386415
743.22800328
830.846476058
923.891232638
671.548130243
673.50017737
657.833960143
650.21734438
651.127096651
656.034492498
676.611850105
712.051911151
749.874138183
786.88647093
821.544940086
836.061840481
834.055666972
757.795711065
720.441710536
721.768369526
720.947495857
742.473559498
829.342602277
922.356887113
673.238345977
671.613659903
653.832560477
651.121539636
650.484169006
653.450465921
672.158061256
708.150689649
749.13227541
789.141213218
825.001743166
836.274877286
834.914088429
758.052723919
721.768348133
720.283964223
721.768361713
742.193846634
828.724947854
921.470046961
671.547975041
673.00458253
651.220830293
650.212730084
651.241251439
651.097936138
668.123511501
704.437514182
747.926595735
790.519235235
827.710550206
836.061824985
836.243179304
760.646173163
720.530754791
721.768345305
720.938761919
742.231758481
828.670237986
921.136788414
672.970396773
667.824264348
650.466985561
651.235702451
650.428649448
651.369237072
665.846834659
702.270771772
747.510365062
791.813096307
830.085488663
836.351060175
836.061838458
765.3430069
721.768324673
720.285525825
721.768338089
742.599180335
829.134923242
921.170186223
671.547895102
659.407007965
651.346793197
650.209287812
651.367170202
651.052248874
664.804479178
701.597680705
747.994591891
793.736396918
832.423526161
836.061810943
836.505201734
773.351999653
720.820515293
721.768322115
720.943654857
743.599439258
830.534858002
921.640902516
672.354334732
653.334974889
650.46961585
651.361636883
650.496585888
651.490736026
664.069667143
701.40774337
750.043991965
797.077475345
834.619270388
836.394232595
836.061825301
784.0132388
721.768301335
720.322320287
721.768315139
744.88276343
832.449815967
922.578915372
663.982737487
651.103404225
651.468219459
650.485940598
651.488632017
651.114487691
663.294098767
700.981363802
752.986306975
801.701325374
835.909606379
836.061796845
836.724566528
796.792036907
721.256369012
721.768299021
720.962569541
746.132155531
834.243677723
923.591152981
975.094206386
984.423024033
989.624699578
993.304546794
995.508065076
996.679692407
997.480047746
998.340335865
999.221817927
999.770949091
999.962177643
999.997180288
999.999929976
999.999999999
1000
1000
1000
1000
1000
1000
973.303550242
982.712470477
988.023144166
992.12350458
994.857718814
996.330834241
997.197077175
998.01499029
998.944789663
999.644774636
999.933628052
999.994679489
999.999893518
1000
1000
1000
1000
1000
1000
1000
970.729994397
980.929827379
986.385017743
990.776355452
994.048228958
995.921734724
996.924864713
997.719154534
998.645980746
999.477495654
999.888482192
999.989898582
999.999820474
999.999999999
1000
1000
1000
1000
1000
1000
966.502892505
978.867798779
984.680346441
989.257012813
993.028006815
995.40394675
996.635109962
997.447688737
998.342577164
999.269445125
999.820805316
999.981470542
999.999661167
999.999999991
1000
1000
1000
1000
1000
1000
959.482095965
976.305828763
982.940922936
987.629937445
991.780792546
994.729513396
996.300061666
997.189716582
998.049493304
999.027499362
999.724964452
999.967400902
999.999317772
999.999999938
1000
1000
1000
1000
1000
1000
948.730240128
972.990277226
981.259762957
986.080713509
990.398345663
993.884741335
995.899746715
996.936932999
997.780514906
998.768984649
999.599394924
999.945218314
999.99863528
999.99999973
1000
1000
1000
1000
1000
1000
934.820391552
968.693008375
979.715642015
984.844593065
989.109953231
992.942711287
995.438012756
996.688908653
997.547317693
998.520898826
999.452740103
999.913630474
999.997453948
999.999999123
1000
1000
1000
1000
1000
1000
920.557743571
963.562582821
978.351043036
984.061359553
988.176268967
992.081848266
994.96745889
996.459054071
997.358288693
998.310616712
999.306959322
999.876396298
999.995885986
999.99999805
1000
1000
1000
1000
1000
1000
909.073093159
958.472195746
977.271660915
983.752980291
987.738306103
991.504401562
994.588942627
996.278151964
997.223121279
998.158014609
999.188844101
999.843847486
999.99458045
999.999997364
1000
1000
1000
1000
1000
1000
901.95801659
954.575255613
976.681070165
983.815563709
987.71660821
991.312546913
994.404512925
996.184382817
997.153077772
998.07573551
999.120909251
999.827896967
999.994260471
999.999997648
1000
1000
1000
1000
1000
1000
899.257319528
952.878429371
976.682097001
984.327853535
988.059164346
991.413441495
994.412307872
996.181634118
997.145549733
998.062079886
999.110572958
999.829877775
999.99493119
999.999999091
1000
1000
1000
1000
1000
1000
899.670530826
953.18468996
977.474853824
985.261764457
988.809884846
991.883858352
994.63371895
996.273847883
997.195842455
998.108284673
999.155634181
999.853650098
999.996802437
1000
1000
1000
1000
1000
1000
1000
903.479895423
955.839226852
979.212106775
986.433629363
989.747824334
992.62342768
995.072875617
996.473987571
997.321318897
998.23978296
999.278059942
999.89708878
999.998659829
1000
1000
1000
1000
1000
1000
1000
910.497791984
960.593080513
981.478402193
987.713614955
990.767773667
993.468925107
995.584404898
996.717510636
997.495287266
998.436513818
999.447908825
999.942382201
999.9996584
1000
1000
1000
1000
1000
1000
1000
919.404129848
966.23279837
983.840495789
988.998105044
991.829289796
994.340950281
996.072650096
996.963100885
997.705760547
998.686223872
999.629837205
999.975413313
999.999953593
1000
1000
1000
1000
1000
1000
1000
929.713838541
972.025023922
986.004366373
990.223322355
992.902895986
995.167677679
996.487983291
997.199250925
997.955082679
998.977973686
999.79044684
999.992561651
999.999998144
1000
1000
1000
1000
1000
1000
1000
941.070257279
977.394124098
987.829562664
991.3797912
993.955471808
995.870020999
996.814194009
997.43024121
998.247097838
999.283247463
999.903452115
999.998522899
1000
1000
1000
1000
1000
1000
1000
1000
952.796293384
981.823753548
989.316803816
992.490031631
994.926512283
996.394217464
997.065898979
997.668724683
998.575694815
999.556687187
999.964386083
999.999817874
1000
1000
1000
1000
1000
1000
1000
1000
963.782989931
985.032147917
990.548829929
993.561968436
995.724341456
996.744077476
997.270852225
997.925735022
998.91391893
999.757701322
999.988977298
999.999986422
1000
1000
1000
1000
1000
1000
1000
1000
972.56011951
987.089544253
991.609535025
994.536969806
996.279092707
996.968795643
997.452415337
998.196577949
999.21559159
999.876034075
999.996561035
999.999999586
1000
1000
1000
1000
1000
1000
1000
1000
977.996586965
988.289188348
992.512651348
995.292413227
996.604059432
997.119009961
997.619426988
998.452501578
999.438335511
999.932395177
999.99856208
1000
1000
1000
1000
1000
1000
1000
1000
1000
980.235917847
988.884090654
993.166394712
995.746716129
996.772070831
997.222403268
997.761264465
998.652023603
999.570138693
999.954953744
999.999095299
1000
1000
1000
1000
1000
1000
1000
1000
1000
980.594199082
989.027811805
993.459060475
995.935619287
996.846881423
997.286568561
997.857245208
998.768639729
999.628051422
999.961680548
999.999206387
1000
1000
1000
1000
1000
1000
1000
1000
1000
980.232856057
988.923776752
993.474260726
995.965168384
996.864868923
997.313346582
997.897661828
998.807023779
999.639969735
999.961969607
999.999167338
999.999999977
1000
1000
1000
1000
1000
1000
1000
1000
978.800120963
988.385512015
993.298011498
995.919555008
996.857456993
997.315183995
997.899616941
998.804067814
999.633203723
999.958861845
999.998937922
999.999999663
1000
1000
1000
1000
1000
1000
1000
1000
976.683661082
987.42403245
992.792343189
995.738372504
996.813967696
997.30034652
997.875304069
998.761443988
999.598602124
999.949648366
999.998453346
999.999998637
1000
1000
1000
1000
1000
1000
1000
1000
974.699187128
986.409742055
992.107374702
995.439107724
996.727541585
997.258223963
997.812743648
998.670720563
999.536448918
999.935253277
999.997719345
999.999996285
1000
1000
1000
1000
1000
1000
1000
1000
973.073798105
985.564225014
991.452200918
995.09895239
996.61853163
997.202038231
997.737432145
998.56529113
999.463379375
999.917311825
999.996702141
999.999991621
1000
1000
1000
1000
1000
1000
1000
1000
971.705766393
984.879107485
990.886964284
994.756278384
996.502607767
997.146908535
997.670085434
998.467106446
999.388253076
999.896405179
999.995338757
999.99998334
1000
1000
1000
1000
1000
1000
1000
1000
970.513484327
984.299984991
990.395340748
994.418086733
996.383487121
997.095911658
997.611782163
998.377475013
999.312428752
999.872802488
999.993594448
999.999970166
1000
1000
1000
1000
1000
1000
1000
1000
969.496742692
983.804046811
989.965595219
994.09208957
996.262191677
997.047760782
997.559705421
998.294454322
999.236478806
999.846988985
999.991478521
999.99995118
1000
1000
1000
1000
1000
1000
1000
1000
968.694413088
983.392743624
989.59981522
993.793601616
996.141904461
997.002343336
997.513838623
998.219351403
999.162476656
999.819692658
999.989025001
999.999925794
1000
1000
1000
1000
1000
1000
1000
1000
968.130236751
983.070951391
989.301401133
993.535487428
996.028505601
996.961260767
997.475606016
998.155325904
999.094279149
999.792280242
999.986332496
999.999894295
1000
1000
1000
1000
1000
1000
1000
1000
967.786837607
982.838286008
989.069654133
993.323413292
995.927245435
996.927178481
997.445525051
998.104368504
999.036463741
999.767203798
999.9836793
999.999860236
1000
1000
1000
1000
1000
1000
1000
1000
967.636030722
982.690377945
988.900426009
993.158027566
995.842078728
996.901921215
997.423092228
998.065990672
998.991585165
999.747003878
999.981483686
999.999830115
1000
1000
1000
1000
1000
1000
1000
1000
967.633414061
982.61926141
988.788395641
993.038239468
995.776820251
996.884836311
997.408302548
998.038421053
998.958862957
999.732490269
999.979986188
999.999806699
1000
1000
1000
1000
1000
1000
1000
1000
967.768356399
982.609956019
988.731556412
992.964085977
995.734685343
996.87535427
997.401721701
998.020417506
998.936659569
999.723065492
999.979136901
999.99978775
1000
1000
1000
1000
1000
1000
1000
1000
968.062318305
982.652154484
988.724615297
992.937483104
)
;

boundaryField
{
    emptyPatch
    {
        type            empty;
    }
    minY
    {
        type            calculated;
        value           nonuniform List<scalar> 0();
    }
    maxY
    {
        type            calculated;
        value           nonuniform List<scalar> 0();
    }
    water_to_cooler
    {
        type            calculated;
        value           nonuniform List<scalar> 
37
(
1000
1000
1000
1000
1000
1000
1000
1000
1000
1000
1000
1000
1000
1000
1000
1000
1000
1000
1000
1000
1000
1000
1000
1000
1000
1000
1000
1000
1000
1000
1000
1000
1000
1000
1000
1000
1000
)
;
    }
    water_to_heater
    {
        type            calculated;
        value           nonuniform List<scalar> 
60
(
782.04461784
782.044610895
780.606564923
780.606557622
712.868625068
712.868615983
627.279451127
596.769925445
591.16983295
591.169832454
591.162993668
591.162994851
591.149534806
591.149537825
591.217919814
591.22250223
594.08730408
594.087310617
600.25943914
600.259443264
606.964901508
606.96490302
612.964036144
618.962902871
625.761152859
625.761151765
634.265985378
634.265983185
647.382395255
647.382391972
662.15342946
671.25394589
671.372658374
671.372654308
671.836688263
671.836684216
671.372639054
671.372634997
672.6016142
671.372621382
673.13595597
673.135951925
671.372612316
671.372608206
673.215403583
673.215399302
671.372597671
673.312387061
671.37259038
671.372586065
673.063738562
673.063734245
671.372578328
671.372573878
672.795741644
671.372568477
672.179677564
672.179672727
663.806729701
663.806724908
)
;
    }
    procBoundary1to0
    {
        type            processor;
        value           nonuniform List<scalar> 
41
(
651.176953363
651.545560565
650.599239976
651.482670808
650.635833569
651.606136816
662.174522603
699.568338774
753.149438025
804.521129137
836.061760993
836.426570866
836.061812059
810.363345054
722.797532575
720.439404578
721.768291815
747.242459606
835.907128443
924.570151886
995.718687631
996.87399536
997.401185668
998.01268768
998.924983665
999.718585213
999.978849283
999.999768693
1000
1000
1000
1000
1000
1000
1000
1000
968.434536989
982.787530619
988.766725043
995.718687631
992.950354451
)
;
    }
    procBoundary1to3
    {
        type            processor;
        value           nonuniform List<scalar> 
41
(
901.431248694
917.902111348
926.977721137
928.152385035
926.513072314
907.793880185
852.551884526
763.13886736
721.86700304
732.470792364
792.617465053
882.747729995
949.585226444
717.648675669
823.891438511
830.045060097
840.353047486
856.952882562
879.036698507
899.077591188
899.077591188
976.781369884
986.230070512
991.199217459
994.326883476
996.044780344
997.005433492
997.794829667
998.682960309
999.458636423
999.859571619
999.979241755
999.998372964
999.999950443
999.999999991
1000
1000
1000
1000
1000
1000
)
;
    }
}


// ************************************************************************* //
