/*--------------------------------*- C++ -*----------------------------------*\
| =========                 |                                                 |
| \\      /  F ield         | OpenFOAM: The Open Source CFD Toolbox           |
|  \\    /   O peration     | Version:  2312                                  |
|   \\  /    A nd           | Website:  www.openfoam.com                      |
|    \\/     M anipulation  |                                                 |
\*---------------------------------------------------------------------------*/
FoamFile
{
    version     2.0;
    format      ascii;
    arch        "LSB;label=32;scalar=64";
    class       volScalarField;
    location    "0.89/water";
    object      T.gas;
}
// * * * * * * * * * * * * * * * * * * * * * * * * * * * * * * * * * * * * * //

dimensions      [0 0 0 1 0 0 0];

internalField   nonuniform List<scalar> 
1504
(
373.958645168
326.242069269
306.867394519
301.533824504
300.522015308
300.284597006
300.194522539
300.138822803
300.096544636
300.062473664
300.034870111
300.014371363
300.003232307
300.000289008
300.000012169
300.000000274
300
300
300
300
380.560946681
328.200341817
305.870397775
301.373634451
300.504629443
300.296563903
300.211972111
300.155885954
300.111079328
300.073696037
300.042621428
300.018662747
300.004616902
300.000459266
300.000020674
300.00000251
300.000000077
300
300
300
404.060833417
335.839574518
310.032037617
302.683067193
300.854923805
300.390627911
300.2536655
300.184845148
300.13313984
300.090001721
300.053785486
300.025043394
300.006901217
300.000828526
300.00005007
300.000006018
300.000000832
300
300
300
431.720611171
348.311062177
317.902858028
306.399203772
302.219780771
300.729129227
300.330022346
300.222968633
300.160570981
300.110318311
300.067888065
300.033502168
300.01036722
300.001589725
300.000147736
300.000016872
300.000002206
300
300
300
447.611219419
355.766723529
321.698995914
308.274174468
303.038768672
301.105431712
300.436162273
300.264484927
300.188131664
300.130998836
300.083055155
300.043253833
300.015279309
300.003135042
300.000433911
300.000053354
300.000006524
300
300
300
453.804747802
358.200340698
322.518811074
308.628491796
303.20925011
301.190261296
300.517859403
300.306383942
300.213774758
300.150136306
300.097609156
300.053352561
300.021172721
300.005405395
300.00094959
300.000134352
300.000017163
300.000000842
300
300
456.471516165
358.468564394
322.058463408
308.280101635
303.062889339
301.167438454
300.552827367
300.335954809
300.234308626
300.165725359
300.109263586
300.061521636
300.026395261
300.007793988
300.001631606
300.000261401
300.00003573
300.000003424
300
300
457.509921829
358.097595858
321.261240196
307.723087296
302.803356936
301.09638451
300.564531991
300.355053378
300.24952471
300.17755107
300.117469227
300.067191676
300.03019231
300.009802441
300.002299454
300.000414812
300.000058721
300.000007214
300
300
458.550917883
357.904534094
320.741435191
307.323305491
302.622455366
301.071075151
300.580133275
300.371277004
300.261919859
300.186358177
300.122678092
300.070517825
300.032568036
300.011207016
300.002863835
300.000554889
300.000082996
300.000011433
300
300
458.685108482
357.836601793
320.426442172
307.064666362
302.537714444
301.107271033
300.607148477
300.389599999
300.273536414
300.192353531
300.125489499
300.072024196
300.033742014
300.012110254
300.003263683
300.000675636
300.000104818
300.000015609
300
300
458.974678882
357.004178344
319.61742441
306.644213609
302.458818784
301.162429488
300.647919062
300.412470465
300.285059354
300.195729376
300.126000845
300.071847754
300.033991909
300.012521371
300.003532156
300.000756934
300.000124965
300.000019131
300
300
458.352034023
355.315526387
318.490005871
306.395738175
302.618384871
301.279036497
300.707233114
300.440202346
300.295338991
300.196673815
300.124149155
300.070181068
300.033340707
300.012584146
300.003648035
300.000810806
300.000140295
300.000021696
300
300
457.479572065
351.959040798
317.361273134
306.665063215
302.961394581
301.443296256
300.778559691
300.469194273
300.301105175
300.194403681
300.120069551
300.067162181
300.03213706
300.012327299
300.003682016
300.000829112
300.000151637
300.000023103
300
300
456.514905137
351.722773625
318.603639268
307.498821992
303.315101743
301.587775384
300.836421616
300.486877951
300.298370727
300.187075909
300.113282036
300.063109138
300.03043503
300.011956562
300.003632932
300.000834343
300.000155513
300.000023249
300
300
456.572715616
351.443343924
318.715137479
307.582157189
303.347226893
301.599038282
300.837730972
300.472319861
300.283041495
300.173922978
300.104426921
300.058394322
300.028767876
300.011560814
300.003600147
300.000832284
300.000156245
300.000022209
300
300
456.419029112
348.904739135
317.430744214
306.972256753
303.065470596
301.474125963
300.766654673
300.427283174
300.255156693
300.156617692
300.094757085
300.054246015
300.027504061
300.011467723
300.003643941
300.000854449
300.000157122
300.000019991
300
300
456.259833638
347.882223622
316.166841408
306.224467092
302.682071844
301.266087908
300.649617364
300.366554154
300.222158531
300.139143328
300.086995014
300.051659262
300.027385999
300.011848783
300.003867774
300.000907483
300.000155869
300.000016264
300
300
446.765954882
347.126370606
315.188520506
305.562913759
302.267487422
301.028107083
300.526572225
300.305033298
300.192311212
300.126586968
300.082978663
300.051751523
300.028588224
300.01285008
300.004240115
300.000976557
300.00014841
300.000011363
300
300
417.69517318
341.341893111
313.467841771
304.74541279
301.800107597
300.781405324
300.411559354
300.25443067
300.172967463
300.121118642
300.083866144
300.054544503
300.031316018
300.014456091
300.004792889
300.001054173
300.000141521
300.000006735
300
300
392.164616593
333.97498582
311.201583171
303.684296517
301.282667008
300.561079723
300.327792185
300.227324728
300.167327834
300.124508865
300.089931011
300.060600953
300.035899486
300.017129844
300.00581852
300.001266736
300.000164994
300.000007088
300.000001841
300.000000525
381.108734572
332.492764843
311.237592241
303.252049104
300.944622106
300.457760501
300.307265454
300.231067696
300.179213319
300.13817597
300.102662933
300.071120625
300.043647469
300.021798377
300.007845721
300.001811449
300.000255112
300.000016053
300.000003417
300.000003361
392.655534584
343.339278982
316.976147865
305.176657756
301.39747111
300.572403304
300.355679057
300.266782297
300.209902506
300.163778522
300.123440176
300.087275029
300.055273679
300.028815127
300.010948837
300.002678227
300.000404121
300.000031677
300.000003929
300.000004902
453.528704081
366.700340018
326.200474581
309.153818004
302.953548578
301.015602123
300.489870879
300.332639286
300.259023075
300.202907122
300.153270785
300.109594721
300.071099067
300.038463639
300.015307289
300.003939799
300.000629077
300.000056009
300.000003919
300.000004263
534.730513775
382.434742859
331.188870045
311.597852341
304.191145848
301.567634911
300.703788738
300.419753035
300.310884449
300.244545887
300.187056061
300.135245508
300.089453433
300.050097764
300.020800068
300.005629702
300.00095441
300.000095419
300.000004956
300.000002517
562.360449181
389.569977754
333.00389064
312.455555083
304.726031886
301.872389959
300.856533566
300.496482504
300.355623222
300.277938555
300.215306535
300.158804487
300.107354198
300.06206339
300.026938754
300.00774472
300.001431088
300.000169043
300.000011144
300.000001489
569.76400616
391.489637042
332.975042209
312.320975865
304.726772351
301.93015485
300.911989369
300.535262478
300.383606954
300.302358341
300.236020801
300.176710321
300.122229119
300.072612359
300.033192832
300.010467242
300.002220289
300.000328065
300.000032295
300.000002774
572.076110693
391.149625691
332.053874509
311.647646832
304.409748431
301.824290633
300.892702619
300.542343906
300.3961767
300.316113171
300.249262478
300.188953335
300.132835
300.080558538
300.038526637
300.013248157
300.003182807
300.000549005
300.000068815
300.000006963
572.646241079
389.663302128
330.545512773
310.646478767
303.916971674
301.632083939
300.832740323
300.531531585
300.400347412
300.322963698
300.25657649
300.19597541
300.138702482
300.084840756
300.041606996
300.015108039
300.003965242
300.00076261
300.000110481
300.000012786
572.613638977
387.374795817
328.475498629
309.428076694
303.365468772
301.423079264
300.765202465
300.516262619
300.402107947
300.32584642
300.259936589
300.199138611
300.140560554
300.085833131
300.04245177
300.015917041
300.00440329
300.000912356
300.000144714
300.000018314
571.566132353
384.190538101
325.759884398
308.069414009
302.821881493
301.229765566
300.703711063
300.501378228
300.400855047
300.326450429
300.260891344
300.199534146
300.139073387
300.084174381
300.041577503
300.015815089
300.004542056
300.000983316
300.000165953
300.000022233
569.85404772
379.902277639
322.849631597
306.80549345
302.35694442
301.077901323
300.660877058
300.494591651
300.399063805
300.325701224
300.26018568
300.197357681
300.135098046
300.080526027
300.039455774
300.015195003
300.004461725
300.001003988
300.000175643
300.000024689
566.902774887
374.227102734
320.033842516
305.685749075
301.972933651
300.9700045
300.639604838
300.490802374
300.39726433
300.32399659
300.257905181
300.19217046
300.129319932
300.075704499
300.036895614
300.014332314
300.004344245
300.001004005
300.000181926
300.000026405
562.30709048
368.025657708
317.526133988
304.8699838
301.784500889
300.954681079
300.646594645
300.49229017
300.395984177
300.321448624
300.253178428
300.184776
300.121975162
300.070379906
300.034217462
300.013644325
300.004274244
300.001037575
300.000193144
300.000029395
553.966003575
363.436518585
316.538222814
305.0981534
302.036243911
301.05793409
300.677032529
300.499257062
300.395272543
300.317562908
300.245028769
300.175823645
300.114004226
300.065068062
300.032126637
300.013278934
300.004444265
300.001141125
300.000227036
300.000036154
525.138690575
362.094085036
318.637211484
306.300979942
302.485371081
301.196949023
300.715176108
300.506640834
300.393247569
300.310007937
300.234550332
300.16537779
300.105693809
300.060600861
300.030777634
300.01365604
300.004958054
300.001413825
300.000314739
300.00005547
467.801849975
355.95323512
319.346362411
307.073795711
302.801493592
301.290280592
300.735239686
300.506365378
300.385760593
300.297573187
300.222041443
300.154323766
300.09835463
300.057350431
300.030912525
300.014941432
300.006125465
300.002014929
300.000533176
300.000106031
426.078253818
347.819035338
318.145027172
307.032876626
302.826706465
301.282385151
300.719236411
300.490662182
300.368422365
300.282413736
300.208905624
300.144622894
300.092910304
300.056603838
300.032774985
300.017709566
300.008319169
300.003203311
300.000961835
300.000221834
400.817940794
339.667885866
315.741975034
306.278966332
302.560958574
301.172075434
300.666839206
300
300
300
300
300
300
300
300
300
300
300
300
300
300
300
300
300
300
300
300
300
300
300
300
300
300
300
300
300
300
300
300
300
300
300
300
300
300
300
300
300
300
300
300
300
300
300
300
300
300
300
300
300
300
300
300
300
300
300
300
300
300
300
300
300
300
300
300
300
300
300
300
300
300
300
300
300
300
300
300
300
300
300
300
300
300
300
300
300
300
300
300
300
300
300
300
300
300
300
300
300
300
300
300
300
300
300
300
300
300
300
300
300
300
300
300
300
300
300
300
300
300
300
300
300
300
300
300
300
300
300
300
300
300
300
300
300
300
300
300
300
300
300
300
300
300
300
300
300
300
300
300
300
300
300
300
300
300
300
300
300
300
300
300
300
300
300
300
300
300
300
300
300
300
300
300
300
300
300
300
300.000000005
300
300
300
300
300
300
300
300
300
300
300
300
300
300
300
300
300
300
300
300.000000042
300
300
300
300
300
300
300
300
300
300
300
300
300
300
300
300
300
300
300
300.000000011
300.000000005
300
300
300
300
300
300
300
300
300
300
300
300
300
300
300
300
300
300
300
300.000000027
300
300
300
300
300
300
300
300
300
300
300
300
300
300
300
300
300
300
300
300.000000081
300
300
300
300
300
300
300
300
300
300
300
300
300
300
300
300
300
300
300
300.000000161
300
300
300
300
300
300
300
300
300
300
300
300
300
300
300
300
300
300
300.00000004
300.000000178
300
300
300
300
300
300
300
300
300
300
300
300
300
300
300
300
300.000000073
300.000000038
300.000000094
300.000000067
300
300
300
300
300
300
300
300
300
300
300
300
300
300
300
300
300
300.00000001
300.000000042
300
300
300
300
300
300
300
300
300
300
300
300
300
300
300
300
300
300
300.000000018
300
300
300
300
300
300
300
300
300
300
300
300
300
300
300
300
300
300
300
300
300
300
300
300
300
300
300
300
300
300
300
300
300
300
300
300
300
300
300
300
300
300
300
300
300
300
300
300
300
300
300
300
300
300
300
300
300
300.00000043
300
300
300
300
300
300
300
300
300
300
300
300
300
300
300
300
300
300
300
300.000001335
300
300
300
300
300
300
300
300
300
300
300
300
300
300
300
300
300
300
300
300.000001604
300.000000076
300
300
300
300
300
300
300
300
300
300
300
300
300
300
300
300
300
300.000000022
300.000001214
300.000000025
300
300
300
300
300
300
300
300
300
300
300
300
300
300
300
300
300.000000026
300.000000055
300.00000047
300
300
300
300
300
300
300
300
300
300
300
300
300
300
300
300
300.000000034
300.000000128
300.000000196
300.000000002
300
300
300
300
300
300
300
300
300
300
300
300
300
300.000000035
300.000000238
300.000000658
300.000001325
300.000002031
300.000002394
300
300
300
300
300
300
300
300
300
300
300.000000004
300.000000518
300.000001348
300.000002438
300.000003777
300.00000546
300.000007492
300.000009568
300.000011112
300.000011655
300
300
300
300
300
300
300
300
300
300.000000957
300.000002978
300.000005902
300.000008776
300.00001201
300.000015729
300.000019705
300.000023413
300.000026247
300.000027805
300.00002804
300.000000007
300
300
300
300
300
300
300.000001131
300.000003692
300.000007119
300.00001111
300.000017674
300.000023695
300.000029329
300.000034629
300.000038969
300.000042024
300.000043766
300.000044361
300.000043835
300.000000262
300
300
300
300
300
300.000002193
300.000006592
300.000012269
300.000018444
300.000024784
300.000032309
300.000040597
300.000045906
300.000049419
300.00005153
300.000052573
300.000052824
300.000052421
300.000051315
300.000000519
300
300
300
300
300.000001088
300.00000738
300.000015045
300.000023149
300.000030778
300.000037566
300.000043293
300.000049824
300.000052812
300.000054016
300.000054527
300.000054588
300.000054261
300.000053515
300.00005227
300.000000872
300
300
300
300
300.000003506
300.000013127
300.000022789
300.000031563
300.000038718
300.000044154
300.000047951
300.000050927
300.000052499
300.000053
300.00005328
300.000053377
300.000053196
300.000052546
300.000051319
300.000001647
300
300
300
300
300.000005349
300.000016537
300.000026849
300.000035053
300.000041001
300.000044913
300.000047193
300.000048289
300.000048828
300.00004918
300.000049946
300.000050748
300.000050875
300.000050799
300.000049938
300.000003318
300
300
300
300
300.000005675
300.000016454
300.00002662
300.000034043
300.000038891
300.000041607
300.000042628
300.00004275
300.000042857
300.000044031
300.0000459
300.000047707
300.000049087
300.000049035
300.000047276
300.00000704
300
300
300
300
300.00000483
300.000014034
300.000023194
300.000030115
300.000033943
300.000035614
300.000035639
300.000035422
300.000036012
300.000037922
300.000040537
300.000042846
300.000046371
300.000047737
300.000044449
300.000015398
300.000001791
300.000000161
300.000000387
300.000000857
300.000003669
300.000010499
300.000017672
300.000023398
300.000026638
300.000027699
300.000027693
300.000028134
300.000029808
300.000032919
300.000035987
300.000039417
300.000043973
300.000046468
300.000041604
300.00004123
300.000006159
300.000001982
300.000001736
300.000001982
300.000002776
300.000006972
300.000011882
300.000015797
300.000018059
300.000019198
300.000020462
300.000022444
300.000025617
300.000029622
300.000034194
300.000038709
300.000042643
300.000046297
300.000040491
)
;

boundaryField
{
    emptyPatch
    {
        type            empty;
    }
    minY
    {
        type            fixedValue;
        value           nonuniform List<scalar> 0();
    }
    maxY
    {
        type            inletOutlet;
        inletValue      nonuniform List<scalar> 0();
        value           nonuniform List<scalar> 0();
    }
    maxX
    {
        type            fixedValue;
        value           uniform 300;
    }
    water_to_heater
    {
        type            copiedFixedValue;
        sourceFieldName T.liquid;
        value           nonuniform List<scalar> 
60
(
786.289657963
786.351653727
786.346200787
786.430812213
786.45523504
786.572582771
786.58813184
786.728984717
786.730128217
786.895530012
786.899399673
787.082434517
787.086435181
787.281792144
787.279507692
787.4802064
787.482812248
787.686586144
787.683931639
787.890681963
787.887391217
788.082236047
788.08377749
788.26479215
788.261984427
788.424333281
788.425126959
788.556179713
788.524271665
788.631097093
788.634216482
788.705925143
788.710097343
788.74429475
788.737688388
788.758891019
788.896892737
788.826327229
788.847442409
788.723977903
788.726660978
788.566653221
788.569367736
788.392947849
788.394090522
788.245431251
788.243529368
788.135748173
788.135744714
788.072055622
788.069394333
788.042076558
788.035395053
788.059848988
788.019528059
788.090477868
787.99242191
788.105708673
788.072816837
788.194669217
)
;
    }
    procBoundary3to1
    {
        type            processor;
        value           nonuniform List<scalar> 
41
(
300.458920818
300.348373233
300.26813601
300.198864068
300.138560549
300.091761989
300.059058433
300.037401378
300.02258327
300.012043539
300.005210289
300.001768797
300.000480901
386.618957184
333.652127778
313.430917044
305.440025065
302.253356967
301.056063399
300.458920818
300.620755094
300.000112324
300.000023249
300.000005014
300.000002931
300.000002705
300.000002665
300.000004008
300.000006792
300.000009331
300.000011123
300.00001272
300.000015114
300.000018234
300.000022534
300.000026248
300.000031666
300.000037543
300.000042648
300.000047499
300.000041844
)
;
    }
    procBoundary3to2
    {
        type            processor;
        value           nonuniform List<scalar> 
41
(
377.866499371
327.989878935
308.960573344
302.551227439
300.784917504
300.339917204
300.200269013
300.133024771
300.088767409
300.055640924
300.029989495
300.011818012
300.002572671
300.000264583
300.000017109
300
300
300
300
300
300
300
300
300
300
300
300
300
300
300
300
300
300
300
300
300
300
300
300
300
300
)
;
    }
}


// ************************************************************************* //
