/*--------------------------------*- C++ -*----------------------------------*\
| =========                 |                                                 |
| \\      /  F ield         | OpenFOAM: The Open Source CFD Toolbox           |
|  \\    /   O peration     | Version:  2312                                  |
|   \\  /    A nd           | Website:  www.openfoam.com                      |
|    \\/     M anipulation  |                                                 |
\*---------------------------------------------------------------------------*/
FoamFile
{
    version     2.0;
    format      ascii;
    arch        "LSB;label=32;scalar=64";
    class       volScalarField;
    location    "180/fluidRegion";
    object      p_rgh;
}
// * * * * * * * * * * * * * * * * * * * * * * * * * * * * * * * * * * * * * //

dimensions      [1 -1 -2 0 0 0 0];

internalField   nonuniform List<scalar> 
17
(
1.47591e+07
1.47585e+07
1.47576e+07
1.47563e+07
1.47551e+07
1.47538e+07
1.47526e+07
1.47513e+07
1.47501e+07
1.47488e+07
1.47476e+07
1.47463e+07
1.4745e+07
1.47438e+07
1.47425e+07
1.47413e+07
1.474e+07
)
;

boundaryField
{
    inlet
    {
        type            fixedFluxPressure;
        gradient        uniform 12087.9;
        value           uniform 1.47594e+07;
    }
    outlet
    {
        type            fixedValue;
        value           uniform 1.47394e+07;
    }
    fixedWalls
    {
        type            fixedFluxPressure;
        gradient        uniform 0;
        value           nonuniform List<scalar> 
68
(
1.47591e+07
1.47585e+07
1.47576e+07
1.47563e+07
1.47551e+07
1.47538e+07
1.47526e+07
1.47513e+07
1.47501e+07
1.47488e+07
1.47476e+07
1.47463e+07
1.4745e+07
1.47438e+07
1.47425e+07
1.47413e+07
1.474e+07
1.47591e+07
1.47585e+07
1.47576e+07
1.47563e+07
1.47551e+07
1.47538e+07
1.47526e+07
1.47513e+07
1.47501e+07
1.47488e+07
1.47476e+07
1.47463e+07
1.4745e+07
1.47438e+07
1.47425e+07
1.47413e+07
1.474e+07
1.47591e+07
1.47585e+07
1.47576e+07
1.47563e+07
1.47551e+07
1.47538e+07
1.47526e+07
1.47513e+07
1.47501e+07
1.47488e+07
1.47476e+07
1.47463e+07
1.4745e+07
1.47438e+07
1.47425e+07
1.47413e+07
1.474e+07
1.47591e+07
1.47585e+07
1.47576e+07
1.47563e+07
1.47551e+07
1.47538e+07
1.47526e+07
1.47513e+07
1.47501e+07
1.47488e+07
1.47476e+07
1.47463e+07
1.4745e+07
1.47438e+07
1.47425e+07
1.47413e+07
1.474e+07
)
;
    }
}


// ************************************************************************* //
