/*--------------------------------*- C++ -*----------------------------------*\
| =========                 |                                                 |
| \\      /  F ield         | OpenFOAM: The Open Source CFD Toolbox           |
|  \\    /   O peration     | Version:  2312                                  |
|   \\  /    A nd           | Website:  www.openfoam.com                      |
|    \\/     M anipulation  |                                                 |
\*---------------------------------------------------------------------------*/
FoamFile
{
    version     2.0;
    format      ascii;
    arch        "LSB;label=32;scalar=64";
    class       surfaceScalarField;
    location    "0.14/water";
    object      phi;
}
// * * * * * * * * * * * * * * * * * * * * * * * * * * * * * * * * * * * * * //

dimensions      [0 3 -1 0 0 0 0];

oriented        oriented;

internalField   nonuniform List<scalar> 
2914
(
1.28802705291e-07
9.82727212928e-07
1.62039125623e-07
7.73320291198e-07
1.9297219758e-07
6.53714702584e-07
2.1740885827e-07
5.98382483178e-07
2.32822453966e-07
5.88488649021e-07
2.39567816702e-07
6.05694083329e-07
2.40967184763e-07
6.35220071826e-07
2.39820546769e-07
6.67227292007e-07
2.35683096454e-07
6.98617809119e-07
2.30451098833e-07
7.24592464618e-07
2.27891255942e-07
7.38680124655e-07
2.30963013477e-07
7.3786784474e-07
2.39842684959e-07
7.28072600176e-07
2.50576632659e-07
7.24200076393e-07
2.53634745095e-07
7.44737617775e-07
2.07624484816e-07
8.35964082513e-07
1.16189618324e-07
9.83927590883e-07
4.73078868416e-08
1.09418672723e-06
-5.83154277085e-09
1.1553639674e-06
1.15483676245e-06
-5.17813763649e-08
1.61720197703e-07
9.11595153008e-07
1.84558976969e-07
7.14063475946e-07
2.0728640124e-07
6.16945909333e-07
2.2674672656e-07
5.74137470717e-07
2.37489590808e-07
5.76273978098e-07
2.39396488815e-07
6.03345724522e-07
2.35850142833e-07
6.38617161246e-07
2.27080952049e-07
6.75933442369e-07
2.15434654967e-07
7.10222749358e-07
2.05595254508e-07
7.34392104778e-07
2.02156402899e-07
7.42089357984e-07
2.07784236746e-07
7.32201675276e-07
2.20005879015e-07
7.15828024637e-07
2.33209138746e-07
7.10985390855e-07
2.12052650186e-07
7.65816767227e-07
1.38528916325e-07
9.09366394846e-07
8.53597387585e-08
1.03696621601e-06
4.58040142474e-08
1.13355127483e-06
5.02187269143e-09
1.19592548451e-06
1.19304048858e-06
-3.34696102985e-08
1.85900680305e-07
8.3258782271e-07
2.01180101387e-07
6.59849921327e-07
2.14841368978e-07
5.89203226146e-07
2.22981177445e-07
5.61766597233e-07
2.22838440557e-07
5.75305587347e-07
2.16732922385e-07
6.09157077647e-07
2.05416160191e-07
6.4983905629e-07
1.8991356585e-07
6.91391041138e-07
1.75200304932e-07
7.24900548805e-07
1.64783117411e-07
7.44785814091e-07
1.62977892684e-07
7.4386406136e-07
1.70527536843e-07
7.24632577508e-07
1.84661503639e-07
7.01681756256e-07
1.79444936131e-07
7.16139672126e-07
1.3547409667e-07
8.09712623956e-07
9.7711578473e-08
9.47020499155e-07
7.52849397378e-08
1.05924335758e-06
5.17199962647e-08
1.15693455006e-06
2.60891148138e-08
1.22131199912e-06
1.21899659559e-06
-5.65316408814e-11
2.00274894846e-07
7.62624383164e-07
2.10017592378e-07
6.16517740279e-07
2.13669346626e-07
5.73646272065e-07
2.07275571411e-07
5.64823474164e-07
1.93232206983e-07
5.88546650551e-07
1.76847261392e-07
6.25341345357e-07
1.57739045225e-07
6.68882870401e-07
1.38695744449e-07
7.10401749089e-07
1.2138449969e-07
7.42196771093e-07
1.09585525838e-07
7.56565199796e-07
1.06723215222e-07
7.46713728261e-07
1.11388021703e-07
7.19965912446e-07
1.03027017464e-07
7.09988865113e-07
7.28898024843e-08
7.46240134463e-07
5.69947539144e-08
8.25552002594e-07
6.33726668285e-08
9.40542834171e-07
5.56672371656e-08
1.06683250261e-06
4.47938659223e-08
1.16765473973e-06
3.30349172615e-08
1.23296422641e-06
1.23086920078e-06
2.10220339963e-08
2.07701156207e-07
7.01773827003e-07
2.11437834942e-07
5.87377027653e-07
2.04011032252e-07
5.72150360798e-07
1.83395773216e-07
5.82906038489e-07
1.54015501538e-07
6.17307326168e-07
1.26505284392e-07
6.52699139093e-07
1.03045441217e-07
6.92298633545e-07
8.03770858277e-08
7.33062099433e-07
5.85066205561e-08
7.64067486388e-07
3.70468919187e-08
7.78023525546e-07
1.38213139815e-08
7.69947597552e-07
-1.12873591391e-08
7.45031899657e-07
-4.68027909046e-08
7.45523694601e-07
-6.3952308664e-08
7.63408728181e-07
-4.27862100178e-08
8.0436148214e-07
-9.2556704028e-09
9.06968944524e-07
5.19176871195e-09
1.05232615869e-06
7.82959138832e-09
1.16496350274e-06
9.71588668751e-09
1.23100779789e-06
1.2331851855e-06
7.32984982923e-09
2.259068998e-07
6.2797544202e-07
2.29778689961e-07
5.62277759211e-07
2.18534258779e-07
5.75275985811e-07
1.82392639798e-07
6.16407176348e-07
1.21723158136e-07
6.77249039889e-07
8.00946652055e-08
6.94150172902e-07
5.12028827641e-08
7.21164283078e-07
1.86593045725e-08
7.656062405e-07
-2.66025200974e-08
8.09326386053e-07
-8.98431410405e-08
8.41277811204e-07
-1.65939512821e-07
8.46023084305e-07
-2.28018188443e-07
8.07165389559e-07
-2.4544326776e-07
7.62980201534e-07
-2.27067695724e-07
7.45037759957e-07
-1.85649423518e-07
7.62933715518e-07
-1.28651715332e-07
8.4995056515e-07
-7.929560113e-08
1.00295229958e-06
-5.37423766096e-08
1.13940660615e-06
-2.77815388277e-08
1.20503713255e-06
1.20994468428e-06
-4.6110536663e-09
2.37955186579e-07
5.42919641888e-07
2.59487089444e-07
5.21001324576e-07
2.63513332484e-07
5.62173589767e-07
1.98381468157e-07
6.7789207783e-07
5.49627822028e-08
8.19435291513e-07
-1.97186564143e-08
7.68725657598e-07
-6.98562647443e-08
7.71273579055e-07
-1.31117217109e-07
8.26819112621e-07
-2.17415361444e-07
8.95598218231e-07
-3.17217481447e-07
9.41091329647e-07
-4.06474798691e-07
9.35315949145e-07
-4.35046621121e-07
8.3573592535e-07
-4.14173441103e-07
7.42075584675e-07
-3.75766964286e-07
7.06591654265e-07
-3.24196266305e-07
7.11322422483e-07
-2.52249339807e-07
7.7796462129e-07
-1.77053907349e-07
9.27724972586e-07
-1.24155234983e-07
1.08648518373e-06
-7.15211724847e-08
1.15236072611e-06
1.16000270477e-06
-2.16673169009e-08
2.46852682858e-07
4.48660183197e-07
2.89837535043e-07
4.57272269687e-07
3.08687482129e-07
5.32369619039e-07
1.70376341997e-07
8.10833787163e-07
-1.91428532949e-07
1.18057776171e-06
-3.58438481992e-07
9.3641014286e-07
-4.6384685778e-07
8.76868518747e-07
-5.41483382375e-07
9.04585258388e-07
-5.91585678422e-07
9.45789080891e-07
-6.02374924239e-07
9.51926938951e-07
-5.76791981513e-07
9.09728525478e-07
-5.41084100855e-07
7.99971256056e-07
-5.02052482596e-07
7.02971023413e-07
-4.56687690053e-07
6.61157798535e-07
-4.0495988722e-07
6.59532181574e-07
-3.32953821914e-07
7.05898224713e-07
-2.48994799665e-07
8.43699781776e-07
-1.80225542568e-07
1.01764747964e-06
-1.10181472829e-07
1.08220356215e-06
1.0934764563e-06
-4.37911094312e-08
2.44355692846e-07
3.58031027415e-07
2.99976363779e-07
3.81464264682e-07
3.48928969391e-07
4.72617281644e-07
1.42331332412e-07
1.01231280023e-06
-2.69297968467e-07
1.5930877402e-06
-7.0631050958e-07
1.3745305735e-06
-8.56331131071e-07
1.02735393428e-06
-8.74166613263e-07
9.22603701529e-07
-8.2653236565e-07
8.98282456109e-07
-7.40546381505e-07
8.66016295529e-07
-6.37330595774e-07
8.06525172576e-07
-5.60226850809e-07
7.22822365927e-07
-5.09140702986e-07
6.51819291682e-07
-4.65246304989e-07
6.17198802086e-07
-4.20523133738e-07
6.14748191398e-07
-3.6119597034e-07
6.46507947543e-07
-2.7875507416e-07
7.61180877019e-07
-2.02863152557e-07
9.41672076247e-07
-1.28136122279e-07
1.00737719977e-06
1.01992319107e-06
-5.47202229461e-08
1.99728698284e-07
3.15694286126e-07
2.22678304967e-07
3.40801793728e-07
2.54135261305e-07
4.33038147406e-07
1.07672965623e-07
1.15425409134e-06
1.69501838402e-07
1.53059565564e-06
5.96560010628e-09
1.53828917651e-06
-4.37776516885e-07
1.47135806551e-06
-6.57767148011e-07
1.14287005668e-06
-6.63111332481e-07
9.03829111245e-07
-6.17858075543e-07
8.20881561758e-07
-5.51067663222e-07
7.39797715091e-07
-4.93863510207e-07
6.65627093114e-07
-4.52767506308e-07
6.10697309374e-07
-4.2085367663e-07
5.85243312508e-07
-3.9121619818e-07
5.8506172805e-07
-3.50173687334e-07
6.05405469391e-07
-2.75981496766e-07
6.86903373175e-07
-1.92147260669e-07
8.57737008868e-07
-1.21044747317e-07
9.36159684068e-07
9.48984688544e-07
-5.02291322993e-08
1.70693045951e-07
3.07424103816e-07
1.66884521164e-07
3.28185369872e-07
1.74395037058e-07
4.18894811653e-07
1.94302445547e-07
1.12951559626e-06
2.9738208512e-07
1.42582782276e-06
3.46644532729e-07
1.48850543859e-06
3.60014840441e-07
1.45790329038e-06
1.10732946134e-07
1.39220483934e-06
-2.25889270578e-07
1.240481279e-06
-3.23325457898e-07
9.18366709284e-07
-3.57771265817e-07
7.74275868221e-07
-3.67739214738e-07
6.75593261456e-07
-3.62315855565e-07
6.0525119103e-07
-3.51162087984e-07
5.74051977057e-07
-3.36927742185e-07
5.70776112097e-07
-3.13408005898e-07
5.81823731513e-07
-2.54944732813e-07
6.28351069153e-07
-1.63120280797e-07
7.65790527882e-07
-1.00441841373e-07
8.73346492334e-07
8.85370471941e-07
-3.70030400154e-08
1.53667163507e-07
3.23227784123e-07
1.28774547843e-07
3.37314978511e-07
4.15166837174e-08
4.98823261131e-07
1.25242840619e-07
1.04266357967e-06
2.78272666891e-07
1.27104345208e-06
4.13737907257e-07
1.35227347292e-06
4.93813236269e-07
1.37750485399e-06
5.30414685669e-07
1.35544844243e-06
4.63365237395e-07
1.307421082e-06
1.70770056545e-07
1.21088420002e-06
-4.14994781591e-08
9.86493786028e-07
-1.56091073266e-07
7.90138700287e-07
-2.26446096856e-07
6.75576540296e-07
-2.58126133461e-07
6.05693792186e-07
-2.6261918444e-07
5.75218749605e-07
-2.53639598029e-07
5.7277863241e-07
-2.18618278128e-07
5.93244479193e-07
-1.33934398011e-07
6.80971379815e-07
-7.49675581124e-08
8.14211746156e-07
8.3126984543e-07
-2.10536067033e-08
1.29451272076e-07
3.62278313688e-07
-1.40092340565e-08
4.71943279121e-07
-8.02348794645e-08
5.65761909311e-07
4.66790543701e-08
9.15703812585e-07
2.16257832369e-07
1.10049342334e-06
3.75863978157e-07
1.19197084077e-06
5.11515078849e-07
1.24144307996e-06
6.05403785426e-07
1.2612887053e-06
6.56760392891e-07
1.25585129656e-06
6.48545450407e-07
1.21891819712e-06
4.68343993277e-07
1.1665358173e-06
1.72910393353e-07
1.08545081704e-06
-1.55578037291e-08
8.63957829063e-07
-1.17889576656e-07
7.07970317398e-07
-1.67059528199e-07
6.2433913936e-07
-1.77330245875e-07
5.82989629706e-07
-1.64994765608e-07
5.80832182802e-07
-1.07857381815e-07
6.23717801176e-07
-4.53336001642e-08
7.51513547106e-07
7.87930994989e-07
-2.19423137772e-09
1.05761932852e-07
3.96675091407e-07
5.84235861084e-08
5.0836080201e-07
4.73614833709e-08
5.75955905178e-07
1.3510241987e-07
8.27906598795e-07
2.57850343168e-07
9.77064966094e-07
3.80710964782e-07
1.06851297558e-06
4.93260693055e-07
1.12843623137e-06
5.86279443377e-07
1.16793225632e-06
6.52754810204e-07
1.18910397319e-06
6.75774015496e-07
1.19566622065e-06
6.55340993411e-07
1.1867579267e-06
5.77107717877e-07
1.16348556471e-06
3.22030535611e-07
1.11886959968e-06
6.98937526662e-08
9.59988944639e-07
-3.70845871282e-08
7.31241524344e-07
-8.63578482559e-08
6.32199136377e-07
-9.35911256231e-08
5.87994925471e-07
-7.13409169937e-08
6.01378596974e-07
-1.2025726269e-08
6.92044528538e-07
7.55567253203e-07
2.01562151522e-08
1.32421870184e-07
3.94736451545e-07
1.05138957207e-07
5.1919227659e-07
1.07900768185e-07
5.69062587243e-07
1.89343069411e-07
7.45630766098e-07
2.79686057368e-07
8.85995485009e-07
3.73476104956e-07
9.74100910346e-07
4.60133699294e-07
1.04130246195e-06
5.36294465591e-07
1.09138521518e-06
5.9464586968e-07
1.13044423848e-06
6.31862461812e-07
1.15818092244e-06
6.40268372207e-07
1.17811527432e-06
6.13576625062e-07
1.18995543862e-06
5.51312909339e-07
1.18093111327e-06
3.54326160209e-07
1.15680729147e-06
1.24430162146e-07
9.61010997782e-07
2.44833367916e-08
7.32060505112e-07
-9.8832915985e-09
6.22291769977e-07
-1.29673697124e-08
6.04378462397e-07
2.47917131444e-08
6.54151750865e-07
7.31471798276e-07
4.8705153147e-08
1.38287091616e-07
3.84865813005e-07
1.26132244821e-07
5.11688787225e-07
1.41162930125e-07
5.46550680228e-07
2.1246117677e-07
6.71817764707e-07
2.84704346262e-07
8.12545960722e-07
3.54568272144e-07
9.03484000503e-07
4.20959240036e-07
9.74346730996e-07
4.78682572253e-07
1.03324163321e-06
5.27116926295e-07
1.08166195234e-06
5.60861801102e-07
1.12415202211e-06
5.78550447822e-07
1.16016976877e-06
5.7857653237e-07
1.18970140236e-06
5.47639937641e-07
1.21165766491e-06
4.85022996907e-07
1.21923972467e-06
2.70908742949e-07
1.17497830645e-06
1.44353132525e-07
8.5850920273e-07
7.54164932841e-08
6.91150843506e-07
5.6480031208e-08
6.23239132466e-07
6.68077867084e-08
6.43716401848e-07
7.13626904615e-07
8.44701606028e-08
1.42419292379e-07
3.7118180346e-07
1.3537177162e-07
4.9750628604e-07
1.55675110712e-07
5.16291838836e-07
2.28348027429e-07
5.9500256447e-07
2.97222310225e-07
7.4157852165e-07
3.50801107239e-07
8.48704092292e-07
3.96781915675e-07
9.27662725386e-07
4.38488688236e-07
9.91031112229e-07
4.73301446937e-07
1.04648770573e-06
5.01773236662e-07
1.09537248417e-06
5.21374051712e-07
1.14031407753e-06
5.30856379441e-07
1.17998202344e-06
5.28973944979e-07
1.21333056514e-06
5.10406836996e-07
1.23761383234e-06
4.56136694462e-07
1.22907906081e-06
2.49130732163e-07
1.06538248062e-06
1.57816277775e-07
7.82372690214e-07
1.22504676499e-07
6.58476404943e-07
1.13209502323e-07
6.52915579577e-07
7.03131072658e-07
1.23564687629e-07
1.40605428748e-07
3.59669047585e-07
1.32326741173e-07
4.83185688516e-07
1.49208744437e-07
4.87200135244e-07
2.7138897663e-07
4.66399738395e-07
3.32933947147e-07
6.76868356211e-07
3.68660389652e-07
8.11520291107e-07
3.94666756984e-07
9.0080307284e-07
4.15710481791e-07
9.6947246345e-07
4.35535510835e-07
1.02627019935e-06
4.5198906434e-07
1.0786257198e-06
4.65167417712e-07
1.12687399972e-06
4.72412317758e-07
1.17251432362e-06
4.71196206699e-07
1.21433797179e-06
4.57443459982e-07
1.25118140592e-06
4.14771584399e-07
1.27158372567e-06
3.14001402862e-07
1.16601244201e-06
2.25893717629e-07
8.70373139211e-07
1.79889922895e-07
7.04400884207e-07
1.6043746937e-07
6.72283534895e-07
7.0351389121e-07
1.59917569778e-07
1.52502750096e-07
3.35922123406e-07
1.55756097794e-07
4.55224702439e-07
1.87394582223e-07
4.4126079732e-07
2.33268155622e-07
4.1377860781e-07
3.3309913696e-07
5.7415405918e-07
3.6464605467e-07
7.78251272145e-07
3.76915320008e-07
8.876374129e-07
3.8672057489e-07
9.59100787174e-07
3.94960321095e-07
1.01767027791e-06
4.03693961763e-07
1.06959528737e-06
4.10671782333e-07
1.11966067351e-06
4.15643528134e-07
1.16732308575e-06
4.15985438149e-07
1.21380469583e-06
4.09539393639e-07
1.2574477866e-06
3.90751393566e-07
1.29021033639e-06
3.34448401965e-07
1.22217457156e-06
2.70229014672e-07
9.34479902115e-07
2.25998470243e-07
7.48547303927e-07
2.00822996136e-07
6.97376333551e-07
7.14271460732e-07
1.89955075041e-07
1.48513099034e-07
3.16848459995e-07
1.4921135524e-07
4.28518947593e-07
1.88576295731e-07
3.86306617757e-07
2.0408108998e-07
3.91610587041e-07
2.96052547333e-07
4.79494881845e-07
3.2717981202e-07
7.45819190882e-07
3.37164968458e-07
8.76906347286e-07
3.41309929687e-07
9.5451835395e-07
3.46152242332e-07
1.01249255551e-06
3.51108712339e-07
1.06438895443e-06
3.57426690672e-07
1.11311560475e-06
3.62790739749e-07
1.16176553513e-06
3.66684963044e-07
1.20972601934e-06
3.66531463842e-07
1.25743513606e-06
3.58735193359e-07
1.29785064429e-06
3.33708008387e-07
1.24706318128e-06
2.94992015201e-07
9.73082041663e-07
2.59783127886e-07
7.83669772394e-07
2.31583695085e-07
7.25501621709e-07
7.33168277756e-07
2.12585413786e-07
1.60573396792e-07
2.84955519906e-07
1.72709585246e-07
3.88730077141e-07
1.81992434891e-07
3.62211312944e-07
1.83020005115e-07
3.84408212265e-07
2.02377262908e-07
4.58027661333e-07
2.61398495477e-07
6.8576518662e-07
2.78184296914e-07
8.59492454774e-07
2.85555244275e-07
9.46730717746e-07
2.90598414837e-07
1.00716815935e-06
2.97210654107e-07
1.05753673556e-06
3.04205079018e-07
1.1059247344e-06
3.12335110341e-07
1.15344892986e-06
3.19545864934e-07
1.20234943842e-06
3.25522340308e-07
1.25129904614e-06
3.28055040417e-07
1.29516957971e-06
3.26398163104e-07
1.24858451488e-06
3.09206256034e-07
9.90161873919e-07
2.82441537564e-07
8.10351360298e-07
2.53574296498e-07
7.5429228107e-07
7.5802619661e-07
2.28629459767e-07
1.59618603331e-07
2.53952655985e-07
1.70359465911e-07
3.49374122942e-07
1.66797005317e-07
3.51268212249e-07
1.57779955154e-07
3.87859456649e-07
1.62332568865e-07
4.51761326047e-07
2.45892858934e-07
6.01443478546e-07
2.51192204985e-07
8.53669952687e-07
2.48853634537e-07
9.48734623945e-07
2.4901605271e-07
1.00674457826e-06
2.51415662698e-07
1.05493282424e-06
2.57241095034e-07
1.0999109257e-06
2.64397614436e-07
1.14612773626e-06
2.73228009701e-07
1.19336016131e-06
2.81790475738e-07
1.24258927062e-06
2.91527354723e-07
1.28529037709e-06
3.15022513674e-07
1.22495824096e-06
3.17811377404e-07
9.87262379677e-07
2.98465968384e-07
8.29611095223e-07
2.69140906809e-07
7.83551615048e-07
7.87454338701e-07
2.3963289097e-07
1.41322133906e-07
2.48397535859e-07
1.60659431143e-07
3.02710696897e-07
1.4482541943e-07
3.5424542051e-07
1.30868280505e-07
3.9756641704e-07
1.27063392175e-07
4.54428619228e-07
1.51216418072e-07
5.76867905119e-07
1.73497772236e-07
8.31037105032e-07
1.82342152208e-07
9.39618806009e-07
1.88395370042e-07
1.00048106577e-06
1.9549221386e-07
1.04764757937e-06
2.02776381764e-07
1.09246409898e-06
2.11444582102e-07
1.13730357723e-06
2.19814413287e-07
1.18484750618e-06
2.29255610323e-07
1.23300863383e-06
2.43616268417e-07
1.27079594968e-06
3.03864813697e-07
1.16458502952e-06
3.22802484356e-07
9.68220053064e-07
3.10012782911e-07
8.42328832427e-07
2.8006331956e-07
8.13432288015e-07
8.21459452996e-07
2.45978203839e-07
1.57713640059e-07
2.44889708659e-07
1.35198931923e-07
3.02934573423e-07
1.11575983753e-07
3.68459973998e-07
9.60565642115e-08
4.10415201767e-07
8.81676032884e-08
4.61714836021e-07
1.00762995093e-07
5.64052125454e-07
1.32753576871e-07
7.98799395937e-07
1.41781928944e-07
9.30371254779e-07
1.47887403638e-07
9.94184108743e-07
1.53280019244e-07
1.04209020688e-06
1.59781962585e-07
1.08580745952e-06
1.66123586084e-07
1.13082154701e-06
1.73354348162e-07
1.17748051615e-06
1.81510712482e-07
1.22472186339e-06
2.14007235586e-07
1.23817079155e-06
3.05314228149e-07
1.07315786151e-06
3.29472993727e-07
9.43962352602e-07
3.17321555884e-07
8.54403513813e-07
2.86773397123e-07
8.43919877023e-07
8.63545357721e-07
2.44618753951e-07
1.50063242543e-07
2.5731293732e-07
1.00925090675e-07
3.30627925391e-07
7.54737178899e-08
3.87095418146e-07
6.00018418048e-08
4.24450335895e-07
4.96838286962e-08
4.71776708345e-07
5.38728136534e-08
5.5975457562e-07
1.15635996509e-07
7.36871301108e-07
1.25184589441e-07
9.20635835143e-07
1.28582255507e-07
9.90617946373e-07
1.32371851836e-07
1.03814493426e-06
1.36885307584e-07
1.08115355042e-06
1.43899303398e-07
1.12367286121e-06
1.53904523115e-07
1.16734821201e-06
1.77541022383e-07
1.20095985944e-06
2.68222292533e-07
1.14736752643e-06
3.20446055879e-07
1.0208232526e-06
3.40794603531e-07
9.23529990882e-07
3.21781009277e-07
8.73364491828e-07
2.90549605868e-07
8.75096968579e-07
9.20059443145e-07
2.33964140554e-07
1.20192616044e-07
2.94628219973e-07
6.53762268075e-08
3.63873784802e-07
4.27927335963e-08
4.05321112474e-07
2.7100334811e-08
4.3956806427e-07
1.39086118348e-08
4.84888022123e-07
1.39704730492e-08
5.5963274495e-07
4.66041277483e-08
7.04130184955e-07
8.68804671719e-08
8.80210625926e-07
1.0337066243e-07
9.73974579092e-07
1.12042271844e-07
1.02933082632e-06
1.19809553941e-07
1.07325118122e-06
1.28721003569e-07
1.11463434686e-06
1.4776676519e-07
1.14817879281e-06
2.02637524117e-07
1.14596660091e-06
2.98020981996e-07
1.05186717846e-06
3.42105867618e-07
9.76643442766e-07
3.50706150545e-07
9.1486184551e-07
3.25691867989e-07
8.98339478983e-07
2.8405308879e-07
9.16687525966e-07
9.86773360655e-07
2.17240305119e-07
8.27441583895e-08
3.52807407142e-07
3.49397752749e-08
3.91290401126e-07
1.61495766918e-08
4.22175276931e-07
-6.5311315415e-10
4.5630355859e-07
-1.78483264235e-08
5.02066960864e-07
-2.28640694824e-08
5.64611399385e-07
4.39310560575e-09
6.76800136943e-07
6.68750082921e-08
8.17614084813e-07
9.618742079e-08
9.4452887097e-07
1.10563393336e-07
1.01482128449e-06
1.21552091396e-07
1.06213480704e-06
1.40807103412e-07
1.09525568115e-06
1.87514720961e-07
1.10135101031e-06
2.79571912988e-07
1.05379254504e-06
3.30195954711e-07
1.00114280465e-06
3.59051797688e-07
9.47717982658e-07
3.50415465526e-07
9.23461040789e-07
3.19445213354e-07
9.29257690132e-07
2.55974240141e-07
9.80050199644e-07
1.04436116677e-06
1.98342142023e-07
4.91462460165e-08
3.73904916802e-07
1.65298248796e-08
4.1087177588e-07
1.13101928709e-10
4.38441753952e-07
-1.85489487423e-08
4.75087040428e-07
-3.90039845578e-08
5.22514944625e-07
-5.18347153624e-08
5.77416215428e-07
-3.26164692458e-08
6.57533298046e-07
1.04806110185e-08
7.74436201428e-07
6.56525219753e-08
8.89252361596e-07
1.04345826725e-07
9.76014268184e-07
1.36962693485e-07
1.02940339863e-06
1.88119388771e-07
1.04398607895e-06
2.5752456609e-07
1.03183762176e-06
3.10251345737e-07
1.00096940292e-06
3.49822460029e-07
9.6149222833e-07
3.56618996563e-07
9.40854948403e-07
3.36717769498e-07
9.43298219605e-07
2.86995777494e-07
9.78893092632e-07
2.19266206392e-07
1.04776797684e-06
1.09082173838e-06
1.72748191438e-07
3.23041269907e-08
3.99982674289e-07
1.13631994926e-08
4.26567134677e-07
-5.11477137135e-09
4.55198359308e-07
-2.54375951451e-08
4.95523707374e-07
-4.71714477626e-08
5.44238218082e-07
-6.65981036439e-08
5.96823032341e-07
-6.51288364473e-08
6.5603053533e-07
-2.71984105311e-08
7.36446172313e-07
2.65019090976e-08
8.35466325474e-07
8.36269053159e-08
9.18790495346e-07
1.43376551898e-07
9.69552886094e-07
2.00391064581e-07
9.86873386364e-07
2.55002691477e-07
9.77137766515e-07
3.02448118135e-07
9.53453624369e-07
3.23626293103e-07
9.40262126136e-07
3.16726535062e-07
9.47717792038e-07
2.82452225255e-07
9.7754026881e-07
2.19938867537e-07
1.04142642793e-06
1.74183068522e-07
1.09348940417e-06
1.12925990002e-06
1.35706984541e-07
2.83450326734e-08
4.603395599e-07
1.37271481183e-08
4.40762302973e-07
-4.04004854867e-09
4.73408216666e-07
-2.48132569858e-08
5.16336923981e-07
-4.65611471531e-08
5.65974110866e-07
-6.73590027588e-08
6.17598351218e-07
-8.21422798887e-08
6.70792562606e-07
-7.1218515007e-08
7.25492184374e-07
-2.71066120101e-08
7.91308191562e-07
3.10731042372e-08
8.60556587525e-07
8.88308771445e-08
9.11739655699e-07
1.43422927823e-07
9.32230179443e-07
1.91654445704e-07
9.28862057972e-07
2.25659664317e-07
9.19414122331e-07
2.36253599506e-07
9.2963572717e-07
2.23204928636e-07
9.60744416386e-07
1.77509232555e-07
1.02324327243e-06
1.38054293451e-07
1.08084304087e-06
1.10221014078e-07
1.12129142836e-06
1.15313582416e-06
8.63290547966e-08
5.10366836382e-08
5.67479457543e-07
2.99349161788e-08
4.59986301658e-07
7.59803138037e-09
4.95351445541e-07
-1.50775208765e-08
5.38928458198e-07
-3.73472466808e-08
5.88216597783e-07
-5.90170556996e-08
6.39256540251e-07
-7.82169870094e-08
6.89976667098e-07
-9.16177735798e-08
7.38874174808e-07
-8.20553844984e-08
7.81731887941e-07
-4.77243364225e-08
8.26207067612e-07
-4.37347799569e-09
8.68357361701e-07
3.21190604404e-08
8.95711202197e-07
6.24480621786e-08
8.98509360444e-07
8.20872115484e-08
8.99754937319e-07
9.07817039404e-08
9.20927305743e-07
7.80405953502e-08
9.73478433353e-07
5.40867112927e-08
1.04717159667e-06
4.23598372245e-08
1.09255526988e-06
3.35324248455e-08
1.13012609797e-06
1.15734290583e-06
2.93172171569e-08
9.35389003966e-08
6.45766746997e-07
5.30460744606e-08
4.95598637517e-07
2.10300964396e-08
5.26349562232e-07
-7.5089508147e-09
5.67371611015e-07
-3.36618572033e-08
6.14402313428e-07
-5.76146989053e-08
6.63227573689e-07
-7.94417002394e-08
7.11816261553e-07
-9.86808864932e-08
7.58115618173e-07
-1.15824540089e-07
7.98877749015e-07
-1.19032383194e-07
8.29426840873e-07
-1.13639716385e-07
8.62967845037e-07
-1.08911573468e-07
8.91005476582e-07
-1.02989612145e-07
8.92602568504e-07
-9.8586695731e-08
8.95362109829e-07
-9.64961414872e-08
9.18842168594e-07
-9.29869913785e-08
9.69970520903e-07
-7.75350639936e-08
1.03172568343e-06
-6.3239486396e-08
1.07827674126e-06
-4.69477570544e-08
1.11383854455e-06
1.1382939431e-06
-2.78716320211e-08
1.21599536469e-07
6.89637609596e-07
4.49815763456e-08
5.6332739776e-07
-9.50415622973e-09
5.79599991997e-07
-4.69396593072e-08
6.05044516431e-07
-7.33495086559e-08
6.41025812549e-07
-9.35018066633e-08
6.8353399424e-07
-1.12303593457e-07
7.30704907731e-07
-1.31519325216e-07
7.77391282454e-07
-1.57738541868e-07
8.2515580624e-07
-1.95083721492e-07
8.66799072552e-07
-2.37392296709e-07
9.05389343586e-07
-2.66631836951e-07
9.2030456931e-07
-2.85023374006e-07
9.11034989768e-07
-2.95291357984e-07
9.05656119112e-07
-2.93881331517e-07
9.17452599495e-07
-2.70253734326e-07
9.46363052017e-07
-2.25983653851e-07
9.87477213188e-07
-1.78297483095e-07
1.03060989187e-06
-1.29473475721e-07
1.06504399282e-06
1.08710834317e-06
-7.82691173408e-08
1.6253071936e-07
6.9767115294e-07
6.1716912135e-08
6.53146872024e-07
-1.61015527104e-08
6.54360026197e-07
-6.86103606435e-08
6.56902567242e-07
-9.85101453615e-08
6.71013922814e-07
-1.17257436975e-07
7.02410006523e-07
-1.32284166698e-07
7.45769236921e-07
-1.55654383234e-07
8.00777000188e-07
-1.99956856708e-07
8.69447263654e-07
-2.70225688615e-07
9.37142151472e-07
-3.44296634558e-07
9.79510514394e-07
-3.97354459543e-07
9.73421953014e-07
-4.35234349957e-07
9.48970676619e-07
-4.54774653781e-07
9.25249024805e-07
-4.50162254398e-07
9.12893602383e-07
-4.16160992395e-07
9.12409945611e-07
-3.58199856362e-07
9.29536615857e-07
-2.85199662731e-07
9.57641067686e-07
-2.0627722911e-07
9.8615533034e-07
1.00454230911e-06
-1.23674569513e-07
2.55406581755e-07
6.11647625409e-07
2.09173038596e-07
6.66628156088e-07
1.514581452e-07
6.93583848221e-07
9.63191837261e-08
7.03760492519e-07
4.6212445005e-08
7.17956032196e-07
1.02901571661e-09
7.46581451222e-07
-4.42063580398e-08
7.90781828128e-07
-9.69656373851e-08
8.53573646492e-07
-1.60208287689e-07
9.32823338271e-07
-2.259875935e-07
1.00305678656e-06
-2.91271612704e-07
1.04491697443e-06
-3.57083803719e-07
1.03932599707e-06
-4.19077974379e-07
1.01103469349e-06
-4.62743575367e-07
9.6897225366e-07
-4.75178756001e-07
9.25384658052e-07
-4.52497811251e-07
8.8979773454e-07
-3.99510524846e-07
8.76628403674e-07
-3.27221116596e-07
8.85406427519e-07
-2.43701441766e-07
9.02683139281e-07
9.14490781533e-07
-1.53607851495e-07
2.51651655983e-07
4.72224202602e-07
2.42228784337e-07
6.37258663479e-07
2.42781933267e-07
6.71546557999e-07
2.37815919434e-07
6.97345388983e-07
2.1968288623e-07
7.3046924364e-07
1.87144514123e-07
7.76588304641e-07
1.40741066513e-07
8.36173145542e-07
8.63668220274e-08
9.07608757056e-07
3.64352649175e-08
9.82677513904e-07
-3.8976707541e-09
1.04339691369e-06
-4.03291463347e-08
1.08138278763e-06
-9.53477985927e-08
1.0943887289e-06
-1.72335410999e-07
1.08807572065e-06
-2.57842339979e-07
1.05454381043e-06
-3.24448835513e-07
9.92041160929e-07
-3.47988860468e-07
9.13373037166e-07
-3.24127588259e-07
8.5282224354e-07
-2.73787863191e-07
8.35120701008e-07
-2.1067761202e-07
8.39618862669e-07
8.4699711451e-07
-1.43140567049e-07
1.05593265547e-07
1.24175665421e-07
1.46386331795e-07
1.66038902026e-07
1.77716269465e-07
1.78410407624e-07
1.68005490512e-07
1.52151507608e-07
1.39374650582e-07
1.30002594283e-07
1.15287939096e-07
8.72440209636e-08
4.18916592609e-08
-2.84187430153e-08
-1.14198142754e-07
-1.68891391313e-07
-1.66706591264e-07
-1.41731560433e-07
-1.08643348695e-07
-7.30408603503e-08
-2.44233834468e-08
3.03391459061e-07
-2.19361875248e-08
2.83771874005e-07
-1.96028712686e-08
2.66753784248e-07
-1.7450591895e-08
2.51404188929e-07
-1.54930016003e-08
2.37486473144e-07
-1.36735655776e-08
2.24723693755e-07
-1.19331795977e-08
2.12215197923e-07
-1.02996991491e-08
1.97118962374e-07
-8.82121307533e-09
1.76285841061e-07
-7.42192106217e-09
1.53344835446e-07
-6.04714069486e-09
1.31450467966e-07
-4.65655355275e-09
1.1138745776e-07
-3.24671565516e-09
9.36545497313e-08
-1.88986504207e-09
7.8333441855e-08
-7.50325369363e-10
6.49184780131e-08
5.23264785427e-08
-6.90755898059e-08
8.41727197206e-07
-6.23516499748e-08
5.23209234725e-07
-5.18141961476e-08
3.78315143449e-07
-4.527087992e-08
3.2359526437e-07
-4.01806043581e-08
2.98297478655e-07
-3.55807858571e-08
2.7916998969e-07
-3.13782606074e-08
2.62550242313e-07
-2.75740466136e-08
2.47599635733e-07
-2.4120899151e-08
2.34033253711e-07
-2.09392522805e-08
2.21542043906e-07
-1.7994456512e-08
2.09270400488e-07
-1.53596873822e-08
1.9448419555e-07
-1.30449344455e-08
1.73971086748e-07
-1.09087958489e-08
1.51208697056e-07
-8.86882816738e-09
1.29410498422e-07
-6.8633540718e-09
1.09381982453e-07
-4.86871600115e-09
9.16599091862e-08
-2.94174346045e-09
7.6406466152e-08
-1.24790193117e-09
6.32246330555e-08
5.10785764122e-08
-7.63541060514e-08
8.84367386112e-07
-7.79464001015e-08
5.24667389985e-07
-6.94027034432e-08
3.69738036349e-07
-6.14140400356e-08
3.1559983706e-07
-5.42354936784e-08
2.91115852545e-07
-4.77184741136e-08
2.72651301436e-07
-4.18320827242e-08
2.56663090541e-07
-3.65278149155e-08
2.42295134802e-07
-3.17103388716e-08
2.29215728422e-07
-2.72912493244e-08
2.17122947887e-07
-2.32600919269e-08
2.05239236821e-07
-1.97332519918e-08
1.90957352177e-07
-1.66867460782e-08
1.70924574242e-07
-1.39145291475e-08
1.48436475897e-07
-1.13059478144e-08
1.26801910245e-07
-8.77830631544e-09
1.06854336822e-07
-6.28732134393e-09
8.91689177544e-08
-3.87215470534e-09
7.39912937636e-08
-1.69443298683e-09
6.10469055232e-08
4.93841434017e-08
-7.40156800795e-08
9.58146305985e-07
-8.73989447785e-08
5.37933538038e-07
-8.19006659266e-08
3.64210246529e-07
-7.29869512036e-08
3.06680206761e-07
-6.44120838985e-08
2.82538303471e-07
-5.65963352873e-08
2.64834134169e-07
-4.95347735815e-08
2.49600901792e-07
-4.31461169958e-08
2.35906293097e-07
-3.73217766422e-08
2.23391352736e-07
-3.19777802324e-08
2.11778950724e-07
-2.71265481147e-08
2.00388004278e-07
-2.29281140945e-08
1.86758919869e-07
-1.93431500913e-08
1.67339610057e-07
-1.61116362771e-08
1.45204962885e-07
-1.30977972226e-08
1.2378807104e-07
-1.02010332595e-08
1.03957573081e-07
-7.35779046298e-09
8.63256746509e-08
-4.58819866582e-09
7.12217014575e-08
-2.04583279426e-09
5.85045389826e-08