/*--------------------------------*- C++ -*----------------------------------*\
| =========                 |                                                 |
| \\      /  F ield         | OpenFOAM: The Open Source CFD Toolbox           |
|  \\    /   O peration     | Version:  2312                                  |
|   \\  /    A nd           | Website:  www.openfoam.com                      |
|    \\/     M anipulation  |                                                 |
\*---------------------------------------------------------------------------*/
FoamFile
{
    version     2.0;
    format      ascii;
    arch        "LSB;label=32;scalar=64";
    class       volScalarField;
    location    "0.185/water";
    object      alpha.gas_0;
}
// * * * * * * * * * * * * * * * * * * * * * * * * * * * * * * * * * * * * * //

dimensions      [0 0 0 0 0 0 0];

internalField   nonuniform List<scalar> 
1504
(
0.663215424445
0.503358148332
0.450556287188
0.393444904725
0.34209959805
0.303999278871
0.301805162495
0.300636367612
0.301592630547
0.300329414277
0.301413899185
0.300310225936
0.320318239773
0.356499611336
0.358919821096
0.359014368027
0.355289557946
0.301307722817
0.176595933491
0.0444851544968
0.664549366419
0.464723945567
0.414808440658
0.368080074962
0.334842387474
0.306940874899
0.301350923278
0.301805162495
0.30486595291
0.306254106936
0.301431470863
0.301232850649
0.319985790921
0.341972063332
0.351594880923
0.355788776966
0.358038610384
0.339504687408
0.228295825267
0.0685128866039
0.656320855521
0.41779967168
0.390396489962
0.364512874857
0.341384452893
0.32599036097
0.322310203168
0.328454085462
0.331845728549
0.320792306942
0.304261876683
0.298936504408
0.305827358727
0.316263369733
0.328503730039
0.342795755003
0.366700304562
0.388806779037
0.278368794951
0.100410536562
0.59759417913
0.385923841889
0.38479601114
0.375799749269
0.368857689648
0.361984826704
0.357571605548
0.350316560037
0.336336344943
0.316744279366
0.296527327582
0.28708253832
0.287664095654
0.292956410078
0.302061370064
0.33090862338
0.386347817797
0.391077295078
0.320941082644
0.143530838007
0.507663446032
0.386239627911
0.395035157456
0.416758193112
0.404939118675
0.382352970247
0.362416864398
0.346881841961
0.325776247558
0.300089874942
0.281341169946
0.274782295361
0.276362143779
0.279073566399
0.285240326845
0.327476138124
0.391077295078
0.392319353679
0.377733726917
0.199601888564
0.449721498234
0.411240283189
0.463685621588
0.476602798111
0.425709344887
0.380888155193
0.354381635912
0.330867351178
0.304168921758
0.281357378384
0.269399213925
0.266664358899
0.269459715124
0.271056450534
0.275594808932
0.322815170757
0.391645885099
0.391077295078
0.391802646395
0.253895019756
0.450174458786
0.526964951977
0.563571498683
0.534736073656
0.447396077217
0.380352178412
0.342039657009
0.313242729072
0.287718037695
0.269236847443
0.261029873387
0.259744950162
0.263912959826
0.265264813973
0.267526764101
0.312715808574
0.390246465131
0.392760005539
0.391077295078
0.299984053296
0.53968362566
0.662357621289
0.642227631376
0.603230331986
0.515164442535
0.415836893924
0.349185612835
0.311048434458
0.28331117169
0.2631121931
0.254809586408
0.25402642298
0.258233801719
0.260000915701
0.259423140015
0.295889025647
0.381228137402
0.391077295078
0.392177497404
0.33750002335
0.690601781983
0.731093453864
0.705715547524
0.680334311211
0.636077276884
0.543524915253
0.418932763808
0.334715845443
0.289933313663
0.263080397016
0.252215565227
0.251824614404
0.253174272827
0.254636708839
0.252883237486
0.276177446005
0.367266361869
0.392752671198
0.391077295078
0.373096452524
0.756619433841
0.754023729727
0.742302254963
0.732083038758
0.718021233128
0.675098488217
0.553498043587
0.407599792926
0.319270015373
0.270177134388
0.251363045863
0.251083349711
0.251707555663
0.252002205715
0.251307821384
0.259886468067
0.354267726262
0.391077295078
0.39245269425
0.391077295078
0.773217588398
0.76401150717
0.758106762875
0.754509723513
0.74870817967
0.727838485733
0.65406073607
0.497856598456
0.367451668913
0.287662694352
0.250871336206
0.250733314983
0.251179765392
0.251483227371
0.251110676155
0.252638889166
0.342787481334
0.392717682398
0.391077295078
0.391762858046
0.782101667429
0.770741205179
0.76646895774
0.764600749692
0.761029548859
0.746292497053
0.696352455493
0.567868046069
0.418629215549
0.311543611863
0.250953321818
0.250518177322
0.250740457049
0.251133356709
0.25085990816
0.25112310547
0.334839824927
0.391077295078
0.392568441392
0.391077295078
0.791047169178
0.776796308508
0.772485964108
0.771004444968
0.768513026333
0.756353007147
0.714991879976
0.609659187371
0.462337997886
0.336604616274
0.25714005298
0.250450488265
0.250491511493
0.250751617558
0.250707072002
0.25085990816
0.332379847317
0.392712271671
0.391077295078
0.391953669858
0.802765913862
0.782896465477
0.777553950312
0.776187655388
0.774352036741
0.763286484896
0.724396186298
0.631831440538
0.492706326572
0.358286632117
0.266208211456
0.250255660057
0.250450488265
0.250477028664
0.250659572081
0.25062394395
0.33899767501
0.391077295078
0.39282888391
0.391077295078
0.822466878202
0.788439606415
0.781864169166
0.780489785701
0.778757496794
0.766985527496
0.727862646781
0.640379080923
0.507807727549
0.370817535881
0.271236247217
0.250208701175
0.25019631157
0.250450488265
0.250333272959
0.250659572081
0.353468503178
0.392922728656
0.391077295078
0.392607951273
0.839844738225
0.791642740199
0.785154584755
0.783469011466
0.781058781478
0.767682975473
0.727056399016
0.639951806222
0.509551477664
0.372342292028
0.271334946658
0.25002702124
0.250208701175
0.250137229156
0.250450488265
0.255822981422
0.367502636981
0.391077295078
0.39309676417
0.391077295078
0.843503475878
0.792153828732
0.786874487578
0.784762287013
0.781204919784
0.765316627461
0.719695721158
0.629879035906
0.500847756589
0.364025797315
0.266533451836
0.24995182906
0.249910040444
0.250208701175
0.249989203964
0.262290987227
0.37107403503
0.392998675008
0.391077295078
0.393040096601
0.841664439583
0.791617787483
0.786693300953
0.783984236275
0.778258517103
0.755232617832
0.699991098158
0.603091969533
0.473246786563
0.339015798145
0.257508205337
0.249725271224
0.24995182906
0.249811362727
0.250208701175
0.262836479761
0.370558555721
0.391077295078
0.393225379512
0.391077295078
0.844356097065
0.788499698325
0.782765531942
0.777852010527
0.766436185801
0.733041291954
0.666197159101
0.560766504017
0.429106610365
0.303412062132
0.250790498228
0.249641019438
0.249597623936
0.24995182906
0.249725396605
0.262599732408
0.367175317204
0.392986680986
0.391077295078
0.39323655485
0.842912100196
0.780682647969
0.768100425275
0.758657091391
0.739319590846
0.695471397913
0.617337725962
0.504585812331
0.373614828322
0.270242581998
0.249410117483
0.249297751007
0.249641019438
0.249552213982
0.24995182906
0.260786162582
0.363279094525
0.391077295078
0.393302461577
0.391077295078
0.844599043921
0.761168665603
0.734934466233
0.718962293058
0.691566507243
0.637971837681
0.550418417315
0.433548827396
0.31236453811
0.251888461365
0.249142061547
0.249410117483
0.249129839941
0.249641019438
0.249590639839
0.258402702869
0.357064720016
0.393022246988
0.391077295078
0.393318972109
0.841548795711
0.70330246263
0.678554951968
0.653891206971
0.618191226351
0.555258624677
0.46154583742
0.349119779375
0.263050205265
0.249196706478
0.24921097393
0.248791044744
0.249410117483
0.249147075703
0.249641019438
0.25711879226
0.354969167878
0.391077295078
0.393464767041
0.391077295078
0.844786535229
0.630128472017
0.598599926936
0.558983807805
0.513308263746
0.44418448903
0.3539600367
0.272225670102
0.249253924595
0.24921097393
0.248567283379
0.24921097393
0.248696292268
0.249410117483
0.249362556947
0.258257874433
0.35416168969
0.393173353134
0.391077295078
0.393490351033
0.840969817154
0.569245607798
0.496479858799
0.433369210248
0.380839238548
0.318630280628
0.264237055674
0.249140038812
0.24921097393
0.248507932308
0.248923184191
0.248334085269
0.24921097393
0.248898771853
0.24952496502
0.260238618502
0.35280297098
0.391077295078
0.393733677883
0.391077295078
0.842735521364
0.511057836246
0.381694699617
0.300072523113
0.267807208504
0.250760337207
0.248961852161
0.249014833484
0.248199630994
0.248923184191
0.247727286577
0.248923184191
0.248498783407
0.24921097393
0.249685433722
0.262403147128
0.345022629028
0.39293798904
0.391077295078
0.393807402632
0.839712414024
0.424028647351
0.282310370802
0.249318453118
0.249323576369
0.248281007985
0.249014833484
0.247158466557
0.248923184191
0.24705400686
0.248619777309
0.247801036542
0.248923184191
0.248879700984
0.251247351634
0.264003555323
0.333535198346
0.391077295078
0.393696508796
0.391077295078
0.778613904099
0.302677579928
0.249407813924
0.249323576369
0.247486702547
0.249014833484
0.246026268935
0.248923184191
0.245809594049
0.248619777309
0.246737634985
0.248619777309
0.248238706384
0.251095922591
0.253138442152
0.263313636228
0.319633014584
0.391879353427
0.391077295078
0.393933532009
0.639332890581
0.248776351087
0.249323576369
0.246837165799
0.249014833484
0.245002723376
0.248710005915
0.244929726737
0.248619777309
0.245775209055
0.248337548853
0.247415080866
0.251663692645
0.25351274357
0.252939882601
0.258591598854
0.304439941531
0.381294446073
0.392715952609
0.391077295078
0.48348829154
0.252273506998
0.250309794059
0.249014833484
0.245134983222
0.248710005915
0.244929594332
0.24849105191
0.245335331415
0.248337548853
0.246815560666
0.250889440214
0.25351274357
0.253528960462
0.250511152981
0.250372667348
0.284610916572
0.36044950801
0.391077295078
0.393519057057
0.470478298577
0.379911451757
0.367196396107
0.317953375744
0.273771680864
0.249938497333
0.24849105191
0.245875011138
0.248337548853
0.247167282442
0.248154901098
0.253034601945
0.253117371868
0.250512009001
0.246484837394
0.244656904299
0.260966518387
0.330010582764
0.390838717063
0.391077295078
0.569333085541
0.62702202651
0.604534505151
0.550767191481
0.477178985866
0.421669746769
0.359326846013
0.298904142382
0.258474576502
0.248154901098
0.248003032878
0.248514966065
0.247641716433
0.245986696706
0.24418342114
0.242758246417
0.244918054718
0.287810378831
0.370355826849
0.392488506905
0.727592102872
0.764672730509
0.75382565375
0.737054979575
0.711496391187
0.683109533055
0.642665062339
0.554774543425
0.403366074018
0.283594702961
0.248285412626
0.242236810218
0.241873058569
0.24271860249
0.243016435277
0.242284024543
0.241812628118
0.252783082498
0.328998304843
0.391077295078
0.797600052219
0.799551611157
0.793862891922
0.792495698485
0.790315294484
0.786539661185
0.778770853865
0.752610971146
0.649214469677
0.424281135004
0.27619082794
0.242278293515
0.240543388381
0.240850580127
0.241888045356
0.242226405917
0.241748839757
0.24222312529
0.283399930368
0.391411453834
0.831990534392
0.812843350201
0.805134109272
0.806344540874
0.807318412826
0.807549432143
0.806440779516
0.798398387985
0.757453578266
0.596342952783
0.361740234842
0.25250598411
0.240288316002
0.240287791618
0.240858910663
0.24192671215
0.241696538568
0.241690394129
0.252684615321
0.361626089717
0.880498393812
0.821265671708
0.810441691424
0.812224285243
0.814054351412
0.815008768157
0.814673631229
0.808087834038
0.775934354233
0.675600094161
0.468708229431
0.289158736969
0.240163115795
0.240064269382
0.240441979317
0.241126113796
0.241643916964
0.241635181877
0.242668494307
0.302675475327
0.895763938364
0.825824556775
0.813610166038
0.815264884497
0.818260401697
0.819786848372
0.819426427763
0.811578873674
0.778724473217
0.692494572519
0.529171122275
0.343009352436
0.242669858855
0.239931121853
0.240108691933
0.240621461709
0.241255373589
0.241581428734
0.241635838468
0.262061888333
0.897682852169
0.829905017502
0.816295698374
0.817361887263
0.821644455618
0.823768732623
0.822773753941
0.812528383946
0.777397887305
0.692292682652
0.544497044853
0.375070869731
0.254787038418
0.239846231994
0.239833259339
0.240337031358
0.240832544247
0.241453811196
0.241671631469
0.247871629991
0.89587963939
0.835551130213
0.819617598496
0.819858775821
0.825140875503
0.827859590097
0.825288329797
1e-15
1e-15
1.01884791815e-15
1.02061662614e-15
1.01926440567e-15
1.02183493175e-15
1.03813713599e-15
1.03971319389e-15
1.03983439423e-15
1.01438529839e-15
1.00540272914e-15
1.00519099003e-15
1.00578759313e-15
1.00707970428e-15
1.0095411703e-15
1.00577812052e-15
1.47768728144e-15
0.00202912952599
2.13877607169e-06
1e-15
1e-15
1e-15
1.00971645747e-15
1.01533998456e-15
1.01442669782e-15
1.0166467255e-15
1.03124614771e-15
1.03987066544e-15
1.0340313303e-15
1.00745175126e-15
1.00381988969e-15
1.00382383803e-15
1.0043667061e-15
1.00549651816e-15
1.00714633888e-15
1.00564592479e-15
1.64616377372e-15
0.00394362719798
7.43030435662e-06
1e-15
1e-15
1e-15
1.00688219875e-15
1.01093146113e-15
1.0102629797e-15
1.01178025246e-15
1.02397853141e-15
1.03519826754e-15
1.02238373321e-15
1.00380211915e-15
1.00229526851e-15
1.00230519686e-15
1.00278594593e-15
1.00380473544e-15
1.00510649607e-15
1.04814037874e-15
3.12999803373e-15
0.00772094740262
2.78854184725e-05
1e-15
1e-15
1e-15
1.00439834414e-15
1.00729948362e-15
1.00684350758e-15
1.00769207411e-15
1.0167865095e-15
1.02443323346e-15
1.00930435582e-15
1.00154153761e-15
1.00094399158e-15
1.00094583959e-15
1.00125239655e-15
1.00202000975e-15
1.00329986788e-15
1.31128991753e-15
1.03044121008e-14
0.0156545410234
0.000116349750093
5.90772524766e-08
1e-15
1e-15
1e-15
1.00402260324e-15
1.00378480014e-15
1.0042036263e-15
1.00980624093e-15
1.01441245624e-15
1.00203871143e-15
1.00035233517e-15
1.00010048132e-15
1.00010188292e-15
1.0002346381e-15
1.00067734198e-15
1.00184442241e-15
1.82624613701e-15
1.79900600271e-14
0.0319832826616
0.000521545255708
1.05240888112e-06
1e-15
1e-15
1e-15
1.00155734166e-15
1.00137142162e-15
1.00151654544e-15
1.00423978729e-15
1.00682340035e-15
1.00021059018e-15
1e-15
1e-15
1e-15
1e-15
1e-15
1.00088816065e-15
2.3167790496e-15
1.86291558995e-14
0.0629125662177
0.00224289366427
1.21535989441e-05
3.15379819838e-10
1e-15
1e-15
1.00014228175e-15
1.00007856426e-15
1.00010327277e-15
1.00035780634e-15
1.00076332635e-15
1e-15
1e-15
1e-15
1e-15
1e-15
1e-15
1.00058036845e-15
2.671401785e-15
1.86437134389e-14
0.109940719179
0.00830426125
9.71177879376e-05
3.80391987379e-08
1e-15
1e-15
1e-15
1e-15
1e-15
1e-15
1e-15
1e-15
1e-15
1e-15
1e-15
1e-15
1e-15
1.00892447489e-15
2.99907807768e-15
1.86304750776e-14
0.166200783185
0.0241011518448
0.000577823086518
1.09152859643e-06
1e-15
1e-15
1e-15
1e-15
1e-15
1e-15
1e-15
1e-15
1e-15
1e-15
1e-15
1e-15
1e-15
1.04862327494e-15
3.43431425697e-15
1.86409829726e-14
0.220880721573
0.0532063442417
0.00260391326256
1.49817745865e-05
1.02680126467e-15
1e-15
1e-15
1e-15
1e-15
1e-15
1e-15
1e-15
1e-15
1e-15
1e-15
1e-15
1e-15
1.16400195195e-15
4.14078675119e-15
1.86330455152e-14
0.267004358193
0.0919348917964
0.00888404646143
0.000121780911482
7.104506115e-09
1e-15
1e-15
1e-15
1e-15
1e-15
1e-15
1e-15
1e-15
1e-15
1e-15
1e-15
1e-15
1.46884063963e-15
5.34836814556e-15
1.8635630218e-14
0.301993134204
0.134504821073
0.0223785619481
0.000695883473454
9.13018645582e-07
1.17438336794e-15
1.11293370503e-15
1.00066568838e-15
1e-15
1e-15
1e-15
1e-15
1e-15
1e-15
1e-15
1e-15
1.05731688582e-15
2.19174020464e-15
7.31259501808e-15
1.86364061747e-14
0.33017105165
0.179198728815
0.0452959043834
0.00297061458568
1.97549604106e-05
2.30482802622e-15
2.33439437482e-15
1.13412130354e-15
1.01316282937e-15
1.00911813487e-15
1e-15
1e-15
1e-15
1e-15
1e-15
1e-15
1.36351347194e-15
3.63200962389e-15
1.00737789199e-14
1.86381300317e-14
0.366222166116
0.233898951501
0.0828151494479
0.0103139859714
0.000222487956995
1.17522971813e-08
4.31761155684e-15
2.11503202246e-15
1.20109399064e-15
1.03097916945e-15
1.01351832409e-15
1e-15
1e-15
1e-15
1e-15
1.0955100896e-15
2.06910038027e-15
5.92965742497e-15
1.30839053412e-14
1.86496204778e-14
0.391580535344
0.299355143501
0.145225311233
0.0322586693866
0.0018797356418
9.82735777915e-06
3.81447364745e-14
7.08159624553e-14
4.47261923673e-15
1.26565534345e-15
1.03452371763e-15
1.01353937807e-15
1e-15
1e-15
1.03694121457e-15
1.4236991428e-15
3.35868304967e-15
8.78867316289e-15
1.53828415638e-14
1.86488854788e-14
0.391077295078
0.371596856085
0.241858529185
0.0874724988274
0.0114994073597
0.000262426776847
6.21446888212e-10
9.38560326115e-14
4.01739676493e-14
4.48063895193e-15
1.15387736503e-15
1.04883278084e-15
1.03328712758e-15
1.04737599305e-15
1.21747162728e-15
2.07825204128e-15
5.27985409075e-15
1.15977153252e-14
1.6602596455e-14
1.86477328475e-14
0.392393732564
0.391077295078
0.3383481266
0.190851548774
0.0493876012873
0.00305828669571
1.3072692346e-05
8.99532537329e-14
1.27032568012e-13
3.25513282168e-14
4.38340581779e-15
1.15237477893e-15
1.11219974976e-15
1.19361617276e-15
1.59366046722e-15
3.17111237289e-15
7.59516830589e-15
1.3903080386e-14
1.72301981804e-14
1.87170750892e-14
0.391077295078
0.39212001067
0.391077295078
0.297295574054
0.126673149194
0.0167279468346
0.000273245342705
8.95778727057e-14
5.04298177212e-13
2.83273231378e-13
7.21249002345e-14
4.10458897112e-15
1.26615572848e-15
1.47409936243e-15
2.27202145848e-15
4.71773385715e-15
9.92665343771e-15
1.54724932012e-14
1.76954946769e-14
1.87178408592e-14
0.392946342776
0.391077295078
0.391813127654
0.355434730934
0.211685728612
0.0504815276339
0.00208359150284
2.73038959897e-06
5.07228328439e-13
1.98181338062e-12
8.34806784632e-13
6.83455631405e-14
1.91997229292e-15
2.00694485296e-15
3.3450256179e-15
6.66927876461e-15
1.20835172092e-14
1.63072380326e-14
1.81160178909e-14
1.87537220406e-14
0.391077295078
0.392700249847
0.391077295078
0.391469455924
0.289619890111
0.101257897006
0.00766335558916
4.07303796294e-05
5.10158479661e-13
1.24699784209e-11
5.58436817865e-12
4.21084638999e-13
3.74709351038e-15
2.95208123369e-15
4.92584466002e-15
8.93844601739e-15
1.38407702892e-14
1.66476566172e-14
1.85513948401e-14
1.87222509959e-14
0.393117682163
0.391077295078
0.39233862174
0.391077295078
0.331672554799
0.149267704035
0.017063612299
0.000175259217954
5.13088630898e-13
4.01652639449e-11
2.24933417166e-11
2.25806798162e-12
1.6073417654e-14
4.51033191526e-15
7.12415330447e-15
1.14417432033e-14
1.49510760064e-14
1.67373310377e-14
1.87222509959e-14
1.87845883142e-14
0.391077295078
0.39278323678
0.391077295078
0.391672618234
0.336068484477
0.158805352991
0.0209686672986
0.000272525301474
5.16008577961e-13
5.51500582785e-11
4.1912557179e-11
7.41106725529e-12
1.24123777172e-13
7.1701511219e-15
9.96764194859e-15
1.36533015721e-14
1.53908461984e-14
1.67126220104e-14
1.87401639831e-14
1.87273889548e-14
0.393117393418
0.391077295078
0.392219351471
0.391077295078
0.330456160699
0.150577502992
0.0189732303936
0.000224798912407
5.18928525047e-13
6.35531874537e-11
6.01424875155e-11
1.74250476063e-11
6.5573868019e-13
1.10552908345e-14
1.28165546545e-14
1.46849333346e-14
1.54128484711e-14
1.65550437523e-14
1.87273889548e-14
1.88127358177e-14
0.391077295078
0.39261318025
0.391077295078
0.391488151503
0.312734255029
0.127996167504
0.0137229570324
0.000119606878625
5.21848472093e-13
9.13600624376e-11
9.50787655409e-11
3.14026736999e-11
1.16833824316e-12
1.34219739856e-14
1.415953031e-14
1.4797450104e-14
1.52717779997e-14
1.62946834059e-14
1.85924888556e-14
1.87316723868e-14
0.393155914521
0.391077295078
0.391837116072
0.391077295078
0.281021179941
0.096666593022
0.00810150558966
4.60210077806e-05
5.24764375403e-13
1.80470710394e-10
1.58734584493e-10
3.41544487538e-11
7.60225947215e-13
1.33475903046e-14
1.42367393788e-14
1.46721699329e-14
1.49629758387e-14
1.59468453174e-14
1.81168256926e-14
1.88257831202e-14
0.391077295078
0.392402896796
0.391077295078
0.383971181342
0.234759130771
0.0656094243639
0.00424108818661
1.60226595409e-05
5.27680278764e-13
2.48038966742e-10
1.6656212273e-10
2.45299212777e-11
2.57631638514e-13
1.33307054265e-14
1.41426141872e-14
1.43286731785e-14
1.45371428791e-14
1.54994304232e-14
1.72969443655e-14
1.87277224862e-14
0.393381481044
0.391077295078
0.39133045472
0.348664310602
0.177020096926
0.0394540220244
0.00194276516225
5.14449344488e-06
5.30596182099e-13
2.49430864362e-10
1.33043331161e-10
9.94682674429e-12
3.48926692944e-14
1.32146062588e-14
1.38040315958e-14
1.38291623741e-14
1.40560186499e-14
1.49412572897e-14
1.5985327187e-14
1.88197929924e-14
0.391077295078
0.39238557078
0.391077295078
0.29433975714
0.123942271249
0.0220662268171
0.000855540952662
1.97458920623e-06
5.33512627273e-13
2.37431713982e-10
7.11427723938e-11
1.60180146102e-12
1.1952271951e-14
1.27858299706e-14
1.32728338602e-14
1.32561371282e-14
1.36895424386e-14
1.45738948779e-14
1.42717470073e-14
1.87222509959e-14
0.393673496136
0.391077295078
0.390611460867
0.259117000935
0.0992266088249
0.015843579416
0.000558978913985
1.54164814917e-06
5.36429072515e-13
1.78473238234e-10
2.24922318025e-11
8.66570277976e-14
1.1951032357e-14
1.24344649806e-14
1.26079166125e-14
1.26496324136e-14
1.3305532254e-14
1.42439664968e-14
1.25233290693e-14
1.87991510578e-14
0.391077295078
0.392783747787
0.391077295078
0.255672701818
0.0987176787463
0.0160658470079
0.000615253609586
3.41371581925e-06
1.31518750876e-09
7.80623955526e-11
3.04139816047e-12
3.54355220236e-14
1.31888977524e-14
1.23145210947e-14
1.20671007555e-14
1.21149509371e-14
1.25482752571e-14
1.31934703116e-14
1.1014975619e-14
1.87178408592e-14
0.393702175127
0.391077295078
0.391680829739
0.265605110416
0.113871648659
0.0232950264297
0.00153545981029
3.82440056156e-05
4.06935900561e-07
1.28154494673e-10
2.80837378529e-12
1.81309483476e-13
2.85551201996e-14
1.31915794685e-14
1.18794681822e-14
1.16487481862e-14
1.14846742608e-14
1.13907790986e-14
1.03146724008e-14
1.87698373657e-14
0.391077295078
0.393218856122
0.391077295078
0.297789827614
0.161464013928
0.0530671568333
0.0084614817553
0.00070467761802
3.2972157719e-05
2.45322939858e-07
9.29519087777e-12
1.71696494944e-12
2.22971835971e-13
3.13719173407e-14
1.25117495286e-14
1.13036370463e-14
1.08045142131e-14
1.03342265655e-14
1.02076582996e-14
1.87124597817e-14
0.393368121884
0.391077295078
0.392390904986
0.35739233229
0.241504617927
0.127719113332
0.0482062349472
0.0113261392277
0.00147900078164
6.14816357361e-05
2.49413441122e-08
1.77656398545e-11
3.64997331707e-12
4.07314347744e-13
3.36761445738e-14
1.13259984521e-14
1.04685960154e-14
1.00956606369e-14
1.01542663505e-14
1.87344738698e-14
0.391077295078
0.393303323549
0.391077295078
0.391606275514
0.314787446731
0.219084535516
0.140403403455
0.0783798800643
0.0310905040143
0.00448985427054
3.54122943802e-05
6.99199937418e-10
6.85032628866e-11
1.02689650672e-11
6.8961509546e-13
2.14421589967e-14
1.02724278713e-14
1.00883296451e-14
1.01018038567e-14
1.8708829392e-14
0.392512634055
0.391077295078
0.392803509433
0.391077295078
0.351919873391
0.26057846488
0.194277179881
0.177775121438
0.162214406281
0.0829464847573
0.00366947979571
7.31388935816e-08
1.79645651933e-09
3.92335310129e-10
3.75059597068e-11
1.21610805102e-12
1.2571522954e-14
1.0082039701e-14
1.0075749757e-14
1.68844372389e-14
0.391077295078
0.392857942154
0.391077295078
0.39184525687
0.365987902269
0.27235503373
0.190955148568
0.225070272645
0.371094010971
0.295591820384
0.0496741808627
5.38446091262e-05
1.03531798722e-07
1.502083215e-08
3.09214802006e-09
2.39208754759e-10
4.29856726661e-12
1.39158270579e-14
9.74809515791e-15
1.17538484334e-14
0.371172187392
0.391077295078
0.392488122369
0.391077295078
0.369114455362
0.272596922707
0.189870764704
0.278604933299
0.586991714518
0.472033230912
0.14745516506
0.00355016957642
5.33127481179e-06
4.51370940969e-07
1.41445259246e-07
2.32104745696e-08
1.37603505628e-09
1.09496151749e-11
8.96417849187e-15
8.51541030761e-15
0.320502041813
0.391747759239
0.391077295078
0.391659416083
0.366871217673
0.263065081788
0.189783851434
0.384518362137
0.60939185266
0.534327350444
0.253062990226
0.0318071337657
0.000450499437229
8.66730483738e-06
2.40849242961e-06
7.62961973397e-07
1.10610582089e-07
3.37691901099e-09
2.76658672468e-12
8.49836988588e-15
)
;

boundaryField
{
    emptyPatch
    {
        type            empty;
    }
    minY
    {
        type            fixedValue;
        value           nonuniform List<scalar> 0();
    }
    maxY
    {
        type            inletOutlet;
        phi             phi.gas;
        inletValue      nonuniform List<scalar> 0();
        value           nonuniform List<scalar> 0();
    }
    water_to_cooler
    {
        type            zeroGradient;
    }
    water_to_heater
    {
        type            zeroGradient;
    }
    procBoundary3to1
    {
        type            processor;
        value           nonuniform List<scalar> 
41
(
0.811856479715
0.769882051889
0.682456406784
0.541581946392
0.379726003145
0.262423595109
0.239829128776
0.239754116256
0.240074829708
0.240631843849
0.241020951696
0.242484220325
0.245705761718
0.897700427445
0.84190339972
0.824195667984
0.82341281472
0.829057666856
0.831896499325
0.811856479715
0.827194360368
0.279570007069
0.373586312943
0.391756376678
0.391077295078
0.357535008659
0.238255209234
0.212794392047
0.481113438369
0.607657911681
0.54302970777
0.30120590911
0.0727064173434
0.00421026039268
5.16606817448e-05
1.54246536019e-05
8.24055534744e-06
2.49206228487e-06
2.05088525574e-07
1.07803489257e-09
8.49818814627e-15
)
;
    }
    procBoundary3to2
    {
        type            processor;
        value           nonuniform List<scalar> 
41
(
0.668293689548
0.533192927688
0.490685760618
0.435756153531
0.37149731165
0.313428045983
0.30160714999
0.301805162495
0.300550544589
0.301592630547
0.300329414277
0.301413899185
0.308511082799
0.358526073835
0.359334717616
0.358919821096
0.352460844425
0.279260386818
0.139794721371
0.0278127890968
1e-15
1.00982192076e-15
1.02625506667e-15
1.0251657154e-15
1.02357610923e-15
1.02690401847e-15
1.03971319389e-15
1.04042569524e-15
1.03971319389e-15
1.02320199863e-15
1.00747130432e-15
1.00644270083e-15
1.00710581319e-15
1.00878452944e-15
1.01230329317e-15
1.00771979789e-15
1.45257869258e-15
0.000954858508562
4.20634528835e-07
1e-15
1e-15
)
;
    }
}


// ************************************************************************* //
