/*--------------------------------*- C++ -*----------------------------------*\
| =========                 |                                                 |
| \\      /  F ield         | OpenFOAM: The Open Source CFD Toolbox           |
|  \\    /   O peration     | Version:  2312                                  |
|   \\  /    A nd           | Website:  www.openfoam.com                      |
|    \\/     M anipulation  |                                                 |
\*---------------------------------------------------------------------------*/
FoamFile
{
    version     2.0;
    format      ascii;
    arch        "LSB;label=32;scalar=64";
    class       volScalarField;
    location    "0.355/water";
    object      Tf.gasAndLiquid;
}
// * * * * * * * * * * * * * * * * * * * * * * * * * * * * * * * * * * * * * //

dimensions      [0 0 0 1 0 0 0];

internalField   nonuniform List<scalar> 
1496
(
312.544198567
305.912339922
302.639266509
301.332719887
300.872462291
300.669660912
300.548530261
300.458488745
300.382661712
300.316226724
300.257714009
300.205710544
300.159237927
300.118082433
300.082870646
300.05398178
300.032422096
300.018553666
300.010370786
300.005438
314.93901569
305.688633819
301.976098887
301.071877362
300.793086026
300.648417615
300.54337936
300.458192006
300.385847276
300.322355162
300.265839195
300.215313134
300.169856024
300.129219461
300.093770133
300.063131586
300.038318423
300.021970603
300.012355567
300.006463996
324.406722264
306.757566909
302.190752404
301.150975563
300.847171554
300.684890458
300.568207441
300.477010524
300.403577185
300.34035363
300.283282476
300.231611754
300.184770598
300.142202011
300.104666302
300.072581535
300.045361137
300.026535266
300.015182602
300.008031004
334.397122769
309.038162165
302.839641934
301.410221344
300.997071997
300.764477114
300.61317213
300.508908722
300.429000963
300.363276166
300.305329065
300.25227615
300.203198806
300.15789648
300.116945973
300.082288901
300.053455398
300.032453067
300.019050439
300.010302372
338.966953401
311.792263802
303.966347849
301.773506443
301.180389717
300.891002941
300.682128825
300.550479326
300.459353
300.38704285
300.326078324
300.271863218
300.221795198
300.174340241
300.130460611
300.092847144
300.062402673
300.039692843
300.02408098
300.013382859
341.511154329
314.291614044
305.30278981
302.338376217
301.413586034
301.042035792
300.78691824
300.609752522
300.497124311
300.414661399
300.346381283
300.288388238
300.237192511
300.189688759
300.144406746
300.104431901
300.072166291
300.047880491
300.030169362
300.017284007
343.456327385
316.349579025
306.652118494
303.021698253
301.715789933
301.199571952
300.912007257
300.697566953
300.549114153
300.448806468
300.371464787
300.305741337
300.250579764
300.202690681
300.157934426
300.116826799
300.082823478
300.056742741
300.036983166
300.021872695
345.174616492
317.927416088
307.821275389
303.704878836
302.056594655
301.36921634
301.024790645
300.794948999
300.621270274
300.493538587
300.401497636
300.32797047
300.265596094
300.214433593
300.170078506
300.129230825
300.094056823
300.066176913
300.044259956
300.026924539
346.824780093
319.021022963
308.683357182
304.272307857
302.376482553
301.537448599
301.12317475
300.873935393
300.691435498
300.549906524
300.437675462
300.353410625
300.2844971
300.227567493
300.181268388
300.140972147
300.105399024
300.075848895
300.051846588
300.032257389
348.260772957
319.670477477
309.183476495
304.642637915
302.616167452
301.6780276
301.206043798
300.931490846
300.742461206
300.596236211
300.479585637
300.382045806
300.304900309
300.242892551
300.193103936
300.152001446
300.116293285
300.085574423
300.05953918
300.03770122
349.479289526
319.933236812
309.329105691
304.779208833
302.731899703
301.760296834
301.260519804
300.969485954
300.773455062
300.625539029
300.506501662
300.406844021
300.324583346
300.258167553
300.205448197
300.162834844
300.126687709
300.095044425
300.067160462
300.043180331
350.346083814
319.918232108
309.19705872
304.704962314
302.716501145
301.769770434
301.275857011
300.984892966
300.788064371
300.640146495
300.52184493
300.423301083
300.33908145
300.27031536
300.216180902
300.172927346
300.136356058
300.103810269
300.074395716
300.048498242
350.98193253
319.724551448
308.874193844
304.473097263
302.592096019
301.711610361
301.251092963
300.97659717
300.788022266
300.644004001
300.527908664
300.431190315
300.347706507
300.278647051
300.224127347
300.1809125
300.144435527
300.111407329
300.080838635
300.053412709
351.30707602
319.374763381
308.400154657
304.124824837
302.385376201
301.598901218
301.191149757
300.94552838
300.773345761
300.638295429
300.52659651
300.43192632
300.350999783
300.283439223
300.229620561
300.186832089
300.150688612
300.117566493
300.086251628
300.057725783
351.345746549
318.837049712
307.846072925
303.714996111
302.135724747
301.456597123
301.110445539
300.899446139
300.747853398
300.625339684
300.520606912
300.429771226
300.35152518
300.285932214
300.233367225
300.191249951
300.155458041
300.12236374
300.090619242
300.061388088
350.920581446
318.208387853
307.300125815
303.331287104
301.89758608
301.317227378
301.028244989
300.849614315
300.717868801
300.608428109
300.512255989
300.427026053
300.351477755
300.287737328
300.236337409
300.194817173
300.159248342
300.126126096
300.094133818
300.064516524
350.420787502
317.605298684
306.804697852
303.006994472
301.70240825
301.202912766
300.959642719
300.806764863
300.690859003
300.592482413
300.505146212
300.424675481
300.351915898
300.28989654
300.239399622
300.198182564
300.16256029
300.129242291
300.097095766
300.067332264
350.109489427
317.142346892
306.417766698
302.772295231
301.567731527
301.122529874
300.909696675
300.774490965
300.670206758
300.581202245
300.49997906
300.423400818
300.353388502
300.292970013
300.243079247
300.201782529
300.165747353
300.132055167
300.099858893
300.070120479
350.073002066
316.733986257
306.154003941
302.642304165
301.493021697
301.074622283
300.877770282
300.75285978
300.65611689
300.573495446
300.49655248
300.423536076
300.356134615
300.297159925
300.247530031
300.205692971
300.168912138
300.134918865
300.102838492
300.073218659
350.147284412
316.410136246
305.987892564
302.568020873
301.451018377
301.046901311
300.858834793
300.740026245
300.648250234
300.568836633
300.495076241
300.425035874
300.360020569
300.302224336
300.252382492
300.209609742
300.172216142
300.138308404
300.106481091
300.076937802
350.369115585
316.029678566
305.789016171
302.471822051
301.401085819
301.020249512
300.844069763
300.73173983
300.644161265
300.566864366
300.49519741
300.427496265
300.364479631
300.307310745
300.256817491
300.213492539
300.176182451
300.14263991
300.11106235
300.081403805
350.108736167
315.512965154
305.503403624
302.330900426
301.333493352
300.989828684
300.831148105
300.727391509
300.642842907
300.566651725
300.496146876
300.430129758
300.368385362
300.311155806
300.260579716
300.217760775
300.1811086
300.147993068
300.116496475
300.086480414
347.246755583
314.400885449
305.062682752
302.173215018
301.275299968
300.968935595
300.825705683
300.72751242
300.643032015
300.566858944
300.496876101
300.431830154
300.370312831
300.313339574
300.263956745
300.222516667
300.186837078
300.154070524
300.122408563
300.091816227
338.482785195
311.822422483
304.35572853
302.040607595
301.267925897
300.980261057
300.834174529
300.729364266
300.64255638
300.565803451
300.496097321
300.431121227
300.369564108
300.314163542
300.267085061
300.227585691
300.19295538
300.160349879
300.128268281
300.096923962
329.008758638
310.372396612
304.189321049
302.103487111
301.341912005
301.020340804
300.844948046
300.728703054
300.638652727
300.56165639
300.492036187
300.426632776
300.366446426
300.314040245
300.270045862
300.232687594
300.198937949
300.166186323
300.133463519
300.101232448
323.558290651
309.834421737
304.310672609
302.227823582
301.40472081
301.038008893
300.843001654
300.720209665
300.62934367
300.552828963
300.482986675
300.418761208
300.361927648
300.313533733
300.272882654
300.237453192
300.204149119
300.170904402
300.137355516
300.104071452
320.576733375
309.000076854
304.101233127
302.165740093
301.372308534
301.011902871
300.821157722
300.702218718
300.613943978
300.538249965
300.470044511
300.409528535
300.357333039
300.313153722
300.275472839
300.241344959
300.208011253
300.173981014
300.139329623
300.104688273
318.481710149
308.120887901
303.72113939
301.984018383
301.274887886
300.956222124
300.78706964
300.678228128
300.59384242
300.521082132
300.457029797
300.401460512
300.353902617
300.313170017
300.277472656
300.244090631
300.210251791
300.175015175
300.138843788
300.102753419
316.643340671
307.277713606
303.346146268
301.794775475
301.174864564
300.902303981
300.755680091
300.656106622
300.576375531
300.507751648
300.448100598
300.396793058
300.35247307
300.313946861
300.279116653
300.245605761
300.210802864
300.173892755
300.136107361
300.098996458
315.336984913
306.809164592
303.156343831
301.70533071
301.131193148
300.88206627
300.745364975
300.649041017
300.570731083
300.503791415
300.446385721
300.397188
300.354275768
300.316015067
300.280512114
300.245569406
300.209343625
300.171231577
300.132525522
300.095125151
315.492001221
307.453352409
303.652995183
301.9764926
301.269734283
300.953478162
300.782342706
300.668608514
300.581958944
300.512128372
300.453825143
300.403998722
300.359924424
300.319806328
300.282125492
300.245258398
300.207589153
300.16854983
300.129497663
300.092589542
319.448023217
310.34129912
305.297672906
302.801523379
301.679545002
301.154786802
300.880492991
300.71957582
300.612353464
300.53516698
300.471901318
300.417783452
300.369265294
300.325097825
300.284422442
300.24569999
300.207087436
300.167654997
300.128678986
300.092568266
331.209634696
313.855479777
306.5336915
303.339315273
301.95636755
301.309577238
300.973947913
300.782681071
300.65946549
300.570526551
300.497077624
300.434667135
300.379703762
300.330881894
300.28737133
300.247296539
300.208257287
300.16890756
300.13052539
300.095414988
343.424788743
315.347206106
306.407278672
303.147363543
301.8679471
301.294515172
300.995282444
300.817643075
300.696382985
300.601016339
300.518746423
300.448651823
300.388097098
300.335784423
300.290542754
300.249951911
300.211087452
300.172225549
300.134763223
300.100764576
346.523975491
314.568000908
305.386287499
302.577840059
301.611004953
301.192929158
300.965229856
300.818560898
300.708817453
300.615148957
300.530403997
300.456942226
300.393453453
300.339608448
300.29399042
300.253716421
300.215515828
300.177482418
300.14103091
300.108235253
344.698182954
312.378733204
304.208246628
302.030090437
301.363515418
301.082211463
300.919303507
300.802890864
300.706592809
300.618453961
300.535246343
300.461194993
300.397067345
300.34320728
300.298080865
300.258605639
300.221377113
300.1844053
300.148885626
300.117320408
342.709267649
311.144898159
303.511746952
301.705814947
301.214643396
301.010070719
300.884770793
300.787910879
300.70098576
300.616684489
300.535856595
300.462955679
300.399917825
300.34702775
300.302760198
300.2641354
300.227959139
300.192247894
300.157590726
300.127374905
300.000219702
300.000095521
300.000034029
300.00001085
300.000007569
300.00001398
300.000022025
300.000040247
300.000084121
300.000211482
300.00008763
300.000043589
300.000028554
300.0000194
300.000014007
300.000011031
300.002652177
300.001382476
300.000831396
300.00046851
300.000229187
300.000095454
300.000034775
300.000012495
300.000008324
300.00001364
300.000022978
300.000038672
300.000070496
300.000144993
300.000053572
300.000024882
300.000013664
300.000009131
300.00000887
300.000009369
300.003130463
300.00164469
300.001007658
300.00057235
300.000282727
300.000122627
300.000048153
300.000017029
300.000007248
300.000009136
300.000016081
300.000027127
300.000043752
300.000071357
300.000031721
300.000016302
300.000008391
300.000004983
300.000006274
300.000008379
300.003907972
300.002070393
300.00130664
300.000775577
300.000403513
300.000187825
300.000079757
300.000029904
300.000009317
300.000004182
300.000007121
300.000012748
300.000020574
300.000028761
300.000019701
300.000013105
300.000007482
300.000004128
300.000004932
300.000008356
300.00508182
300.002700678
300.001734076
300.001111687
300.000623635
300.000315548
300.000147453
300.000061767
300.000021628
300.000005388
300.000001888
300.000003627
300.000006428
300.000009518
300.00001032
300.000010212
300.000008148
300.000006044
300.000006874
300.000008892
300.006745758
300.003589182
300.00228545
300.001541096
300.00096913
300.000538698
300.00027673
300.000132117
300.000055035
300.000017735
300.000003216
300.0000006
300.000001451
300.000002558
300.000003704
300.000005282
300.000006177
300.000006821
300.000007553
300.000007116
300.008951728
300.004773095
300.002981988
300.002017454
300.001345286
300.000842502
300.000479403
300.000255217
300.000124872
300.000050988
300.000014863
300.000001688
300.000000113
300.000000545
300.000001149
300.000001958
300.000002932
300.000004792
300.000005695
300.000005834
300.011666395
300.00624373
300.003818857
300.002545829
300.001710003
300.001115192
300.000697951
300.000408873
300.000223615
300.000108268
300.000041982
300.000010269
300.000000239
300.000000394
300.000000673
300.000001054
300.000001784
300.000003643
300.000004799
300.000005128
300.014762633
300.007962548
300.004762144
300.003104515
300.002060765
300.001341504
300.000849721
300.000523906
300.000308947
300.000165944
300.000075284
300.00002508
300.000003016
300.000000326
300.000000807
300.000001637
300.000002038
300.000003776
300.000004911
300.000004969
300.018111837
300.009868548
300.005786624
300.003672669
300.00238595
300.001524541
300.000950032
300.000581846
300.000344925
300.000191306
300.000093598
300.000036941
300.000006209
300
300.000000036
300.000000385
300.000000794
300.000002996
300.000004483
300.00000512
300.021564182
300.011876721
300.006874371
300.004250039
300.002689721
300.001677857
300.001018974
300.000604819
300.000347264
300.000188998
300.00009249
300.000036373
300.000005233
300
300
300
300.000000045
300.000002282
300.000004585
300.00000561
300.025071223
300.013945021
300.008009897
300.004849029
300.002992861
300.001816841
300.001067839
300.000610453
300.000338796
300.00018024
300.000086437
300.000030039
300.000002001
300
300
300
300
300.000002175
300.000004819
300.000006092
300.028553152
300.016044288
300.009192876
300.005478854
300.003305187
300.001952075
300.001112967
300.000617165
300.000335682
300.000177078
300.00008396
300.000025448
300.000000175
300
300
300
300
300.000001994
300.000004793
300.000006192
300.031918222
300.018159274
300.010420175
300.006139572
300.003632366
300.002095265
300.0011661
300.00063623
300.000344802
300.000183518
300.000086971
300.000024066
300.000000088
300
300
300
300
300.000001699
300.000004513
300.00000601
300.035055712
300.020246001
300.011676682
300.006827752
300.003975565
300.00225262
300.001235937
300.000670759
300.000367177
300.000199047
300.000094881
300.000025443
300.000000276
300
300
300
300
300.000001428
300.000004326
300.000006
300.03791363
300.022268596
300.012943629
300.007536385
300.004339036
300.002432661
300.001326001
300.000721139
300.000400112
300.000220221
300.000106013
300.000028747
300.000001536
300.000000316
300.000000039
300
300
300.000000959
300.000004313
300.000006763
300.040540767
300.024237059
300.014222231
300.008270987
300.004735216
300.002641905
300.001438163
300.000786287
300.00043977
300.000243295
300.00011807
300.000033317
300.000003111
300.000000987
300.000000049
300
300
300.000000891
300.000005617
300.00001079
300.04306523
300.026208043
300.015537274
300.009053923
300.005175157
300.002884427
300.001572648
300.000862751
300.000484177
300.000266909
300.000129645
300.000038126
300.000004203
300.000001317
300.000000048
300
300
300.000001721
300.000011926
300.000029787
300.045667353
300.028274998
300.01694363
300.009913104
300.005670362
300.003163543
300.001726472
300.000947322
300.000530369
300.000289349
300.000139734
300.000042828
300.000004772
300.000001416
300.000000046
300
300.000000022
300.000008995
300.0000483
300.000114277
300.048552504
300.030551795
300.018504328
300.010878798
300.006232642
300.003478648
300.001897289
300.001036372
300.000575379
300.000309312
300.000147807
300.000047314
300.000004784
300.000001411
300.000000052
300
300.000012296
300.000089545
300.000294102
300.000494951
300.0518978
300.033138136
300.020273463
300.01197857
300.006869565
300.003830643
300.002083284
300.001127861
300.00061897
300.00032809
300.000154793
300.000051257
300.000004756
300.000001277
300.000000074
300.000011026
300.000122548
300.00056341
300.001363487
300.001918803
300.055753187
300.036067277
300.022271609
300.013220606
300.00758558
300.004222931
300.00228789
300.001226537
300.000666145
300.000350073
300.000163489
300.000054983
300.000005354
300.000001227
300.000000148
300.000063089
300.000546402
300.002108683
300.004479044
300.005903247
300.059998799
300.039260056
300.024446993
300.014574044
300.008366798
300.004652792
300.002515857
300.001339833
300.000721856
300.000378392
300.000176069
300.000059746
300.000006885
300.000001271
300.000003261
300.000174401
300.001511688
300.005624201
300.011482766
300.014768512
300.064360076
300.042502407
300.026637253
300.015927283
300.009148079
300.005087923
300.002753319
300.001461954
300.000780242
300.000407491
300.000189366
300.000065484
300.000009248
300.000001303
300.000010574
300.000383584
300.00350207
300.01304605
300.025765222
300.03225449
300.068417153
300.045438255
300.028549999
300.017060906
300.009783014
300.005440256
300.002949687
300.001563021
300.000821329
300.000422108
300.000194512
300.000069409
300.000012269
300.000001785
300.000042767
300.000967969
300.008451361
300.029664194
300.053303639
300.064077062
300.071611891
300.047540821
300.029742745
300.017635169
300.010037885
300.005563174
300.003014229
300.001587552
300.000813371
300.000403746
300.000182607
300.000068836
300.000017109
300.000016336
300.000201219
300.002695243
300.019334091
300.060025423
300.096784444
300.111858582
300.073238764
300.048163986
300.029662382
300.017235842
300.009645914
300.00529205
300.002847747
300.001475079
300.000728113
300.000348924
300.000156448
300.000067129
300.000025881
300.000070612
300.000555008
300.005759792
300.036072115
300.101179658
300.152083231
300.170620748
300.072655851
300.0467725
300.027893338
300.015641741
300.008517727
300.004589724
300.00241015
300.001210333
300.000594252
300.000294892
300.000138709
300.000070813
300.000041644
300.000117737
300.000700453
300.00757861
300.054656995
300.149647532
300.214732163
300.236358048
300.069796117
300.043466746
300.024779516
300.013309256
300.007036668
300.0036996
300.001884098
300.000992352
300.000544087
300.000293549
300.000155117
300.000097803
300.000106306
300.000196532
300.000736389
300.008930921
300.076642362
300.20708313
300.283086974
300.306011199
300.065671838
300.039503427
300.021658937
300.011333747
300.006001639
300.00323009
300.001741875
300.001058383
300.000644621
300.000400468
300.000239684
300.000180136
300.00027424
300.000409401
300.00144546
300.014412328
300.104074578
300.276554809
300.361624834
300.387885796
300.062099606
300.036716364
300.020056986
300.010861234
300.006162504
300.003564111
300.002031822
300.001336318
300.000877533
300.000618801
300.000389352
300.000375766
300.00046436
300.000708683
300.002518349
300.023010222
300.132128417
300.346830399
300.446603555
300.478876963
300.060614319
300.036438065
300.020982706
300.012222556
300.007331071
300.00442158
300.002620587
300.001798592
300.001262336
300.000934668
300.000579515
300.000678225
300.000691992
300.001099627
300.004118695
300.030445775
300.155364045
300.404910038
300.523896842
300.56385161
300.061865174
300.038956963
300.023978442
300.014711383
300.009126386
300.005680952
300.003530636
300.002465904
300.001823224
300.001397164
300.000871103
300.000991191
300.001022102
300.001582769
300.005697408
300.033727486
300.164721361
300.444556439
300.601353682
300.658157291
300.065897527
300.043885203
300.028550126
300.018179303
300.0115416
300.007378774
300.004785077
300.00335354
300.00259782
300.002042454
300.001381063
300.001450224
300.001529229
300.002210917
300.006574605
300.032967021
300.160907173
300.48420715
300.701797517
300.78305937
300.07243273
300.05074086
300.034501925
300.022625294
300.014650685
300.009574016
300.006402418
300.004509692
300.003578153
300.002898473
300.002187806
300.00216033
300.00222981
300.002936783
300.007106181
300.030273774
300.15425397
300.55607684
300.860997305
300.9799948
300.080950957
300.05920578
300.041757638
300.028155308
300.018526829
300.01227484
300.008340923
300.00593962
300.004763798
300.003985711
300.003361082
300.003122363
300.003138339
300.003865385
300.007646778
300.028700314
300.169187534
300.745555202
301.217354306
301.404705236
300.091089062
300.069046489
300.050285586
300.034838109
300.023242022
300.01545702
300.010505964
300.007563139
300.006104081
300.005211826
300.0045995
300.004269896
300.004201223
300.004992412
300.00868325
300.03418
300.286999208
301.553043135
302.724045245
303.183623856
300.101969606
300.079832503
300.059811397
300.042527436
300.028825818
300.019057062
300.012805529
300.009235711
300.007315227
300.006237546
300.005598543
300.005299122
300.00530109
300.006313493
300.01081754
300.05373269
300.674039769
304.4474589
308.349253854
309.896309479
)
;

boundaryField
{
    emptyPatch
    {
        type            empty;
    }
    minY
    {
        type            calculated;
        value           nonuniform List<scalar> 0();
    }
    maxY
    {
        type            calculated;
        value           nonuniform List<scalar> 
40
(
342.709192088
311.144885013
303.511740586
301.705812023
301.214642128
301.010070114
300.884770489
300.787910725
300.700985676
300.616684436
300.535856568
300.462955684
300.399917859
300.347027821
300.302760317
300.264135575
300.227959361
300.192248132
300.157590946
300.12737512
300.101969827
300.079832721
300.059811591
300.042527581
300.028825914
300.019057114
300.012805549
300.009235718
300.007315229
300.006237547
300.005598545
300.005299125
300.005301111
300.006313548
300.010819763
300.053747184
300.674207189
304.448130293
308.349330759
309.896380523
)
;
    }
    water_to_cooler
    {
        type            calculated;
        value           nonuniform List<scalar> 
38
(
300.000001446
300.000001323
300.000001224
300.000001199
300.000001048
300.000000991
300.000000979
300.00000098
300.000001005
300.00000105
300.000001081
300.000001105
300.000001086
300.000001061
300.000001062
300.000001076
300.000001199
300.000002068
300.000006434
300.000027901
300.000112744
300.00036825
300.00100243
300.002443703
300.005528898
300.011398598
300.021062735
300.035298535
300.055798446
300.0867723
300.134789936
300.20987305
300.33334934
300.529004067
300.820772665
301.230770666
301.828051689
302.757051434
)
;
    }
    water_to_heater
    {
        type            calculated;
        value           nonuniform List<scalar> 
59
(
795.356700972
795.370713386
795.358938621
795.413545088
795.557458918
795.548004537
795.570009137
795.545015796
795.553925943
795.5299553
795.536233098
795.517567619
795.520986203
795.505448676
795.506427292
795.493260708
795.495524171
795.487912679
795.487897203
795.501429932
795.500797618
795.522853424
795.523243454
795.546035938
795.544325669
795.554089112
795.553639043
795.528036302
795.528608656
795.50463585
795.504278851
795.479030183
795.478992537
795.446854912
795.443067298
795.368760653
795.29570128
795.273916111
795.189895699
795.210175748
795.18212697
795.2196116
795.210535285
795.234280199
795.235441899
795.247897387
795.250859999
795.244777528
795.243491084
795.192543719
795.190177104
795.142572359
795.244072343
795.071479515
795.087925917
794.862597193
794.860560218
794.708068287
794.706045707
)
;
    }
    procBoundary0to1
    {
        type            processor;
        value           nonuniform List<scalar> 
41
(
313.210934475
306.32849488
303.361103161
301.92708354
301.177840566
300.790316427
300.593343374
300.477230586
300.392672626
300.32217663
300.260624243
300.205535349
300.155722815
300.111388234
300.07442171
300.046607618
300.027810451
300.016052936
300.009021395
300.004800186
300.000237422
300.000114055
300.000047805
300.000016279
300.000004762
300.000005496
300.000014036
300.000028162
300.000068778
300.000137027
300.00013274
300.000051988
300.000024249
300.000018562
300.000015486
300.000012856
300.002387436
300.001245675
300.000744393
300.000432081
300.000432081
)
;
    }
}


// ************************************************************************* //
