/*--------------------------------*- C++ -*----------------------------------*\
| =========                 |                                                 |
| \\      /  F ield         | OpenFOAM: The Open Source CFD Toolbox           |
|  \\    /   O peration     | Version:  2312                                  |
|   \\  /    A nd           | Website:  www.openfoam.com                      |
|    \\/     M anipulation  |                                                 |
\*---------------------------------------------------------------------------*/
FoamFile
{
    version     2.0;
    format      ascii;
    arch        "LSB;label=32;scalar=64";
    class       surfaceScalarField;
    location    "0.87/water";
    object      phi.gas;
}
// * * * * * * * * * * * * * * * * * * * * * * * * * * * * * * * * * * * * * //

dimensions      [0 3 -1 0 0 0 0];

oriented        oriented;

internalField   nonuniform List<scalar> 
2928
(
3.40812451593e-07
3.15717624951e-07
2.36024141422e-07
2.09555590978e-07
3.11158130459e-07
1.92245807841e-07
2.88158149222e-07
1.81411790567e-07
3.00825686319e-07
1.83500964844e-07
2.91998257934e-07
1.8749090147e-07
2.46295249097e-07
1.93835474396e-07
2.05086764722e-07
2.09616812585e-07
2.24477416894e-07
3.4134426291e-07
1.93770791155e-07
4.21679658499e-07
1.75848875915e-07
4.4719240587e-07
1.57864603887e-07
4.70948505501e-07
1.41098015862e-07
4.9598854374e-07
1.2516486338e-07
5.22298103253e-07
1.09909454865e-07
5.49939379247e-07
9.51375563896e-08
5.78946563185e-07
8.06713166858e-08
6.09347088882e-07
6.63257484742e-08
6.41160425992e-07
5.20429252698e-08
6.74391491305e-07
7.09028873429e-07
3.79128036525e-08
1.38057764834e-07
3.34604684978e-07
2.40917833078e-07
2.62851355034e-07
2.37526045292e-07
2.40601162555e-07
2.71289010258e-07
2.33445008429e-07
2.72614612954e-07
2.33948773178e-07
2.76685695296e-07
2.39869128236e-07
2.64305192935e-07
2.48857961678e-07
2.35200192697e-07
2.6222826574e-07
1.21098204517e-07
3.14772493164e-07
5.60156043969e-08
3.61753368291e-07
4.78688922963e-08
3.7635119559e-07
4.1872760012e-08
3.93125557508e-07
3.6529856076e-08
4.10888713105e-07
3.16065658362e-08
4.29635290739e-07
2.6981318277e-08
4.49416020102e-07
2.26119383284e-08
4.70302289891e-07
1.84901300041e-08
4.92367065615e-07
1.46012051129e-08
5.15680759266e-07
1.09315801836e-08
5.40313736654e-07
5.66342012893e-07
7.49131980448e-09
1.57851175398e-07
4.06421766236e-07
2.02738842487e-07
3.20070716562e-07
2.1430236524e-07
2.8600555184e-07
2.31368167395e-07
2.73924672813e-07
2.38819369847e-07
2.7232830834e-07
2.41648878684e-07
2.76187922717e-07
2.39249952578e-07
2.83808565798e-07
2.24800593738e-07
2.95465491992e-07
1.6978932657e-07
3.27229725167e-07
4.89726062685e-08
3.67683992441e-07
3.64189411443e-08
3.90735808457e-07
3.36724053213e-08
4.09014914585e-07
3.0744946126e-08
4.28246941451e-07
2.78183706992e-08
4.48470552359e-07
2.48061482498e-08
4.69695123032e-07
2.16334286796e-08
4.91976000376e-07
1.82941555572e-08
5.15391013081e-07
1.48148708154e-08
5.40026482975e-07
1.12586233293e-08
5.65971554537e-07
5.93318777254e-07
7.76226938468e-09
2.17182766107e-07
4.3932281537e-07
2.33702946276e-07
3.67217394939e-07
2.36982442431e-07
3.21018758844e-07
2.39879263373e-07
3.03221355014e-07
2.36564526873e-07
2.98384851628e-07
2.30907700948e-07
3.00320852183e-07
2.23362866201e-07
3.06370945038e-07
2.11260664326e-07
3.16068287984e-07
1.85504344698e-07
3.36404095641e-07
8.75109237e-08
3.64608819955e-07
2.45869782493e-08
3.88541812956e-07
2.34137941092e-08
4.07341832634e-07
2.18559727521e-08
4.26714287152e-07
2.00475573069e-08
4.47075522595e-07
1.81074820642e-08
4.68415384848e-07
1.5990087242e-08
4.90765973286e-07
1.36562230598e-08
5.14191715025e-07
1.10985490082e-08
5.38777299054e-07
8.36739332593e-09
5.64620103938e-07
5.91826331321e-07
5.62066050981e-09
2.54968172317e-07
4.56336549166e-07
2.70980663025e-07
4.01027969667e-07
2.6593287968e-07
3.52957743295e-07
2.63003387678e-07
3.27838173939e-07
2.53591414918e-07
3.19352387555e-07
2.40742902009e-07
3.18930019793e-07
2.25513720952e-07
3.23258108625e-07
2.0891149634e-07
3.31176911138e-07
1.87043445989e-07
3.45709432274e-07
1.3857503944e-07
3.66918298783e-07
2.70909903692e-08
3.88715851305e-07
1.9402001656e-08
4.08480677832e-07
1.78879020672e-08
4.2812009224e-07
1.60343533782e-08
4.48766515927e-07
1.41073974166e-08
4.70392230423e-07
1.2130180341e-08
4.93015873544e-07
1.00644712916e-08
5.16689246837e-07
7.87652839946e-09
5.41488590817e-07
5.58783156284e-09
5.67508336281e-07
5.94855313351e-07
3.34349388359e-09
2.81497210694e-07
4.61092703403e-07
2.98853511608e-07
4.2262388666e-07
2.89582523534e-07
3.81855398366e-07
2.83724332501e-07
3.51333498484e-07
2.74578578672e-07
3.38306656416e-07
2.60608608275e-07
3.35065399275e-07
2.41381187613e-07
3.37419266389e-07
2.18901092923e-07
3.43553740784e-07
1.94384216587e-07
3.54485516927e-07
1.61932577697e-07
3.70838307591e-07
6.3761379541e-08
3.90278285307e-07
1.96123454788e-08
4.09816970507e-07
1.70361471165e-08
4.29695033043e-07
1.43668556792e-08
4.50383691722e-07
1.18014779845e-08
4.72068594954e-07
9.39606329639e-09
4.94758474494e-07
7.11413270647e-09
5.18497030303e-07
4.90229265792e-09
5.43353637957e-07
2.75145960645e-09
5.69418035398e-07
5.96796256522e-07
7.79751815995e-10
2.90265454762e-07
4.62598336872e-07
3.08383352772e-07
4.35849254903e-07
3.00126857226e-07
4.04270633632e-07
2.91038958242e-07
3.75183988251e-07
2.836011446e-07
3.56644040937e-07
2.73582590627e-07
3.50396813508e-07
2.56777211281e-07
3.50576834127e-07
2.33022561365e-07
3.54770517966e-07
2.05733379089e-07
3.62990365761e-07
1.74732629567e-07
3.7589985332e-07
1.15367970396e-07
3.92715713476e-07
2.11506235466e-08
4.12036545333e-07
1.57407133061e-08
4.32299107658e-07
1.21488571461e-08
4.52802019958e-07
8.91176190569e-09
4.74319133787e-07
6.06525281597e-09
4.9687867839e-07
3.55724251492e-09
5.20517838991e-07
1.31137842057e-09
5.45298600737e-07
-7.03248614266e-10
5.71305397425e-07
5.986374592e-07
-2.42728978751e-09
2.84061346413e-07
4.67831964197e-07
2.99673147698e-07
4.47396613946e-07
2.93448042984e-07
4.2261141772e-07
2.83214495047e-07
3.97118164247e-07
2.76908622696e-07
3.75450591012e-07
2.71408797456e-07
3.65148960873e-07
2.60361156938e-07
3.6296667241e-07
2.40209346951e-07
3.65089758011e-07
2.13036202797e-07
3.70853724927e-07
1.82553433409e-07
3.80924371081e-07
1.4253918309e-07
3.95206585325e-07
3.29088435043e-08
4.13492374889e-07
9.27200438409e-09
4.35351062989e-07
5.64456620517e-09
4.55315005151e-07
2.54951977731e-09
4.76499237895e-07
-4.41287809668e-11
4.98801208624e-07
-2.20306369048e-09
5.22239809757e-07
-4.0112114443e-09
5.46869709316e-07
-5.52624904886e-09
5.72765508278e-07
6.00017356292e-07
-6.73517861094e-09
2.88954585237e-07
4.7565707901e-07
3.00438603214e-07
4.58705351425e-07
2.85428001563e-07
4.38880269156e-07
2.72298924071e-07
4.16658033928e-07
2.63367394561e-07
3.95105785627e-07
2.59627203397e-07
3.79813707419e-07
2.53568261056e-07
3.74556566737e-07
2.38429445979e-07
3.74301456696e-07
2.13680680221e-07
3.77612903719e-07
1.84406233046e-07
3.85007878346e-07
1.50383118639e-07
3.96943034671e-07
7.56271438311e-08
4.13187719349e-07
-4.78140074573e-09
4.3620073612e-07
-7.39016077529e-09
4.56711085261e-07
-8.89356100707e-09
4.77665580015e-07
-1.00294532325e-08
4.99746578338e-07
-1.0864394051e-08
5.23036344379e-07
-1.14694539811e-08
5.47575652425e-07
-1.18971538375e-08
5.73427252129e-07
6.00670641153e-07
-1.21359254168e-08
2.91385677535e-07
4.87170909233e-07
2.9146028921e-07
4.68959572042e-07
2.71641456184e-07
4.51337802429e-07
2.56776334901e-07
4.32149234408e-07
2.47117961068e-07
4.12060568895e-07
2.43213411131e-07
3.94209019958e-07
2.4011662182e-07
3.84390658278e-07
2.30437965112e-07
3.81678515043e-07
2.09772459655e-07
3.82669848173e-07
1.81840860114e-07
3.8758143091e-07
1.51459264877e-07
3.97334254313e-07
1.07630361914e-07
4.11682470608e-07
-1.46280138325e-08
4.31214162212e-07
-2.61184694362e-08
4.56369218747e-07
-2.44048836119e-08
4.76724065458e-07
-2.28182748185e-08
4.98879035537e-07
-2.13838267242e-08
5.22280988274e-07
-2.00915456958e-08
5.46960708906e-07
-1.89305708055e-08
5.72970827277e-07
6.00381508641e-07
-1.78506008422e-08
2.80955553549e-07
4.95161347771e-07
2.7458604635e-07
4.74031590397e-07
2.58190199702e-07
4.57716990026e-07
2.45564520774e-07
4.42029903852e-07
2.37290855592e-07
4.25035387661e-07
2.32567223894e-07
4.07832255608e-07
2.30419939586e-07
3.9395128529e-07
2.25147134307e-07
3.87845332724e-07
2.09287986716e-07
3.86585854977e-07
1.832984324e-07
3.89273632441e-07
1.54268004909e-07
3.96925090246e-07
1.20964054167e-07
4.09672629631e-07
4.31132579049e-08
4.27081502729e-07
-4.42393109097e-08
4.4999206221e-07
-3.92534606472e-08
4.7319706524e-07
-3.45608198763e-08
4.95958710704e-07
-3.0664770835e-08
5.19887138276e-07
-2.74129762495e-08
5.45037131931e-07
-2.46870060344e-08
5.71469215959e-07
5.99257800071e-07
-2.23654971942e-08
2.71373782218e-07
4.99087658704e-07
2.73314684736e-07
4.7716742512e-07
2.61404409244e-07
4.62062369638e-07
2.5080358542e-07
4.49768410871e-07
2.43482086854e-07
4.36459878193e-07
2.39278831578e-07
4.21287200381e-07
2.36516335577e-07
4.06323182992e-07
2.32611243417e-07
3.96024309847e-07
2.20752989895e-07
3.92288194767e-07
1.96826124523e-07
3.92626725664e-07
1.66620350896e-07
3.97865073273e-07
1.37027212594e-07
4.08770991195e-07
9.45116176348e-08
4.24541534188e-07
-3.02296000802e-08
4.44601440228e-07
-4.5862738804e-08
4.69332378969e-07
-3.96770618741e-08
4.9226718713e-07
-3.4578028097e-08
5.16869985638e-07
-3.03772349297e-08
5.42617907455e-07
-2.69101997469e-08
5.69580090814e-07
5.97836063826e-07
-2.40182611561e-08
2.64792244929e-07
5.03049803651e-07
2.69550037547e-07
4.79988808062e-07
2.60740543617e-07
4.65443589861e-07
2.54045513305e-07
4.55695141721e-07
2.51027894634e-07
4.45866687933e-07
2.5115949094e-07
4.33616299199e-07
2.50711086416e-07
4.19979674795e-07
2.48443453254e-07
4.07653193313e-07
2.39867407987e-07
4.01256567322e-07
2.18848642268e-07
3.99186602376e-07
1.88500109269e-07
4.01619816782e-07
1.57760353729e-07
4.10129677874e-07
1.25553578515e-07
4.24353310192e-07
5.80217408836e-08
4.4314574619e-07
-3.92639392817e-08
4.64026064741e-07
-3.55137736729e-08
4.89423188454e-07
-3.10930992219e-08
5.14513128066e-07
-2.7444560125e-08
5.40746466127e-07
-2.44501467407e-08
5.68154209267e-07
5.9681031081e-07
-2.19698373931e-08
2.62342054733e-07
5.03280475318e-07
2.72928760369e-07
4.80351105097e-07
2.58667947892e-07
4.68043173694e-07
2.53862062895e-07
4.60370240023e-07
2.55391239528e-07
4.53165478544e-07
2.6103209041e-07
4.43666262607e-07
2.65613084704e-07
4.32478992626e-07
2.65799751824e-07
4.21246041125e-07
2.59013221024e-07
4.12997776094e-07
2.40713790625e-07
4.08823628056e-07
2.11852501456e-07
4.08403681429e-07
1.80635697998e-07
4.14119727684e-07
1.53946767665e-07
4.26488094749e-07
1.15232639818e-07
4.44026235782e-07
-3.57230770942e-10
4.63934610796e-07
-2.33353284017e-08
4.88131850764e-07
-2.10701200479e-08
5.13526189199e-07
-1.92182722863e-08
5.40088675498e-07
-1.77636076467e-08
5.67796767839e-07
5.96714200838e-07
-1.66004130784e-08
2.56012651575e-07
5.0228748003e-07
2.70927270675e-07
4.79061401101e-07
2.54550387019e-07
4.69287977603e-07
2.5137721885e-07
4.63648029573e-07
2.56584814767e-07
4.58622044904e-07
2.68024324033e-07
4.51852661938e-07
2.78065673278e-07
4.43676507013e-07
2.81103814638e-07
4.35111569547e-07
2.74718069068e-07
4.27173816569e-07
2.5724114527e-07
4.21261782821e-07
2.30427385262e-07
4.18317044731e-07
2.01236232413e-07
4.21219717002e-07
1.7603884124e-07
4.31378505055e-07
1.48076714726e-07
4.47749749502e-07
7.6437118981e-08
4.68224733729e-07
-4.49999468482e-09
4.88662665892e-07
-6.48196898351e-09
5.14299547926e-07
-7.42281871205e-09
5.41052053906e-07
-8.35265294012e-09
5.68890228796e-07
5.97885744385e-07
-9.21800237648e-09
2.4601256638e-07
5.04323266003e-07
2.64990219671e-07
4.79211826022e-07
2.4880791826e-07
4.70888680972e-07
2.48888551761e-07
4.66900555745e-07
2.58417851376e-07
4.63866336089e-07
2.74775646849e-07
4.59858185657e-07
2.89208653788e-07
4.55171767406e-07
2.94230159741e-07
4.50023928301e-07
2.86378273551e-07
4.43790239329e-07
2.67492352436e-07
4.36795913935e-07
2.42204993667e-07
4.31743414799e-07
2.16014333816e-07
4.32048884623e-07
1.92473890573e-07
4.39643095134e-07
1.70232551827e-07
4.54248950812e-07
1.27694569322e-07
4.73818766449e-07
2.48880517591e-08
4.91439003198e-07
9.92950192221e-09
5.1738392545e-07
5.34384712083e-09
5.44056302915e-07
1.42680090394e-09
5.71713208757e-07
6.00497096086e-07
-1.89484969101e-09
2.30857705078e-07
5.11696809383e-07
2.52221010807e-07
4.82890598384e-07
2.40306572623e-07
4.74160938284e-07
2.46222449171e-07
4.71374343053e-07
2.60948575686e-07
4.70525719371e-07
2.81412735302e-07
4.69494582399e-07
2.97841636268e-07
4.6843954437e-07
3.0195516087e-07
4.66784575388e-07
2.91625902224e-07
4.62695091225e-07
2.71069704578e-07
4.55441113589e-07
2.46535753286e-07
4.48545066485e-07
2.22643364085e-07
4.46404831345e-07
2.00836085285e-07
4.51151078757e-07
1.81808535542e-07
4.63272574531e-07
1.50184814517e-07
4.81280537218e-07
5.71374382675e-08
4.99287113123e-07
2.28935266958e-08
5.23005004175e-07
1.47488351726e-08
5.49107458565e-07
8.03903679509e-09
5.76142403562e-07
6.04345598152e-07
2.49814361474e-09
2.12683094509e-07
5.28775792983e-07
2.36815913561e-07
4.92310663758e-07
2.30203598499e-07
4.80667799454e-07
2.41734678976e-07
4.7805074996e-07
2.60736505053e-07
4.79266813724e-07
2.83010365635e-07
4.81183323161e-07
2.98222259266e-07
4.83384234665e-07
2.99890558478e-07
4.84653237566e-07
2.87871438653e-07
4.82657599119e-07
2.66438964444e-07
4.75819411583e-07
2.41997527365e-07
4.6713396164e-07
2.19200945199e-07
4.62795009219e-07
1.98503267899e-07
4.64576420307e-07
1.78637296761e-07
4.7357575899e-07
1.5025393022e-07
4.8918746018e-07
7.55290934654e-08
5.09180377367e-07
2.55184585722e-08
5.30197628653e-07
1.55380366889e-08
5.55264102134e-07
7.48587103167e-09
5.81317773285e-07
6.08646027029e-07
9.13803629883e-10
2.14740981201e-07
5.45853919655e-07
2.45720986882e-07
5.04179452006e-07
2.33245069748e-07
4.91027070092e-07
2.41998932756e-07
4.88205862079e-07
2.58636859156e-07
4.90698933068e-07
2.78196295639e-07
4.94740430729e-07
2.90467550641e-07
4.99256160725e-07
2.90113376847e-07
5.02617288955e-07
2.77070372135e-07
5.0219735042e-07
2.54611533283e-07
4.96125368243e-07
2.29336007315e-07
4.86016146522e-07
2.06343136816e-07
4.78925299508e-07
1.85353700301e-07
4.7789947896e-07
1.63124317547e-07
4.83222830001e-07
1.33924792175e-07
4.95426668383e-07
7.80355136741e-08
5.14109309961e-07
1.33175263136e-08
5.37649517602e-07
4.09536100176e-09
5.60825724436e-07
-2.93344355101e-09
5.85768479835e-07
6.12140834832e-07
-8.6270348528e-09
2.27514934143e-07
5.58380185079e-07
2.64479844823e-07
5.17363912835e-07
2.45315675646e-07
5.05360967901e-07
2.46443876061e-07
5.0342889808e-07
2.56998847469e-07
5.06560576161e-07
2.71932665587e-07
5.111115706e-07
2.80142328834e-07
5.16046041968e-07
2.76493502023e-07
5.19681573257e-07
2.61863387656e-07
5.19306145395e-07
2.39154348901e-07
5.13374925223e-07
2.12993096276e-07
5.02842183446e-07
1.88233363771e-07
4.92838265174e-07
1.64728178138e-07
4.88157587908e-07
1.38543756707e-07
4.89741348449e-07
1.07324033169e-07
4.97763136971e-07
6.42354065256e-08
5.13404495734e-07
-1.19787752454e-08
5.41386961417e-07
-2.0004195377e-08
5.6365408095e-07
-2.34529674239e-08
5.8781038304e-07
6.13432711429e-07
-2.61469758379e-08
2.47460958866e-07
5.67941310094e-07
2.8572161851e-07
5.32824477743e-07
2.60558946196e-07
5.24976094939e-07
2.51572508734e-07
5.25499040643e-07
2.52328819608e-07
5.27929345546e-07
2.58260484931e-07
5.29959519686e-07
2.59034546887e-07
5.32261125744e-07
2.51618751966e-07
5.33443853577e-07
2.37627893712e-07
5.30831657487e-07
2.19439916953e-07
5.23526222458e-07
1.97116298316e-07
5.13534326833e-07
1.71700738929e-07
5.03056725708e-07
1.44500785445e-07
4.94224528482e-07
1.12660347838e-07
4.90827303691e-07
7.84100792341e-08
4.95016668252e-07
4.00632994733e-08
5.07656422577e-07
-3.62397387235e-08
5.30970551824e-07
-5.38031195858e-08
5.62485540745e-07
-5.15724326704e-08
5.85918232842e-07
6.11375004637e-07
-4.94664324441e-08
2.65724461692e-07
5.74643037293e-07
2.89135635609e-07
5.48532781884e-07
2.54828104111e-07
5.47044023866e-07
2.30971915148e-07
5.51287431879e-07
2.19244310161e-07
5.51194833625e-07
2.16300868365e-07
5.47410194754e-07
2.13271545604e-07
5.44360208746e-07
2.0803138937e-07
5.41095063373e-07
2.02386674882e-07
5.34757574897e-07
1.95001000393e-07
5.25283581476e-07
1.80831993201e-07
5.15553432371e-07
1.59271210156e-07
5.07074867723e-07
1.32502104412e-07
4.98044792204e-07
9.86599457296e-08
4.88277087046e-07
5.95810661356e-08
4.8881951203e-07
2.31587668175e-08
4.98997597147e-07
-2.32148640878e-08
5.19132117562e-07
-9.0970628939e-08
5.55190241886e-07
-8.19272160889e-08
5.79788623433e-07
6.05788763827e-07
-7.43343695056e-08
2.67514563016e-07
5.81794183093e-07
2.55572417271e-07
5.65041975356e-07
2.09890449997e-07
5.68738536457e-07
1.75401197149e-07
5.75764412236e-07
1.58671328693e-07
5.71306380237e-07
1.55643804508e-07
5.59809357285e-07
1.5721569293e-07
5.50107155275e-07
1.61029014038e-07
5.41749943534e-07
1.66360503022e-07
5.31674623619e-07
1.69419652077e-07
5.20433443304e-07
1.65684539425e-07
5.11476353743e-07
1.51552465562e-07
5.04857269794e-07
1.29904914935e-07
4.98888172946e-07
1.01018552822e-07
4.87792942786e-07
6.15176461271e-08
4.82466292808e-07
2.52446390081e-08
4.90119190259e-07
-8.58871458527e-09
5.08278111765e-07
-1.04726866791e-07
5.3672757113e-07
-1.08040502896e-07
5.71421527869e-07
5.97678344981e-07
-9.57807451744e-08
2.67312646679e-07
5.88724416553e-07
2.2238088302e-07
5.81407926414e-07
1.67740822748e-07
5.89979988325e-07
1.3132985958e-07
5.97447195855e-07
1.1501491166e-07
5.87657933336e-07
1.14890492019e-07
5.68414071476e-07
1.22366701492e-07
5.51936588958e-07
1.33680674495e-07
5.38634873285e-07
1.46383922076e-07
5.25597921891e-07
1.57167426146e-07
5.13390128138e-07
1.60716938729e-07
5.05670255423e-07
1.53447867229e-07
5.01005465737e-07
1.36733697664e-07
4.97528509994e-07
1.12308920448e-07
4.89367860259e-07
8.02408160561e-08
4.79176840389e-07
4.39771748296e-08
4.83883999034e-07
1.46164894903e-08
5.00415533592e-07
-3.5056763295e-08
5.25431884634e-07
-1.258076087e-07
5.61416560408e-07
5.88664794426e-07
-1.09976636926e-07
2.5307944822e-07
6.00710065765e-07
1.97596089843e-07
5.97751177431e-07
1.53191436707e-07
6.07694850208e-07
1.23674415031e-07
6.15013912573e-07
1.088887045e-07
6.01706116548e-07
1.0949848998e-07
5.76251216855e-07
1.19432852282e-07
5.53836999231e-07
1.34012897766e-07
5.3630682308e-07
1.50976160192e-07
5.21177399726e-07
1.66273253089e-07
5.09449553003e-07
1.72004788816e-07
5.03111991638e-07
1.66655649886e-07
4.98820042506e-07
1.4968875191e-07
4.97110953638e-07
1.28819497938e-07
4.91687194724e-07
1.04823872898e-07
4.80498360993e-07
7.32663334199e-08
4.82179552891e-07
4.91840878368e-08
4.96361456695e-07
1.99889672731e-08
5.19304459002e-07
-1.19060780619e-07
5.48498860759e-07
5.8094579913e-07
-1.14745057702e-07
2.40020619289e-07
6.17147207994e-07
1.92054572779e-07
6.11860145e-07
1.61621651709e-07
6.19188594321e-07
1.39391125536e-07
6.27733491945e-07
1.2703778732e-07
6.13629578855e-07
1.28424993497e-07
5.84166271856e-07
1.39478284983e-07
5.5733108215e-07
1.55545799646e-07
5.36596271326e-07
1.74837071178e-07
5.203382959e-07
1.90041780246e-07
5.10468568731e-07
1.9430130661e-07
5.05421918522e-07
1.87207216694e-07
5.00946990264e-07
1.70745112353e-07
4.99141581507e-07
1.50316303167e-07
4.96292155041e-07
1.2963165862e-07
4.86455910274e-07
1.04034847286e-07
4.85445565096e-07
8.10044166195e-08
4.96447315578e-07
5.89205058553e-08
5.17632547823e-07
-4.4894796527e-08
5.44559404295e-07
5.74706074696e-07
-1.10131244063e-07
2.30274930963e-07
6.34032844088e-07
1.92566829188e-07
6.21187639501e-07
1.69690425062e-07
6.24809158245e-07
1.5417555594e-07
6.34138978128e-07
1.47889925557e-07
6.2078848645e-07
1.53173251594e-07
5.90085186266e-07
1.66581357762e-07
5.61039849858e-07
1.85332731777e-07
5.38568988576e-07
2.05242181804e-07
5.22739971138e-07
2.17774867512e-07
5.15561360814e-07
2.21840627253e-07
5.12107826592e-07
2.14694456343e-07
5.08065746871e-07
1.98223925462e-07
5.05447775585e-07
1.76666460573e-07
5.03986170503e-07
1.54823730127e-07
4.96776196439e-07
1.31677731876e-07
4.93189271418e-07
1.09020947489e-07
5.00272314947e-07
8.92839037791e-08
5.1895832373e-07
3.48788361928e-08
5.44410007234e-07
5.69015673607e-07
-9.71326441796e-08
2.15568682795e-07
6.5546608612e-07
1.85188380032e-07
6.27665922385e-07
1.67389532325e-07
6.25356481893e-07
1.59691001902e-07
6.33100091879e-07
1.61830270842e-07
6.20868099051e-07
1.73155331885e-07
5.9161615876e-07
1.91355563975e-07
5.62970951134e-07
2.14887748646e-07
5.4095996415e-07
2.34576616556e-07
5.27637246654e-07
2.45854379961e-07
5.23314137485e-07
2.50970110163e-07
5.21626679651e-07
2.45698303746e-07
5.18837132645e-07
2.30082904045e-07
5.16140621877e-07
2.07061692583e-07
5.15400095238e-07
1.80403510708e-07
5.11336486616e-07
1.55644714986e-07
5.0468292698e-07
1.32835435717e-07
5.07049683877e-07
1.13949889985e-07
5.22423761205e-07
8.08401322657e-08
5.4617295778e-07
5.64803894773e-07
-7.27971541454e-08
2.17513120531e-07
6.72109358423e-07
1.95526860823e-07
6.30779050871e-07
1.75084513795e-07
6.24721949098e-07
1.69587835731e-07
6.29044189339e-07
1.76585617255e-07
6.16865651204e-07
1.9348086357e-07
5.90131238875e-07
2.17791006528e-07
5.63725182513e-07
2.45012618043e-07
5.44108039335e-07
2.62992804936e-07
5.34641806341e-07
2.73256456003e-07
5.328135761e-07
2.79973474459e-07
5.32795726691e-07
2.76922945211e-07
5.31695034498e-07
2.64029348764e-07
5.29824605755e-07
2.40320679576e-07
5.30546067968e-07
2.0552022124e-07
5.30557758434e-07
1.75868082728e-07
5.18825735562e-07
1.52387811709e-07
5.15844109765e-07
1.34157703357e-07
5.27186843601e-07
1.08399579855e-07
5.4903879675e-07
5.63455326262e-07
-2.9498948609e-08
2.23062787654e-07
6.84519348097e-07
2.05373435239e-07
6.33393982788e-07
1.84092667222e-07
6.23734759441e-07
1.81076628919e-07
6.23823829175e-07
1.92658001368e-07
6.11004086427e-07
2.15602867509e-07
5.87192614051e-07
2.45567491085e-07
5.64273237577e-07
2.73204616907e-07
5.48446273531e-07
2.88759777082e-07
5.43229448204e-07
2.99417454677e-07
5.43680355299e-07
3.07049028626e-07
5.45170631649e-07
3.06680092388e-07
5.45566339387e-07
2.97439717754e-07
5.45177853359e-07
2.72790655272e-07
5.48177215192e-07
2.26329730632e-07
5.52072510006e-07
1.91680701702e-07
5.35861741855e-07
1.68334628034e-07
5.26146725285e-07
1.48911022641e-07
5.32803528429e-07
1.25433713247e-07
5.52694322294e-07
5.70069641752e-07
2.87331264124e-08
2.22945971103e-07
6.95613428284e-07
2.09843673462e-07
6.35468477442e-07
1.91868249478e-07
6.21326420847e-07
1.93179377744e-07
6.17411146151e-07
2.09497923014e-07
6.0428056097e-07
2.37659664326e-07
5.83788479117e-07
2.71153312589e-07
5.65173716898e-07
2.96667284038e-07
5.54192819476e-07
3.10492361719e-07
5.52864497609e-07
3.21646429015e-07
5.55399526257e-07
3.30191040976e-07
5.5833619457e-07
3.31798019282e-07
5.60047391136e-07
3.26313417072e-07
5.61521154988e-07
2.95021177577e-07
5.67326321225e-07
2.40360291893e-07
5.72881342558e-07
2.05295596417e-07
5.5672704034e-07
1.82109229424e-07
5.38799880095e-07
1.61768098552e-07
5.40065648283e-07
1.38852422866e-07
5.57596790635e-07
5.80401844568e-07
8.29215003225e-08
2.20202754024e-07
7.08319098339e-07
2.1092557015e-07
6.37496309366e-07
1.98083842125e-07
6.17312445032e-07
2.05328383658e-07
6.0960962469e-07
2.26690113336e-07
5.97184239687e-07
2.58994151536e-07
5.80686511367e-07
2.93418758175e-07
5.66956785938e-07
3.15460978277e-07
5.61403917919e-07
3.27902316525e-07
5.63275851532e-07
3.39760255433e-07
5.67755044805e-07
3.48250405594e-07
5.72050416447e-07
3.51049269231e-07
5.75124057296e-07
3.45234795165e-07
5.78898850688e-07
3.0326921703e-07
5.87666981409e-07
2.49680355359e-07
5.93148212683e-07
2.14522370046e-07
5.79054438216e-07
1.92140796665e-07
5.53933931991e-07
1.72961398176e-07
5.49872352829e-07
1.51290587771e-07
5.6454230914e-07
5.88861904332e-07
1.17183007417e-07
2.07247629986e-07
7.25208396595e-07
2.02320882416e-07
6.3980069612e-07
1.97484701515e-07
6.10867646868e-07
2.13002995762e-07
5.99555155393e-07
2.40975536105e-07
5.89382964872e-07
2.77803820426e-07
5.78108334402e-07
3.10778619539e-07
5.70062196381e-07
3.29763331205e-07
5.6990489765e-07
3.42919758208e-07
5.74562552309e-07
3.54314532002e-07
5.80709346486e-07
3.62411019774e-07
5.86240035302e-07
3.64905427048e-07
5.90619145095e-07
3.51419772493e-07
5.96950400771e-07
3.02592788974e-07
6.08528481521e-07
2.54194836303e-07
6.13389721058e-07
2.18321539999e-07
6.01668203218e-07
1.97673111879e-07
5.7164078375e-07
1.81540295573e-07
5.62804577531e-07
1.62108027744e-07
5.73956553395e-07
5.97946009743e-07
1.31814903032e-07
2.11092748207e-07
7.37807452505e-07
2.17529295808e-07
6.40951600631e-07
2.1061888698e-07
6.05821279339e-07
2.2830066151e-07
5.91534432436e-07
2.59289466655e-07
5.83965215652e-07
2.98416685182e-07
5.7818933698e-07
3.2725131779e-07
5.76066410999e-07
3.4398319213e-07
5.80231946821e-07
3.56892236451e-07
5.87161262615e-07
3.67045046606e-07
5.94659107062e-07
3.72764866248e-07
6.01108100637e-07
3.7342858426e-07
6.06827927709e-07
3.48260898386e-07
6.16153886149e-07
2.95620047415e-07
6.28423786068e-07
2.5353497117e-07
6.3365517789e-07
2.19033711725e-07
6.24722792179e-07
2.00313656736e-07
5.92480311153e-07
1.86909231311e-07
5.79178713498e-07
1.68699278317e-07
5.8574045165e-07
6.07914570947e-07
1.37460682141e-07
2.14256700669e-07
7.42452206568e-07
2.35341222399e-07
6.38569494713e-07
2.29794577841e-07
6.00843021051e-07
2.49603841908e-07
5.86271696187e-07
2.82241509548e-07
5.82304781265e-07
3.19908561385e-07
5.82044861082e-07
3.43917563176e-07
5.85385051963e-07
3.58841508094e-07
5.92589055986e-07
3.70885688136e-07
6.0121815825e-07
3.77874864808e-07
6.09466210005e-07
3.80353251614e-07
6.1622942278e-07
3.75685987311e-07
6.23067651591e-07
3.33903495347e-07
6.34225300245e-07
2.85818754943e-07
6.46119294044e-07
2.51024502176e-07
6.53543461799e-07
2.19842955067e-07
6.4871061854e-07
2.01556414635e-07
6.17691761128e-07
1.88255619585e-07
5.98946371361e-07
1.68857603116e-07
5.9932322217e-07
6.18444516604e-07
1.35194401457e-07
2.13312486953e-07
7.42158957094e-07
2.54295671879e-07
6.3262895953e-07
2.53677686947e-07
5.96561935946e-07
2.76930449786e-07
5.85215132696e-07
3.09224122289e-07
5.86129319576e-07
3.40827436278e-07
5.90964592622e-07
3.60465102212e-07
5.98314573341e-07
3.74795843312e-07
6.07599349595e-07
3.83126777129e-07
6.16989244457e-07
3.85518562054e-07
6.24938110987e-07
3.82870179124e-07
6.31076844816e-07
3.60894699484e-07
6.37712620685e-07
3.14116322519e-07
6.49291017036e-07
2.79629286516e-07
6.61858913938e-07
2.50793702623e-07
6.72661389914e-07
2.23329421966e-07
6.74246085166e-07
2.01629564686e-07
6.48441909503e-07
1.84071209091e-07
6.21246088e-07
1.62255695937e-07
6.13991264932e-07
6.2890202808e-07
1.25079800434e-07
2.05784195012e-07
7.3541525866e-07
2.70419330085e-07
6.23266499201e-07
2.78240198612e-07
5.94147391282e-07
3.06072339e-07
5.89585761883e-07
3.35316710999e-07
5.96434906955e-07
3.60777576544e-07
6.05619449865e-07
3.77999677198e-07
6.15425613919e-07
3.87630697046e-07
6.2546860664e-07
3.88612381626e-07
6.3417458231e-07
3.82093568603e-07
6.40296411962e-07
3.67975745521e-07
6.44611154857e-07
3.3423832803e-07
6.50196931266e-07
2.97686600306e-07
6.60736973932e-07
2.75637451711e-07
6.75088365431e-07
2.54686264255e-07
6.91456736327e-07
2.28300956559e-07
7.01850544344e-07
1.96893909714e-07
6.84331006261e-07
1.72330716649e-07
6.44872643778e-07
1.48052737794e-07
6.29490462356e-07
6.38906244845e-07
1.07239515662e-07
1.9372317109e-07
2.85025527486e-07
2.99579787014e-07
3.29823936922e-07
3.55036237023e-07
3.76755995035e-07
3.87793500086e-07
3.85287169613e-07
3.73236184204e-07
3.5676531771e-07
3.35682019883e-07
3.08274122665e-07
2.88531416285e-07
2.74472947646e-07
2.56238997109e-07
2.24660614952e-07
1.82146348202e-07
1.51905972728e-07
1.2508885045e-07
8.17396097207e-08
2.39712024828e-08
7.09999597109e-07
1.02849131647e-08
6.77152227259e-07
-3.0496096483e-09
6.45493495155e-07
-1.60437862312e-08
6.15019934091e-07
-2.87500672316e-08
5.85732091899e-07
-4.12643811569e-08
5.5762475801e-07
-5.36713203875e-08
5.30685206294e-07
-6.60627347867e-08
5.0489496562e-07
-7.8512110747e-08
4.80231510599e-07
-9.11160153711e-08
4.56668122513e-07
-1.04008130757e-07
4.34170556562e-07
-1.17439789201e-07
4.12691212771e-07
-1.31815322447e-07
3.921643445e-07
-1.47536839541e-07
3.72523580655e-07
-1.6423604708e-07
3.53781154016e-07
-1.77023373949e-07
3.36285847942e-07
-2.04114129328e-07
3.19271410583e-07
-1.48496501289e-07
3.06545828085e-07
-1.04347726606e-06
2.50749176542e-07
2.6074573832e-07
4.27630560317e-09
5.6590236039e-07
1.25956779639e-09
5.39046826545e-07
-1.60473685218e-09
5.13630557758e-07
-4.37956159971e-09
4.89548800342e-07
-7.11235353332e-09
4.66716289845e-07
-9.84021353933e-09
4.45059164266e-07
-1.25848905247e-08
4.24510436985e-07
-1.53623888697e-08
4.05007029486e-07
-1.81877373997e-08
3.86488188836e-07
-2.10950884499e-08
3.68895359883e-07
-2.41532787838e-08
3.52174333657e-07
-2.74737852849e-08
3.36280272777e-07
-3.11261431707e-08
3.21185939723e-07
-3.48467546539e-08
3.06888442249e-07
-3.78027242401e-08
2.93393349237e-07
-3.9654053974e-08
2.80613761182e-07
-4.16328380559e-08
2.68362971769e-07
-4.79094282735e-08
2.54729807406e-07
-1.40093637504e-08
2.43897540805e-07
2.10491366238e-07
4.3816124538e-09
5.92889806577e-07
1.13900631845e-09
5.64754435875e-07
-1.91257631967e-09
5.38104717342e-07
-4.77469946813e-09
5.12830076676e-07
-7.45770530035e-09
4.88838349309e-07
-9.97272747101e-09
4.66046673335e-07
-1.2325170318e-08
4.44378661621e-07
-1.45294303839e-08
4.23762831492e-07
-1.66145611654e-08
4.04132929681e-07
-1.86358990834e-08
3.8542925849e-07
-2.06547860854e-08
3.67601192925e-07
-2.26677135176e-08
3.50609785702e-07
-2.4427045816e-08
3.34428990845e-07
-2.52968559633e-08
3.19040299566e-07
-2.47026386883e-08
3.04407913172e-07
-2.30702082219e-08
2.90383171499e-07
-2.17251844962e-08
2.76243055339e-07
-2.05543466581e-08
2.59915107354e-07
1.67605758971e-08
2.3602909124e-07
2.05546469812e-07