/*--------------------------------*- C++ -*----------------------------------*\
| =========                 |                                                 |
| \\      /  F ield         | OpenFOAM: The Open Source CFD Toolbox           |
|  \\    /   O peration     | Version:  2312                                  |
|   \\  /    A nd           | Website:  www.openfoam.com                      |
|    \\/     M anipulation  |                                                 |
\*---------------------------------------------------------------------------*/
FoamFile
{
    version     2.0;
    format      ascii;
    arch        "LSB;label=32;scalar=64";
    class       volScalarField;
    location    "0.63/heater";
    object      T;
}
// * * * * * * * * * * * * * * * * * * * * * * * * * * * * * * * * * * * * * //

dimensions      [0 0 0 1 0 0 0];

internalField   nonuniform List<scalar> 
150
(
791.928966804
791.805141616
791.558122056
791.189235103
790.700648266
791.789698027
791.655491765
791.386619369
790.982077197
790.440141
791.68276179
791.546683206
791.27444946
790.865924798
790.320962266
791.627276152
791.491205085
791.219054773
790.810812527
790.266488856
791.609639345
791.474229991
791.203454435
790.797402071
790.256227979
791.608168902
791.473162219
791.203213955
790.798415284
790.258685803
791.609802446
791.474893593
791.20514611
790.800624182
790.261057004
791.609639887
791.474754881
791.205087156
790.800768045
790.26147809
791.605342265
791.470345561
791.200477008
790.796008292
790.256824343
791.596874816
791.461632544
791.191237196
790.786013947
790.246265697
791.586153805
791.450648273
791.17966485
790.773475893
790.232804423
791.575138676
791.439423264
791.167964448
790.760910487
790.219394997
791.564736576
791.428830164
791.15695319
790.748983761
790.205730881
791.555714525
791.419637137
791.147442213
790.738908633
790.193780843
791.548600957
791.412373097
791.13991289
790.731061395
790.185228008
791.543719396
791.407402981
791.134791727
790.725788685
790.179886793
791.540590368
791.404221793
791.131531887
790.722476112
790.176582899
791.538394756
791.401944546
791.129109126
790.719903288
790.173935227
791.537025197
791.400485488
791.127480771
790.718089695
790.172023232
791.536674437
791.400096141
791.127028667
790.717633039
790.171696395
791.536789677
791.400186506
791.127079611
790.717758107
790.172205126
791.536639446
791.399971901
791.126709713
790.717203581
790.171802378
791.536451428
791.399719095
791.126278999
790.716473044
790.171270309
791.536826597
791.400085664
791.126574041
790.716518463
790.171619813
791.537759746
791.401032811
791.127489008
790.716982878
790.170232816
791.539172171
791.402430979
791.128862681
790.718213304
790.170005085
791.541802402
791.405056182
791.131488395
790.720881049
790.172771803
791.546934246
791.410260828
791.136831664
790.726408776
790.178534907
791.556101275
791.419564461
791.146387592
790.736275347
790.188673897
791.571926148
791.435580394
791.16272179
790.752947418
790.205583842
)
;

boundaryField
{
    emptyPatch
    {
        type            empty;
    }
    minY
    {
        type            zeroGradient;
    }
    maxY
    {
        type            zeroGradient;
    }
    minX
    {
        type            zeroGradient;
    }
    heater_to_water
    {
        type            compressible::turbulentTemperatureTwoPhaseRadCoupledMixed;
        refValue        nonuniform List<scalar> 
60
(
304.742063978
325.5421942
325.544763254
326.647922373
326.649181367
326.383416968
326.384022386
324.887304789
322.766149697
321.915884066
321.915928378
321.707230197
321.70727496
321.739165893
321.739226533
321.681315155
321.798582966
321.750433093
321.750585036
321.819787931
321.819963986
321.726110005
321.726285257
321.246346914
320.240954785
321.027415085
321.027574001
324.465180429
324.465321094
325.800153739
325.800268224
325.864330199
326.155568405
325.972578424
325.972668541
326.181034024
326.181116768
325.921540629
325.921608388
326.022848638
325.814849744
325.849197381
325.849265366
325.706657516
325.706726832
324.582899483
324.582960541
321.695679198
320.485471317
323.245157768
323.245221676
328.650494813
328.650528051
329.334455127
329.334458617
329.980538294
329.715963571
330.239176932
330.23906015
329.88422745
)
;
        refGradient     uniform 0;
        valueFraction   nonuniform List<scalar> 
60
(
0.000602487921805
0.000734152242839
0.000734078273175
0.000734624292371
0.000734589470174
0.000734622704457
0.000734605765927
0.000730576025674
0.000723347292406
0.000721265830083
0.000721264357861
0.000721116021843
0.000721114519146
0.000721703314315
0.000721701278209
0.000721124923728
0.000721780275045
0.000721087700524
0.000721082595739
0.000721557614988
0.000721551712424
0.000721029905466
0.000721024005559
0.000719369602924
0.000714641387108
0.000718651206246
0.000718645681699
0.000733147106429
0.000733142825134
0.000736930125362
0.000736926804334
0.000736317226582
0.00073737538657
0.000736323919166
0.000736321321838
0.000737373280634
0.000737370911387
0.000736315245111
0.000736313287785
0.000737100991999
0.000736305745034
0.000736659984176
0.000736658013015
0.000736195827499
0.000736193807205
0.00073321554458
0.00073321368897
0.000722132092048
0.000717641480979
0.000729888492603
0.000729886440468
0.000744710914125
0.000744710033472
0.000744484732997
0.000744484642685
0.000745311714481
0.000744501020627
0.000745375077471
0.000745378013435
0.000744501137572
)
;
        source          uniform 0;
        value           nonuniform List<scalar> 
60
(
790.40923281
790.360519685
790.100245622
790.100802187
789.981736016
789.98152537
789.927107043
789.927882908
789.919467925
789.919827724
789.922301916
789.922220893
789.924598118
789.924345251
789.924770079
789.924998354
789.920129527
789.92041925
789.909859447
789.909686835
789.89622647
789.896403221
789.882988859
789.883418684
789.871216279
789.86989699
789.857995128
789.853711801
789.845223175
789.844443027
789.839108246
789.839438492
789.835864245
789.83621741
789.83356897
789.833234291
789.831323729
789.83162242
789.831300919
789.831009851
789.831736514
789.831597323
789.831198327
789.831307944
789.830770331
789.831329625
789.831628639
789.834703122
789.834508392
789.830770404
789.830613918
789.827717349
789.830512023
789.831125178
789.836878969
789.836979347
789.847284419
789.847271928
789.864166583
789.864305744
)
;
        kappaMethod     solidThermo;
        Tnbr            T.liquid;
        region          solid;
        otherPhase      gas;
    }
    procBoundary2to3
    {
        type            processor;
        value           nonuniform List<scalar> 5(791.597154766 791.461217625 791.189022368 790.779916021 790.232959007);
    }
}


// ************************************************************************* //
