/*--------------------------------*- C++ -*----------------------------------*\
| =========                 |                                                 |
| \\      /  F ield         | OpenFOAM: The Open Source CFD Toolbox           |
|  \\    /   O peration     | Version:  2312                                  |
|   \\  /    A nd           | Website:  www.openfoam.com                      |
|    \\/     M anipulation  |                                                 |
\*---------------------------------------------------------------------------*/
FoamFile
{
    version     2.0;
    format      ascii;
    arch        "LSB;label=32;scalar=64";
    class       volScalarField;
    location    "0.79/water";
    object      alpha.gas_0;
}
// * * * * * * * * * * * * * * * * * * * * * * * * * * * * * * * * * * * * * //

dimensions      [0 0 0 0 0 0 0];

internalField   nonuniform List<scalar> 
1497
(
0.841991491849
0.836847807346
0.806218001716
0.722064558277
0.572145820152
0.402965276712
0.273121522079
0.222320598352
0.220166658537
0.22019565714
0.220519965956
0.220468798903
0.220161851839
0.867795916728
0.846148799301
0.837165074517
0.83592056958
0.839034557168
0.843817984159
0.845678690634
0.845713887013
0.842134651843
0.815358828297
0.745663803615
0.630000575797
0.48282553031
0.333469248177
0.233471199862
0.220088788358
0.220028385803
0.220063821359
0.220197774826
0.220186398514
0.868236381371
0.844408600372
0.831432140695
0.827106426358
0.832507913533
0.8408318563
0.844925442465
0.845254488404
0.840419448611
0.812536245069
0.744475016335
0.635922125365
0.502668564049
0.362409623992
0.247155350721
0.220014500591
0.220037317275
0.219928255198
0.219997236291
0.220038596143
0.867795916728
0.833827824721
0.812445494609
0.803900214899
0.811819240157
0.826302713874
0.835677094391
0.836438276949
0.827949067972
0.795814589575
0.729408894927
0.628027590046
0.500133744808
0.36281456948
0.248270705981
0.220037317275
0.219837078845
0.219997236291
0.219803030717
0.219953521712
0.86754778884
0.805696819285
0.782662979464
0.774027903291
0.782473028918
0.798185396984
0.809215333414
0.808928188485
0.794796507502
0.756082400806
0.689511865617
0.595798983067
0.47740084051
0.346301092268
0.240026422994
0.219894547747
0.219997236291
0.219613761177
0.219953521712
0.219709283716
0.84397071313
0.75979160103
0.749208338536
0.747869093068
0.755515851655
0.763149484835
0.765205309182
0.758214667466
0.736178119651
0.691552455911
0.62399253978
0.533788679345
0.421226822144
0.298895901486
0.22378165962
0.220037317275
0.219606017156
0.219997236291
0.219495095562
0.219953521712
0.783025766289
0.706329672358
0.716264903526
0.728625011987
0.73505069836
0.726668773105
0.705727614805
0.682064131873
0.651300930135
0.603626865616
0.534867755761
0.443936455082
0.334060027735
0.238905482198
0.220088788358
0.219677321585
0.220037317275
0.219351371952
0.219997236291
0.219500662165
0.698039984902
0.662380218402
0.687848821288
0.715724611629
0.718095459445
0.683168449774
0.625839030174
0.581983426202
0.543033935047
0.491636772189
0.420930910795
0.331205306999
0.245425119355
0.220149296391
0.219818897709
0.220088788358
0.219267221026
0.220037317275
0.219231186168
0.246740011652
0.633424886415
0.635046300477
0.673006420931
0.707861993015
0.702474262247
0.630428304891
0.527799101234
0.459985066721
0.412763987381
0.358628133205
0.293975462679
0.236631953042
0.220266935682
0.21991754638
0.220149296391
0.219216265443
0.220088788358
0.219206200778
0.257728131055
0.33036631109
0.623567001935
0.630173394128
0.672407688485
0.703876985404
0.691311357145
0.591398862057
0.445536630643
0.346437944233
0.286335694991
0.246025272596
0.223650288046
0.22029938189
0.219841919675
0.220266935682
0.219227789081
0.220149296391
0.219163721871
0.284107084996
0.375684842822
0.386886772617
0.62333134646
0.644992135894
0.683715505764
0.705422899352
0.689280653959
0.592927391389
0.438270001991
0.3184224412
0.24271716331
0.220304084501
0.220337995755
0.219791025972
0.22029938189
0.219267754662
0.220266935682
0.247464196802
0.339584804677
0.441597907399
0.446720002806
0.392364911458
0.651839617664
0.696679355685
0.713162090234
0.715981163119
0.698199549128
0.624226244333
0.483109121869
0.348501610552
0.258151650166
0.223742723273
0.219925708892
0.220337995755
0.225617399803
0.255215928245
0.320026294035
0.430739908643
0.525382100538
0.525453770748
0.458816109313
0.389841489424
0.729266772132
0.748854945223
0.745916479592
0.739218055536
0.725189385107
0.687388117598
0.600541201473
0.473593927601
0.35351971753
0.283318385784
0.266881069054
0.279985253435
0.339726018695
0.44521304123
0.546922972945
0.607571042576
0.601923584704
0.54220639116
0.460725804632
0.387778809049
0.775478772649
0.768748247046
0.762361151275
0.758954444491
0.754014502265
0.741668807763
0.70810028354
0.635710223317
0.531117487804
0.448433515932
0.432859567525
0.466928533903
0.557519725234
0.639248049991
0.668015330185
0.659495475588
0.616925398388
0.546581058291
0.461513631313
0.385473276849
0.77518222733
0.768181212726
0.764512282785
0.764488153941
0.764454706134
0.76272583106
0.748722483972
0.711170308042
0.651760279948
0.606405518467
0.603755717768
0.630164123372
0.672576003299
0.685986052213
0.686118462508
0.666823506103
0.61908177584
0.546012525643
0.45812512597
0.378111672687
0.775821923897
0.76119035708
0.761978610367
0.764459711363
0.764443378202
0.764424352195
0.75265965171
0.717733121393
0.673449752079
0.64754078433
0.648826330813
0.664008979847
0.684296909354
0.686118462508
0.686077703303
0.66462262955
0.613259521529
0.534431694917
0.441294288817
0.360337874511
0.77518222733
0.744032780118
0.753713186858
0.761502533946
0.764234474864
0.763121839523
0.748762068411
0.712946445442
0.669497732982
0.644939210319
0.646254960456
0.659897586216
0.67760575793
0.681172135168
0.676001445178
0.64763427941
0.587971603732
0.501579149926
0.406398350713
0.332489033375
0.775420595185
0.721593761097
0.742023785348
0.752292922235
0.75693356038
0.750991447392
0.728683992134
0.688179445608
0.645800472542
0.623504814797
0.624428181263
0.635403000838
0.649531174982
0.653627808965
0.642978023214
0.606217451699
0.538520006489
0.44847430918
0.359010092622
0.301570360008
0.756855075924
0.705111091967
0.729540812584
0.736442192503
0.73463751934
0.712157862331
0.672664757859
0.62664209745
0.587356156749
0.568514993574
0.569711525996
0.579866236981
0.592780055075
0.595917805652
0.582495392925
0.540243081646
0.468463867278
0.382246173076
0.309524124462
0.276572408134
0.7078130284
0.695318094643
0.716181379846
0.717018372355
0.690653150422
0.629244155601
0.573793593634
0.525504326868
0.490887243236
0.477924707873
0.481639831319
0.495564594032
0.51088502006
0.512401548059
0.497828430957
0.45390531427
0.384230651682
0.312529486589
0.270822353321
0.26204493278
0.666260526514
0.683477437988
0.705849035585
0.698557054716
0.619640426161
0.508316677381
0.443654441545
0.39851308422
0.370761852915
0.365884657926
0.373357421074
0.392568056137
0.411734822649
0.412749621128
0.398865870497
0.361697233515
0.308670283767
0.264783952313
0.252331085623
0.253781895571
0.666187033901
0.673559525836
0.700632911391
0.688044658004
0.550814487299
0.394780253648
0.326676578638
0.299528616315
0.290512110345
0.290484699898
0.294101077393
0.304586021561
0.318979798822
0.324174405663
0.320313982764
0.305937558865
0.28151586324
0.256855291254
0.244142864764
0.247467697976
0.666260526514
0.68935636271
0.704888834786
0.684000990289
0.553456133017
0.382122775181
0.299460094945
0.284434666059
0.284626379172
0.284338926461
0.284626379172
0.28437035519
0.284626379172
0.291731930802
0.304515484217
0.300924246131
0.282818928852
0.259529096899
0.243886000605
0.240925602033
0.688344090547
0.738676273282
0.728950856486
0.695290130201
0.596028312842
0.438644244637
0.332482647499
0.290885679281
0.284030836713
0.284626379172
0.284006999213
0.284626379172
0.284192086809
0.298589564152
0.314829346375
0.313346960935
0.298606826298
0.27318372963
0.247186693557
0.233550571522
0.776403119836
0.80167339749
0.774846452593
0.735827956926
0.677754751781
0.581781680436
0.473080887711
0.385839205195
0.332656831487
0.308592425898
0.301379538361
0.304778251608
0.320236210502
0.348575553502
0.364635018349
0.362330798954
0.34217237747
0.303584983168
0.257751348433
0.227611814413
0.8554657672
0.845587637317
0.815096747947
0.784102347994
0.755469962373
0.717404918255
0.659085802833
0.58283905088
0.505978221184
0.447233756143
0.417931580704
0.418233138438
0.434516726454
0.452768528369
0.451836453024
0.43036651647
0.387109050392
0.327676685122
0.264948410245
0.219578201065
0.878620350144
0.860630798747
0.831771933104
0.808086868954
0.791915000875
0.775973098796
0.752339715702
0.716274018532
0.669104989949
0.61914069558
0.581133868964
0.560917822111
0.548302861083
0.529797215235
0.497269312355
0.451127646158
0.393229403188
0.326854757728
0.258915015224
0.203069642715
0.878224961571
0.863258647454
0.834070865265
0.811437534605
0.797582383094
0.784750381298
0.766732837126
0.74091373473
0.708992962263
0.673219161378
0.637307415996
0.604008751166
0.571565929407
0.536259545976
0.494806733532
0.442188514894
0.377133453008
0.302042082785
0.227789495266
0.187558902899
0.87872761869
0.863669677389
0.832174605784
0.808045426648
0.794256136048
0.781660910844
0.763345876289
0.737204353506
0.705422151209
0.670030863984
0.633685085607
0.597964023077
0.560744468578
0.517568671476
0.463490900262
0.396726423405
0.318748982854
0.239367061322
0.190033096314
0.186860296691
0.878224961571
0.861800446964
0.824171150098
0.794155781643
0.778018194139
0.765000533405
0.744920121085
0.715923868041
0.680913580992
0.642809891421
0.60308562654
0.560648604593
0.512105084787
0.453616160775
0.383671945084
0.305136878216
0.229961700401
0.189277260963
0.186860302951
0.187163922298
0.87863504167
0.853046027806
0.804058841156
0.763615586899
0.740742813874
0.724362377721
0.698787368238
0.662833316278
0.621049824116
0.576711343861
0.529679379503
0.47690827274
0.41538672186
0.345039407662
0.271435331861
0.210769682797
0.187402281479
0.186886439304
0.187163922298
0.294894065911
0.878224961571
0.833396752337
0.768110243713
0.712391820317
0.680447942949
0.65683459922
0.623080274759
0.578547557682
0.528397727015
0.475723184838
0.419393814014
0.357431060702
0.291610424579
0.231590071232
0.194587247516
0.187163922298
0.186774810568
0.187163922298
0.253959591755
0.54805905632
0.876829706622
0.799060972755
0.718916037983
0.644122485501
0.604134166637
0.569879943746
0.52545525642
0.471909988727
0.413810782791
0.3534462296
0.29246068551
0.237454856942
0.200558302132
0.1876092525
0.187163922298
0.186697824884
0.187163922298
0.245559701903
0.484594719331
0.633321319477
0.862277226093
0.750891956194
0.667035256579
0.577752017419
0.521742522586
0.472151402165
0.415331338808
0.35233136106
0.288963132055
0.23415862985
0.19961758279
0.187783168528
0.187069823794
0.187163922298
0.186634699714
0.187163922298
0.232353969459
0.464332697382
0.596750906552
0.61824179116
0.817756526918
0.705918727661
0.621562483957
0.525778250429
0.447411589816
0.378329004413
0.308487405348
0.241525917208
0.198570062713
0.187313432487
0.187163922298
0.186803741696
0.187163922298
0.18643087923
0.187163922298
0.203947284822
0.415438397718
0.590017602358
0.596871317838
0.591594042763
0.749319542341
0.672806684339
0.588980536583
0.489962852802
0.393676270684
0.307162220583
0.232923185617
0.190526453424
0.186999480097
0.187163922298
0.1864342287
0.187163922298
0.18605992316
0.187163922298
0.185894728568
0.314417341259
0.547562538079
0.596224674158
0.596824720338
0.580739452396
0.693771368287
0.634905822261
0.556664103382
0.459537291625
0.35890634556
0.268885207198
0.203905530469
0.187094661954
0.187163922298
0.186324722735
0.187163922298
0.185714179138
0.187163922298
0.185576070213
0.222209889651
0.44101027392
0.554037821627
0.582965436672
0.586595083531
0.576550195193
0.662492831591
0.583888760642
0.508646250578
0.419528411545
0.327690206849
0.247068759491
0.19475607955
0.187163922298
0.186533593768
0.187163922298
0.185621196154
0.187163922298
0.185377393105
0.187163922298
0.321058701514
0.459330472454
0.519906806155
0.539909820593
0.555962424139
0.566113196446
0.219992883624
0.219882655525
0.219953521712
0.234791626831
0.361230169845
0.467950657981
0.480430933128
0.464519197303
0.435475882176
0.47663021474
0.586342958628
0.585737478304
0.586994786701
0.586061834161
0.586573095192
0.58636886478
0.587607732919
0.586683938439
0.58707788405
0.103978248345
0.220003775052
0.219953521712
0.219818685988
0.219914533625
0.278976462913
0.413186016443
0.474569907824
0.484053556205
0.523717132995
0.586348875384
0.585428026618
0.586684679887
0.585737478304
0.585976880873
0.537935916613
0.491548013177
0.515458172707
0.586971407381
0.58636886478
0.0907679706315
0.220064004595
0.219889783198
0.219914533625
0.219811688083
0.235699818339
0.339799240097
0.444669491752
0.508583380025
0.582694812032
0.585101348427
0.586345149636
0.585428026618
0.585881433079
0.575780664027
0.505235687442
0.417549323462
0.381447005535
0.496240543715
0.586327476434
0.0711208456928
0.219900745402
0.219914533625
0.2198278767
0.219875592785
0.221251166326
0.2858532829
0.391538403922
0.499862696523
0.584787060319
0.586083150361
0.585101348427
0.585824130115
0.585428026618
0.55501722686
0.469216865136
0.364894676227
0.296124799075
0.396415506784
0.580086760866
0.0535804531052
0.219914533625
0.219850295696
0.219875592785
0.219810540873
0.219830033824
0.254108421136
0.326503289019
0.447788048985
0.580651554
0.584787060319
0.585934985445
0.585101348427
0.584306337726
0.524253499703
0.419808184186
0.309912605241
0.234450937564
0.330386315784
0.51137044443
0.0392599392065
0.219721570587
0.221341427851
0.222863492464
0.220279176168
0.219806707557
0.2312123728
0.264599161204
0.372170026873
0.552725999227
0.58576076876
0.584787060319
0.585234467889
0.571986459285
0.481322174745
0.360799107034
0.252081782173
0.179665410433
0.274257290527
0.408909136905
0.0327220879259
0.233634829841
0.245215529565
0.240017651054
0.226331404109
0.215460620617
0.208982549117
0.220929883114
0.303264838381
0.509479713582
0.584460426179
0.585440880809
0.584787060319
0.549708076604
0.429644755135
0.297643767699
0.196216225831
0.130694653258
0.219184692242
0.304820570352
0.0327351126381
0.286808669217
0.284035368113
0.26112285651
0.23168971813
0.208645232851
0.203418623171
0.203408732029
0.254686849342
0.461672769084
0.585135964635
0.584460426179
0.584656470209
0.520107361352
0.371313382516
0.235615008486
0.144744378586
0.0880698517063
0.161906309229
0.223261001075
0.0327167260115
0.3372354293
0.310711731298
0.273595057521
0.233148699169
0.205675009857
0.203384468663
0.203418623171
0.231785732708
0.430191014779
0.58414561899
0.584861703974
0.583157673599
0.481152953571
0.305324260035
0.176430315949
0.0973770204689
0.0531370099981
0.109686296099
0.168048916527
0.0327296796608
0.349513888815
0.312820675048
0.275533217751
0.232858503065
0.20465804015
0.203418623171
0.203358487738
0.233092677989
0.433548368746
0.584632480878
0.58414561899
0.573821923482
0.426049279647
0.23154118426
0.11928745999
0.0542009728308
0.0285595130371
0.0724748512424
0.133146931347
0.0327124546667
0.346872672075
0.311299234164
0.274432863386
0.232064571302
0.2042015863
0.203370206845
0.203418623171
0.243460740455
0.448030929865
0.583810767755
0.58407742379
0.546237884026
0.346822031283
0.155114819442
0.0651784436545
0.0213587690566
0.0157162735936
0.0534353987562
0.113977479368
0.0327260814469
0.343076014527
0.30834302125
0.27242094582
0.231404467979
0.204450244828
0.203418623171
0.207027800029
0.270217705409
0.469853648426
0.583839836867
0.580655206288
0.486022911731
0.244815944219
0.0867602997818
0.0248009622745
0.00895330267188
0.0101354157957
0.0473736051818
0.107075011971
0.0327104191866
0.339180325807
0.30438939161
0.269674702197
0.231028218497
0.206166773727
0.206134348032
0.224164926946
0.312996760482
0.488918632546
0.581167426263
0.546161629497
0.378270751184
0.13778294212
0.0350170779292
0.00793261393742
0.00680889262237
0.00877569330704
0.0479826802085
0.112261801153
0.0327254687688
0.334048266715
0.298888077052
0.265513053897
0.231042977371
0.211884278989
0.217648960753
0.255929087278
0.362066692586
0.488914560416
0.543380759937
0.454109809541
0.232149401345
0.0509962277539
0.00895617918633
0.00575245104419
0.0062325659755
0.00869839185528
0.0531968342442
0.139544540792
0.0327088971393
0.325167455091
0.290995762087
0.259926312088
0.231786406202
0.223968405026
0.239089142178
0.295571188075
0.403580471672
0.475109692392
0.456758054658
0.300075387932
0.0956796992013
0.0104342379165
0.00571888203007
0.00571873561353
0.00605322888762
0.00847776605163
0.051825900034
0.194231937164
0.0327260584091
0.311025948985
0.281113197069
0.255914470419
0.2367660078
0.240833839491
0.267976894639
0.334868777879
0.414705680171
0.436310630737
0.331870388237
0.135980903554
0.0220435628452
0.00569412621156
0.00568927241426
0.00571888203007
0.00578608609548
0.00826707741382
0.0514832224874
0.221258944085
0.033642098259
0.293738401812
0.271652246036
0.25575288506
0.248689493379
0.260832409341
0.296386921659
0.361431806548
0.410844802106
0.368015610506
0.189157831446
0.0397472490801
0.0058609703912
0.00566719842324
0.00569412621156
0.00567310804543
0.00571888203007
0.00824388084084
0.087436345275
0.220934823258
0.0413757658191
0.27830482887
0.266146986982
0.258490394902
0.262471188179
0.280378238989
0.31567089758
0.365987454493
0.388812075233
0.274095742039
0.0807724207388
0.00940276971259
0.00564721493084
0.00567385835503
0.00563092104612
0.00569412621156
0.00568497662981
0.00915640597792
0.166558693398
0.221170370514
0.02930886067
0.268500805849
0.264998208846
0.264842571044
0.273073718372
0.290154752368
0.320385993667
0.360894951056
0.340479737943
0.173425896938
0.0296966031901
0.00565905422066
0.00564976220578
0.00561619407001
0.00567385835503
0.00561336562233
0.00569412621156
0.0271900101382
0.22130222277
0.220757518529
0.0104525130068
0.262879741528
0.264649897522
0.268384201959
0.276264766982
0.290292260395
0.316731192791
0.341247119444
0.274931790894
0.0961916051053
0.0124186760758
0.00564538724308
0.00561619407001
0.00565355239209
0.00558762195252
0.00567625585885
0.00574647676509
0.125239120181
0.220620337904
0.221238642813
0.00463192045314
0.258377829155
0.263040474411
0.267722379597
0.27457204746
0.285028404302
0.300905931785
0.30553466113
0.214220255551
0.0578156158128
0.00794278639576
0.00561619407001
0.00564329338142
0.00557420294654
0.00565766822149
0.00557989287807
0.0320238462963
0.220462431066
0.221254586749
0.190895545351
0.0030840570475
0.252548369303
0.257633486231
0.262090748027
0.265797380803
0.26881138641
0.27169260612
0.264750192748
0.181956032874
0.0517539628181
0.00748515881986
0.00563452139357
0.00557809412001
0.00564475956013
0.00557183641524
0.0111145482717
0.169866277511
0.221254586749
0.220431006928
0.155873174254
0.00307782027865
0.243581361112
0.246564052698
0.248051527559
0.246668821254
0.242006060315
0.237203550846
0.231529650281
0.181622027082
0.057781619232
0.00842886750654
0.00561127243461
0.00563868213963
0.0057249565958
0.0336885986101
0.119224888262
0.202412706294
0.220339807367
0.22109653146
0.202156695039
0.00440111293931
0.231128475378
0.229163415242
0.224940974344
0.218276475784
0.212015457454
0.211670798618
0.225299674607
0.209506542926
0.100991537759
0.0212765922899
0.00947947214256
0.0201563237635
0.125583332801
0.166706159223
0.165528451602
0.125624399755
0.101689704117
0.211400306108
0.320676632756
0.0295054705473
0.214462710467
0.204820690669
0.195665685173
0.19301784348
0.193369290683
0.215560342193
0.278859199896
0.35451982772
0.297951292608
0.148077951726
0.11201646668
0.220065588878
0.254577236895
0.179266980477
0.0976835312492
0.0384877123896
0.0208311601841
0.139211721771
0.374938519164
0.117751227365
0.194570867255
0.187386798761
0.187344584966
0.187638038659
0.238193374642
0.385781837392
0.546211237387
0.643899185408
0.636727371258
0.530649684479
0.454069602627
0.440292631527
0.254526743523
0.105540799587
0.0333024413391
0.00971829003451
0.00254597987913
0.0626595322377
0.375497135255
0.180533257358
0.187163922298
0.187106609077
0.188439773095
0.290731527294
0.540009072193
0.710954386349
0.747553556002
0.746679865399
0.748257580341
0.74148923159
0.673421040123
0.495308083658
0.220729480666
0.0561020097972
0.0107935054226
0.00136616545503
0.000297803869233
0.0364570838661
0.375238426926
0.163208861571
0.187106609077
0.191018273047
0.337696389686
0.636652501512
0.746679865399
0.749578922518
0.746679865399
0.749909949978
0.746679865399
0.748260310786
0.695794543811
0.476153309935
0.171031727929
0.0270686407927
0.00168952255497
4.60585195755e-05
0.000345218556964
0.0352747696342
0.300600700315
0.160490180684
0.191054907177
0.355555714228
0.670937067823
0.746679865399
0.749427143796
0.746679865399
0.749870106363
0.746679865399
0.749190686187
0.746679865399
0.679242315281
0.414781353025
0.114877376744
0.0092448630292
9.86191656276e-05
9.70168891789e-06
0.00031002433203
0.0272498969367
0.225662563736
0.160308052405
0.341368163107
0.668455827255
0.746679865399
0.748988681206
0.746679865399
0.749605784274
0.746679865399
0.749627980578
0.746679865399
0.747552810463
0.642506190117
0.337806248336
0.0669117650463
0.00240298700768
1.12879161943e-05
8.87396556201e-06
0.000159354471879
0.0180289165865
0.179152770978
0.160122854235
0.631890032759
0.74655312258
0.748449412047
0.746679865399
0.749061994522
0.746679865399
0.749333735291
0.746679865399
0.74829360734
0.746585126881
0.582468565415
0.246885982774
0.0309834394003
0.000441652734534
8.85853010431e-06
8.87110989852e-06
7.23045932323e-05
0.0124045830058
0.159762576915
0.159939624039
0.727269507936
0.747298899317
0.74655312258
0.748189829533
0.746679865399
0.748638079381
0.746679865399
0.748764079023
0.746585126881
0.709732103595
0.474362547016
0.143798958399
0.0094038711354
4.35645992649e-05
8.87110989852e-06
8.85186736026e-06
2.98010480894e-05
0.00757511794859
0.160174796154
0.160112797264
0.70681081919
0.745958601579
0.747269746784
0.74655312258
0.747911080264
0.746679865399
0.748028952318
0.746585126881
0.746472322412
0.615817524726
0.314437615237
0.055217455939
0.00140178754472
8.89639928175e-06
8.85193212793e-06
8.86523464883e-06
1.26872227145e-05
0.000997300056776
0.19316162649
0.16028368025
0.645935061545
0.706691479064
0.733929531324
0.746643272361
0.74655312258
0.747114459814
0.746585126881
0.7471370703
0.68016836758
0.445817124234
0.141634362083
0.0103743077257
6.56888811888e-05
8.85699791369e-06
8.87110989852e-06
8.82035216305e-06
1.18822926153e-05
1.24574044045e-05
0.25073679757
0.176435276312
0.586847541916
0.63303668244
0.676625410286
0.709226457826
0.733188078729
0.743334836202
0.743629666819
0.69139643392
0.50756611916
0.220112771186
0.0306169663358
0.000593789883787
8.86349358918e-06
8.8779304937e-06
8.82993820261e-06
8.87110989852e-06
9.21978747171e-06
5.32317054721e-05
0.410393655197
0.317245255298
0.568096249306
0.575663394058
0.603641435992
0.642125325756
0.681956381833
0.703383196523
0.684407095307
0.5161798301
0.250912774876
0.0491556689677
0.00185491635334
1.19462272658e-05
8.88471470571e-06
8.8466034561e-06
8.8779304937e-06
8.81325613263e-06
8.8779304937e-06
0.0172720048088
0.504097009803
0.269172517795
0.567916024337
0.564754095682
0.571071310875
0.597069685909
0.627704745865
0.639806775437
0.535998032163
0.248163989195
0.0518913172615
0.0027323357441
2.36551488774e-05
8.89166426591e-06
8.85893250566e-06
8.88471470571e-06
8.81560486524e-06
8.8779304937e-06
8.8089658838e-06
0.174606254216
0.50313638924
0.122537641572
0.567612436555
0.565039722906
0.570997428238
0.590610611748
)
;

boundaryField
{
    emptyPatch
    {
        type            empty;
    }
    minY
    {
        type            fixedValue;
        value           nonuniform List<scalar> 0();
    }
    maxY
    {
        type            inletOutlet;
        phi             phi.gas;
        inletValue      nonuniform List<scalar> 0();
        value           nonuniform List<scalar> 0();
    }
    maxX
    {
        type            zeroGradient;
    }
    water_to_heater
    {
        type            zeroGradient;
    }
    procBoundary1to0
    {
        type            processor;
        value           nonuniform List<scalar> 
41
(
0.633216720326
0.510741048509
0.446123395087
0.370660582797
0.295947710567
0.229716955567
0.189673762519
0.186881509781
0.187163922298
0.185787464071
0.187163922298
0.18530239019
0.187163922298
0.236417732103
0.361756864046
0.422206289403
0.440811259812
0.465141577275
0.499786357226
0.536815819137
0.611758526583
0.59845654956
0.331608800018
0.0544258362501
0.00250542793823
2.72830275922e-05
8.8980011391e-06
8.87461394736e-06
8.89166426591e-06
8.83180298591e-06
8.88471470571e-06
8.81194512373e-06
0.00162470514628
0.450601454945
0.504217754552
0.0423314767266
0.560420333634
0.566135168168
0.575656093784
0.611758526583
0.592422411753
)
;
    }
    procBoundary1to3
    {
        type            processor;
        value           nonuniform List<scalar> 
41
(
0.801952269667
0.787365649951
0.728030740673
0.5954547608
0.421447848899
0.29464303664
0.234607681749
0.220739683489
0.220512629527
0.221038032653
0.221515100832
0.220510355568
0.220063798377
0.862541714333
0.845188873304
0.835795121293
0.835577827864
0.837279187775
0.839612971232
0.841111074458
0.841111074458
0.219946929593
0.219992883624
0.21993606739
0.297795794126
0.446017781138
0.480586268776
0.480351087289
0.451392048249
0.384300541358
0.314957193362
0.340302200214
0.513970716605
0.586061834161
0.587517955171
0.58636886478
0.587881381983
0.586683938439
0.587983457845
0.586683938439
0.0980271694467
)
;
    }
}


// ************************************************************************* //
