/*--------------------------------*- C++ -*----------------------------------*\
| =========                 |                                                 |
| \\      /  F ield         | OpenFOAM: The Open Source CFD Toolbox           |
|  \\    /   O peration     | Version:  2312                                  |
|   \\  /    A nd           | Website:  www.openfoam.com                      |
|    \\/     M anipulation  |                                                 |
\*---------------------------------------------------------------------------*/
FoamFile
{
    version     2.0;
    format      ascii;
    arch        "LSB;label=32;scalar=64";
    class       volScalarField;
    location    "0.79/water";
    object      T.gas;
}
// * * * * * * * * * * * * * * * * * * * * * * * * * * * * * * * * * * * * * //

dimensions      [0 0 0 1 0 0 0];

internalField   nonuniform List<scalar> 
1497
(
301.107610573
300.642197058
300.435030645
300.327867049
300.25380462
300.194585841
300.14183673
300.093601332
300.05172496
300.021781248
300.006774334
300.001638654
300.000331593
593.599846862
406.260309827
342.649125297
318.928423852
308.984748431
304.400226138
302.20530691
301.177592243
300.707350579
300.482392596
300.361180741
300.280788335
300.216790569
300.161023764
300.11002434
300.064171254
300.029721032
300.010554266
300.00298065
300.000714296
596.587724813
401.305911157
337.131595407
315.523955329
307.331096923
303.723975098
301.97799005
301.123894693
300.708708649
300.496812698
300.376415168
300.295675084
300.229885195
300.172557312
300.12070899
300.072885638
300.035803756
300.013876561
300.004376822
300.00120019
593.529830101
391.742031193
330.313260261
311.536759782
305.321803674
302.815922012
301.603280757
300.982024833
300.660499135
300.484063728
300.376870589
300.300862409
300.235585327
300.177992649
300.125825441
300.07730066
300.039308957
300.016181845
300.00559004
300.00173196
585.362920714
380.158331038
323.45894942
308.011849415
303.579988192
301.989421397
301.234589995
300.827345601
300.597088045
300.460582146
300.372032691
300.299490125
300.235777361
300.178894936
300.126688627
300.078154775
300.040558542
300.017568575
300.006617357
300.002324535
559.559134254
367.439187619
317.981411853
305.504693551
302.36115044
301.38948909
300.95719626
300.707473185
300.545177951
300.44153426
300.362515269
300.293964125
300.232530684
300.176796673
300.124109482
300.076461198
300.040362622
300.018410076
300.007633687
300.00302937
497.127909748
360.571557661
318.179053718
305.567256938
301.810366775
301.088236897
300.789515449
300.620039427
300.505375352
300.42216444
300.350963524
300.286555133
300.227576258
300.172168257
300.119080822
300.073240712
300.039490392
300.01919555
300.008776277
300.003897413
441.866240194
354.806565048
318.8900184
305.86637249
301.650905947
300.920190583
300.683159206
300.561539582
300.476026411
300.404847021
300.339639344
300.278759549
300.220997428
300.164940245
300.113201327
300.069754492
300.038832552
300.0202007
300.010147501
300.004923171
412.192267359
346.60834121
317.672807304
305.604960506
301.60023308
300.837825442
300.623456472
300.525653303
300.454410645
300.390182075
300.328990119
300.269834245
300.212280197
300.157504097
300.107719386
300.06715373
300.038786366
300.021581545
300.01176085
300.00625749
400.983999331
341.809588063
316.531486335
305.514109376
301.631926061
300.819628852
300.596422469
300.50555262
300.439255208
300.377876362
300.318418425
300.260645845
300.204752046
300.151765984
300.104300397
300.066020182
300.039556206
300.023596241
300.014037241
300.007825974
397.499039592
340.258388871
316.017834859
305.251000249
301.829619576
300.904700073
300.615764846
300.504104824
300.432304458
300.370067142
300.311587137
300.255322575
300.201043377
300.14970709
300.103526003
300.066702693
300.042003895
300.026695282
300.01663329
300.009562075
403.026899061
342.870111065
314.389720792
304.818778253
302.278120323
301.24038245
300.776023303
300.559496924
300.447555162
300.373306317
300.312308703
300.256113551
300.202460967
300.15160988
300.10558527
300.069609846
300.045779005
300.030468078
300.019586256
300.011442539
428.295630446
351.643392296
319.136876141
306.897901109
303.498889777
302.084853776
301.231758813
300.756998898
300.517790306
300.396871446
300.322117827
300.262187856
300.207000448
300.155067809
300.109285148
300.074356185
300.051031935
300.035044076
300.022848376
300.013501465
460.43499003
363.627496325
325.516784426
310.385137593
305.288917126
303.035810045
301.796544028
301.021102219
300.615612674
300.430381841
300.33542296
300.269710133
300.212711639
300.160312274
300.115425283
300.081356044
300.057555333
300.040040822
300.02630174
300.015721682
473.101623795
369.725707845
328.778175033
312.390683381
306.161755079
303.383312352
301.923331733
301.091982442
300.635453073
300.439288915
300.341327293
300.274630911
300.21770064
300.166221439
300.122727465
300.089029838
300.064034226
300.044900592
300.029754151
300.018059069
476.893805493
369.412203316
327.68637045
311.674681298
305.557583297
302.936636635
301.636510901
300.935189595
300.583004575
300.425660166
300.33868015
300.275171923
300.21998601
300.170497727
300.128541758
300.095224705
300.069471089
300.049281027
300.03312493
300.020529464
476.188888801
363.540782457
322.586579821
308.747231312
304.041427266
302.15021557
301.240475865
300.755861688
300.525106121
300.407117816
300.331955123
300.27236752
300.219460913
300.172221288
300.132011634
300.099538252
300.073868208
300.05331797
300.036551709
300.02323178
471.094081536
350.980931874
315.437532335
305.75481529
302.706207056
301.549409066
300.978684368
300.632939422
300.479828802
300.389403574
300.323477355
300.267524083
300.2170699
300.17214508
300.133900828
300.102790759
300.077859409
300.057426357
300.040287708
300.026327293
451.784736188
341.669441623
311.089632429
303.735004388
301.909419263
301.159512924
300.774165493
300.5534342
300.446635473
300.373814931
300.314507676
300.26177898
300.213919066
300.171532153
300.135496005
300.106069372
300.082157759
300.062020193
300.044581815
300.030010226
429.980201872
345.825775038
311.596123826
302.978177156
301.405686567
300.882983996
300.645860292
300.506072935
300.424627847
300.361708729
300.306639577
300.256643675
300.211488444
300.171847694
300.1380538
300.110262745
300.087298412
300.067403508
300.049655439
300.034502657
413.064715306
344.412983056
311.647926208
302.611953566
301.111953224
300.733149881
300.578988472
300.482105911
300.412353777
300.354105072
300.301561769
300.253852742
300.211263888
300.174235447
300.142466171
300.115958925
300.093683705
300.073913891
300.055830781
300.039987568
406.350940997
342.938852027
312.241683143
302.53279189
300.990647527
300.671217832
300.553484449
300.474575561
300.409492934
300.352462295
300.301340959
300.255347679
300.214743681
300.179651622
300.149379189
300.123729739
300.101795678
300.08189939
300.063281166
300.046432958
403.595859645
339.542107531
310.796271327
303.115586914
301.22298284
300.708077134
300.565564918
300.483846799
300.417896248
300.359418082
300.308319221
300.262971596
300.223237465
300.188904975
300.159283983
300.133849265
300.111640663
300.09112715
300.071580321
300.053356374
408.89413194
339.536595397
310.918175467
304.515794049
302.107161258
301.116399944
300.70852844
300.536935542
300.444628674
300.378378011
300.323997763
300.277204958
300.236758124
300.201921507
300.171884557
300.145773998
300.122513468
300.100689011
300.079646407
300.059690936
450.486937492
351.895882902
316.47430796
307.62277835
304.269079039
302.407325594
301.356321423
300.812971396
300.554935734
300.428495934
300.354130492
300.29991998
300.255709656
300.218158039
300.186075511
300.158094125
300.132796488
300.108906088
300.08587019
300.063978031
527.662158335
374.893565347
327.233900968
313.266360395
307.545796961
304.546191228
302.634958069
301.461564215
300.840858974
300.547641393
300.408622225
300.331141471
300.277375353
300.234865456
300.199275557
300.168236789
300.140006899
300.113472506
300.08819315
300.064577542
575.160529452
396.025177686
337.923920014
318.587394964
310.32400893
306.00839402
303.478604095
301.948737238
301.083794081
300.656523354
300.459247701
300.35831205
300.294542164
300.246574644
300.207013961
300.172565336
300.141325166
300.112248849
300.085139864
300.060624583
594.469518073
405.771768948
342.003209001
319.794770216
310.443182277
305.793356858
303.236644279
301.801857039
301.032246875
300.650799886
300.466409834
300.365378561
300.298824348
300.248000775
300.205792161
300.168937601
300.135629259
300.105042221
300.077188797
300.052550237
599.181825316
402.965074226
337.83811856
316.361319999
308.119541925
304.340486209
302.399735761
301.376958201
300.854177352
300.590434289
300.445189054
300.355059006
300.290590181
300.239499485
300.196467684
300.158721869
300.12470018
300.093680878
300.065554337
300.042776117
587.749323712
390.327031362
329.952200029
311.489187989
305.347485935
302.846191423
301.61487349
301.023385182
300.706094195
300.525729511
300.413609926
300.335186477
300.274694605
300.225075581
300.182644878
300.14511098
300.110915016
300.079341637
300.052958002
300.03380164
567.357673301
373.718055471
321.163158286
307.519328459
303.469844958
301.879853649
301.149499493
300.798942813
300.598745991
300.47202104
300.382425927
300.313150807
300.256669825
300.209046163
300.167521452
300.129828493
300.095023556
300.065281065
300.042449428
300.026530316
557.665141102
364.301267459
316.927369594
305.485504925
302.297626884
301.285853934
300.877777887
300.665285835
300.530731733
300.433550072
300.356867025
300.29348086
300.239844541
300.193274428
300.151494497
300.113865459
300.081095647
300.054467988
300.03478828
300.024522639
556.661562408
361.067201945
315.945739079
304.655166521
301.82175654
301.036579869
300.748620595
300.597693487
300.492681464
300.408615982
300.33777846
300.276872202
300.223795072
300.17735913
300.136874786
300.101529834
300.071597147
300.047672477
300.033792746
300.026157723
558.349461225
362.172745172
319.071519663
306.236946698
302.215228451
301.073635042
300.724951844
300.574718611
300.474992825
300.392971834
300.322129204
300.261099345
300.209105494
300.164735841
300.126897539
300.094587492
300.067142987
300.048751993
300.03750247
300.029722092
533.098353281
365.947064446
324.860522795
309.286074007
303.376167618
301.413140537
300.805658433
300.587992448
300.469638697
300.380863501
300.30838042
300.248228388
300.198426616
300.15727599
300.122873893
300.093660386
300.070866702
300.0556319
300.044216342
300.035231803
481.702008146
372.56818488
329.976797827
312.192709046
304.771131882
301.951045761
300.974375422
300.626581993
300.470305681
300.371697337
300.297826797
300.239522737
300.193195224
300.155842897
300.125239016
300.099690379
300.081128882
300.066279297
300.054028272
300.04335056
442.472749626
365.932216894
329.680347343
312.907253
305.406340592
302.29415908
301.100480744
300.653841702
300.469317732
300.364497189
300.291155664
300.236154198
300.193627758
300.160492958
300.13343661
300.11240218
300.09509076
300.079906814
300.066485959
300.053952531
419.631766761
355.459121421
325.528613536
311.440788799
304.986881862
302.203838597
301.079014021
300.643080384
300.460259703
300.358076908
300.288751485
300.237689937
300.199724969
300.170255465
300.147404765
300.12833975
300.111009616
300.09520419
300.080422528
300.0661565
300.00006047
300.000009913
300.000001769
300.000001392
300.000002053
300.000003578
300.000007799
300.000011603
300.000013909
300.000015378
300.000016168
300.000016814
300.000018341
300.000021288
300.000025063
300.000029224
300.000033632
300.000037527
300.00003918
300.000031769
300.000160287
300.000035764
300.000007457
300.000001582
300.000001088
300.000001352
300.000002981
300.000005495
300.000007422
300.000008882
300.00001004
300.000011348
300.000013529
300.000017075
300.000021909
300.000027088
300.000032019
300.000036017
300.000037867
300.000031524
300.00031823
300.0000888
300.000025522
300.000006689
300.0000014
300.000000701
300.000000917
300.00000145
300.000002188
300.000003369
300.000004825
300.000006403
300.000008692
300.000012659
300.000018269
300.000024588
300.000030658
300.000035169
300.000037032
300.000031694
300.000536184
300.000178281
300.000062342
300.000021196
300.000006006
300.000001187
300.000000471
300.000000029
300
300
300.000000759
300.000002107
300.000004344
300.000008686
300.000014957
300.000022332
300.000029385
300.000034584
300.000036649
300.00003207
300.000828515
300.000314628
300.000123821
300.000048235
300.000017343
300.000004933
300.00000093
300
300
300
300
300
300.000001145
300.000005661
300.000012498
300.000020912
300.000028828
300.000034668
300.000037104
300.000033028
300.001218445
300.000508284
300.000216829
300.000091674
300.000037495
300.000014234
300.000004513
300.000000271
300
300
300
300
300
300.00000395
300.000011014
300.000020373
300.000029097
300.000035635
300.000038484
300.00003445
300.001721351
300.00077858
300.000347736
300.000154042
300.000067913
300.000029854
300.000012553
300.000003494
300
300
300
300
300
300.000003063
300.000010312
300.000020691
300.000030368
300.000037803
300.000041104
300.000036629
300.002377127
300.001118862
300.000513722
300.000235354
300.000110025
300.000052611
300.000025415
300.000010441
300.000000899
300
300
300
300
300.000002518
300.000010191
300.000021846
300.000032851
300.000041623
300.000045495
300.000040416
300.003151251
300.001520391
300.000710235
300.000335735
300.000164377
300.000083219
300.000043335
300.000020947
300.000005475
300
300
300
300
300.000002136
300.000010697
300.000024031
300.000036999
300.000047689
300.000052339
300.000046467
300.004032528
300.001965326
300.000935325
300.000455855
300.000232453
300.000123191
300.000067301
300.000035226
300.000013289
300.000001332
300
300
300
300.000001932
300.000012014
300.000027515
300.000043715
300.000056893
300.000062472
300.000055524
300.004990363
300.002462619
300.001195905
300.000601873
300.000319164
300.000175852
300.000099455
300.00005445
300.000024988
300.000007743
300.000001225
300
300
300.000002117
300.000014378
300.000032686
300.00005445
300.000070158
300.000076761
300.000068331
300.006052596
300.003031193
300.001511123
300.000788389
300.000434123
300.000247486
300.000143906
300.000081545
300.000042467
300.000019412
300.000008544
300.00000267
300.000000018
300.000003045
300.000018089
300.000043011
300.000070181
300.0000881
300.000095921
300.000085568
300.00724542
300.00370707
300.001911033
300.001036527
300.000591353
300.000347666
300.000207329
300.000121622
300.000068754
300.00003885
300.000021971
300.000008767
300.000001752
300.000005462
300.000025368
300.000058796
300.000090636
300.000111297
300.000120514
300.000107894
300.008595228
300.004530403
300.002430122
300.001371393
300.000808705
300.000489115
300.000298978
300.000181849
300.000109463
300.000068962
300.000040906
300.000017386
300.000005737
300.00001028
300.000039398
300.000078601
300.000116252
300.000140799
300.00015131
300.000136238
300.010126621
300.005539616
300.003104267
300.001821037
300.001107557
300.000687604
300.000431118
300.000271066
300.000172046
300.000111765
300.00006468
300.000028057
300.000012525
300.000019138
300.000056129
300.000102921
300.00014712
300.000176114
300.000188976
300.000171082
300.011877828
300.006777641
300.003971546
300.002417498
300.001512158
300.000961702
300.000617861
300.000399553
300.000262021
300.000167768
300.000092495
300.000041783
300.000018361
300.000030445
300.000077473
300.000132105
300.000183505
300.000216391
300.000232366
300.000209608
300.013924306
300.008304258
300.005075673
300.003194585
300.002048457
300.001330446
300.0008722
300.000575889
300.000381406
300.000235478
300.000126195
300.0000568
300.000026501
300.0000458
300.000102879
300.000165574
300.000227747
300.000262734
300.000281805
300.000252997
300.01638568
300.010201226
300.006473549
300.004187304
300.002742054
300.001810035
300.00120367
300.000802609
300.000527016
300.000314171
300.000168544
300.000067202
300.000037952
300.000065577
300.000131783
300.000201933
300.000279334
300.000313644
300.000337624
300.000305039
300.019410771
300.012558709
300.008217449
300.005428084
300.00360892
300.002407945
300.001611934
300.001075737
300.000693952
300.00040625
300.000201411
300.000082417
300.000054731
300.000091136
300.000164061
300.000248069
300.00032928
300.000373189
300.000403377
300.000375513
300.023134232
300.015444066
300.01033481
300.006930185
300.004650695
300.003119798
300.002085937
300.001390333
300.000878568
300.000505856
300.000227709
300.000103025
300.000080078
300.000125016
300.000205381
300.000318516
300.000384343
300.000442089
300.000482525
300.000464213
300.027618375
300.018861123
300.012809962
300.008664414
300.005840512
300.003923779
300.002613736
300.001732558
300.001077636
300.000597878
300.0002587
300.000131591
300.000119055
300.000173464
300.000272306
300.000378063
300.000452633
300.000527805
300.000577787
300.000561889
300.032745475
300.022669078
300.015514506
300.010535804
300.007117572
300.004785455
300.003175331
300.002084661
300.001273189
300.000682195
300.000299158
300.000178817
300.000178829
300.000243841
300.000366642
300.000449805
300.000541213
300.00063924
300.000705072
300.000683163
300.038046032
300.026494887
300.018175473
300.012364423
300.008376519
300.005648215
300.003758725
300.002419312
300.001445699
300.000757212
300.000358648
300.000263545
300.000277636
300.000335166
300.000417018
300.000511902
300.000628382
300.000759701
300.000840989
300.000811953
300.042641794
300.02966631
300.020324418
300.013840524
300.009423108
300.006398993
300.004253147
300.002716406
300.001576864
300.000804772
300.000475916
300.000432212
300.000417602
300.000421423
300.000477969
300.000579669
300.000720478
300.000873504
300.000950471
300.00087744
300.045309085
300.031252514
300.021281517
300.014480553
300.009904339
300.006694493
300.004379296
300.002724032
300.001574026
300.000880377
300.00069179
300.000703286
300.000618918
300.000538811
300.000552206
300.000650714
300.000820158
300.000962917
300.001020103
300.000904064
300.044834008
300.030316599
300.020397815
300.013780072
300.009130458
300.005896884
300.003697681
300.002276155
300.001433025
300.00107687
300.001090959
300.001091735
300.00091762
300.000722564
300.000668972
300.000736593
300.000935076
300.001035642
300.001072943
300.000930547
300.040661481
300.026871587
300.017743634
300.011308983
300.007059411
300.004299508
300.002674116
300.001848142
300.001464165
300.001453304
300.001615481
300.001570385
300.001306571
300.001017343
300.000857457
300.000844407
300.00106314
300.001108406
300.001135673
300.000983575
300.034180147
300.022098531
300.013792621
300.008545814
300.005202147
300.003289328
300.002336037
300.001935031
300.001838872
300.00199985
300.002217318
300.002090053
300.001741871
300.001370686
300.001133415
300.000981329
300.001139286
300.001174716
300.001205957
300.001040101
300.027250156
300.017003638
300.010882143
300.006872877
300.004573396
300.003332356
300.002692501
300.002493435
300.002529635
300.002722977
300.002884971
300.002639851
300.002199215
300.001779245
300.001421647
300.001077277
300.001223742
300.00126711
300.001303657
300.001121148
300.021047911
300.014239422
300.009626779
300.006786592
300.005155218
300.004153442
300.003569723
300.003430707
300.003471264
300.003570183
300.003591483
300.003200515
300.002655579
300.002251821
300.001506797
300.0011697
300.001333605
300.001401227
300.001444191
300.001243936
300.018600949
300.013633028
300.010127785
300.007920082
300.006492639
300.005476432
300.004787388
300.00458783
300.004533741
300.004465096
300.004279366
300.003710673
300.003070962
300.002640942
300.001524658
300.001241747
300.001474061
300.001592683
300.00164557
300.001423273
300.018958388
300.014773521
300.011786479
300.009738357
300.008253113
300.007061896
300.006140208
300.00579444
300.005573198
300.005361676
300.004860809
300.004111103
300.003433338
300.002619891
300.001531517
300.00129565
300.001636333
300.001868896
300.001930349
300.001677604
300.02081509
300.016730122
300.013919309
300.011793957
300.010118277
300.008649878
300.007449962
300.006907075
300.006528028
300.006055164
300.005249471
300.004381434
300.00378683
300.002272631
300.001510402
300.001358702
300.001703451
300.002290716
300.002321482
300.002021673
300.023780474
300.019301158
300.016113533
300.01375599
300.011834764
300.010063044
300.008602377
300.007930324
300.007315539
300.006440453
300.005432878
300.004559967
300.003541552
300.002024834
300.0014797
300.001482676
300.001905159
300.00275175
300.00276514
300.002440217
300.02815435
300.022689002
300.018717027
300.01570617
300.013302221
300.011281804
300.009720457
300.008834815
300.007744933
300.006556043
300.005478641
300.004662896
300.002790529
300.001843534
300.001505613
300.001727185
300.002317415
300.003251019
300.003260586
300.002840752
300.034417301
300.027248997
300.0219881
300.018040561
300.014980633
300.012621135
300.010928966
300.009455119
300.007865548
300.006505392
300.005508064
300.003703247
300.002407802
300.001726101
300.001667801
300.002141802
300.003268562
300.003611794
300.003748015
300.003303604
300.042667027
300.033320556
300.026291276
300.021057512
300.01714549
300.014299674
300.012197371
300.009835361
300.007825727
300.006455175
300.004649603
300.003121886
300.0021449
300.001757586
300.002004777
300.002731486
300.003991637
300.004036283
300.004265431
300.003825354
300.052365414
300.040531609
300.03148881
300.024808468
)
;

boundaryField
{
    emptyPatch
    {
        type            empty;
    }
    minY
    {
        type            fixedValue;
        value           nonuniform List<scalar> 0();
    }
    maxY
    {
        type            inletOutlet;
        inletValue      nonuniform List<scalar> 0();
        value           nonuniform List<scalar> 0();
    }
    maxX
    {
        type            fixedValue;
        value           uniform 300;
    }
    water_to_heater
    {
        type            copiedFixedValue;
        sourceFieldName T.liquid;
        value           nonuniform List<scalar> 
60
(
789.815022298
789.845049233
789.846486165
789.844255555
789.842806836
789.802708544
789.798099781
789.693597294
789.58802066
789.539316247
789.477087571
789.4592753
789.451994529
789.449721045
789.44831712
789.477219026
789.476797286
789.54064358
789.551377894
789.638616269
789.673768227
789.772798846
789.778066328
789.90057207
789.900915399
790.034948034
790.032698456
790.167945203
790.148669397
790.283283534
790.260766528
790.393309409
790.391880552
790.512066165
790.511481651
790.620696177
790.622056907
790.718772762
790.757518716
790.930290056
790.969454111
790.948036547
790.95888224
790.901371145
790.903760561
790.819348097
790.813247514
790.701398796
790.696134801
790.601569219
790.600445679
790.49204462
790.486698408
790.350643642
790.299506423
790.127953164
790.10148307
790.111464684
790.105312001
790.137214165
)
;
    }
    procBoundary1to0
    {
        type            processor;
        value           nonuniform List<scalar> 
41
(
405.817448666
346.402865941
320.845190891
309.255590274
304.059788833
301.851480849
300.955197184
300.602573361
300.445812058
300.354356266
300.290801273
300.244863285
300.210825305
300.18526333
300.164203981
300.145229742
300.127585687
300.110804562
300.09445227
300.078252663
300.019910187
300.016394481
300.013467326
300.010191856
300.007996822
300.00571827
300.003988335
300.002762568
300.002026574
300.001962972
300.002545818
300.003560521
300.004583842
300.004623728
300.004828138
300.004418716
300.062291542
300.047879811
300.037053965
300.019910187
300.02893608
)
;
    }
    procBoundary1to3
    {
        type            processor;
        value           nonuniform List<scalar> 
41
(
300.892219425
300.512533789
300.356201152
300.274743547
300.215803977
300.164617029
300.117257935
300.07461888
300.038525495
300.014360101
300.003715394
300.000710662
300.000111533
572.858628115
403.91567991
344.91042606
320.818666949
309.874874911
304.660463973
302.20280727
302.20280727
300.000014617
300.000002148
300.00000123
300.000002579
300.000003382
300.000007966
300.000014198
300.000019297
300.000021976
300.000022486
300.000022726
300.000022926
300.000023548
300.000025716
300.000028865
300.000032521
300.000036518
300.000039983
300.000041094
300.000032996
)
;
    }
}


// ************************************************************************* //
