/*--------------------------------*- C++ -*----------------------------------*\
| =========                 |                                                 |
| \\      /  F ield         | OpenFOAM: The Open Source CFD Toolbox           |
|  \\    /   O peration     | Version:  2312                                  |
|   \\  /    A nd           | Website:  www.openfoam.com                      |
|    \\/     M anipulation  |                                                 |
\*---------------------------------------------------------------------------*/
FoamFile
{
    version     2.0;
    format      ascii;
    arch        "LSB;label=32;scalar=64";
    class       volScalarField;
    location    "0.115/water";
    object      epsilon.gas;
}
// * * * * * * * * * * * * * * * * * * * * * * * * * * * * * * * * * * * * * //

dimensions      [0 2 -3 0 0 0 0];

internalField   nonuniform List<scalar> 
1503
(
18.0919731918
2.85201086627
0.528434591042
0.123805460527
0.0400337419031
0.00792717846581
0.0020584913378
0.000923429477813
0.000610972087758
0.000500708426215
0.000454996507852
0.00043391325751
0.000423320992875
0.0004175313495
0.000414101104364
0.000411933360406
0.000410507600437
0.00040955597951
0.000408927458442
0.000408531009302
569.022253632
109.250080308
18.4777045512
3.8380762116
0.709278840606
0.201499201856
0.0454479979195
0.00826313555413
0.0020297970221
0.000895791367977
0.000599672054674
0.00049581594659
0.000452508267129
0.000432417979599
0.000422227457727
0.000416561819444
0.000413126064841
0.000410906712639
0.000409434802347
0.000408476552803
791.92060725
185.846433232
41.7155193168
8.86913915493
2.12485754944
0.482006501224
0.135716095586
0.0302703993203
0.0061599481636
0.00181476482654
0.000887690684925
0.000611576360901
0.000506070159803
0.000459587627086
0.000437255666478
0.000425690473704
0.00041917785224
0.000415187268431
0.000412590585117
0.000410877078122
1009.07715309
251.222774003
62.7174993729
15.3458619901
4.17656179162
0.922472430491
0.242394952041
0.0681418456993
0.0150189629571
0.00360334988189
0.00136472502536
0.000785728148636
0.000583567963463
0.000498097486224
0.000457946971795
0.000437760566408
0.00042691301713
0.00042060638343
0.000416649897181
0.000414058494756
1099.47192838
289.67141516
77.5900007025
20.983925412
5.42525959795
1.64168630055
0.349522686346
0.105053414119
0.0299725841738
0.00685500704372
0.00211545973446
0.00102824735905
0.00068543585054
0.000547737375542
0.000484311225127
0.000452784690381
0.0004361982613
0.000426894057285
0.000421274472805
0.000417672412055
1079.62802374
301.736713258
86.5291035781
25.3242335848
7.29730739988
1.93774026222
0.58828900428
0.130115698103
0.0466614247089
0.0126702714521
0.00333873504671
0.00136579662641
0.000814990163305
0.000608673185051
0.000516301065717
0.000470776967453
0.00044699039869
0.000433877211421
0.000426172621862
0.000421354687413
1023.33966612
297.383950488
89.8921651543
28.022571766
8.75183272649
2.6137200789
0.689073492036
0.200761911748
0.0533088861132
0.0208586253262
0.00541814348215
0.00185330957823
0.00098015084598
0.000682046610259
0.000554073858608
0.000491852557714
0.000459426140854
0.000441643586966
0.000431345847207
0.000425027042855
994.692424698
292.435802033
90.9000850322
29.5017863611
9.71789870642
3.13920103043
0.942561654611
0.256065703008
0.0718536820992
0.0257785661649
0.008738769456
0.00259078927946
0.00119497479778
0.00076998941977
0.000597915678535
0.000516105471609
0.000473659625176
0.000450375596287
0.000436941023177
0.000428788000194
976.001807945
290.387981673
91.5133156665
30.2914147051
10.2680544105
3.49686954642
1.15728696585
0.35214074372
0.11825469116
0.0316817087716
0.0128383098067
0.00379795425016
0.00149264426101
0.000877838399568
0.000648892246918
0.000543919029374
0.00049001176384
0.000460425739054
0.000443315202472
0.000432934347782
979.329074851
294.823526717
92.9522742414
30.707079378
10.5021786542
3.69951076712
1.3251418099
0.465465708227
0.152294718554
0.0582020536049
0.0168536338812
0.00588005271987
0.00197005244451
0.00102129656554
0.000710500189517
0.000576601917117
0.000509386228528
0.000472539655936
0.000451077222747
0.000437959098073
1062.86277597
316.096215021
97.1637434728
31.3149934345
10.6981737708
3.88529908882
1.49061582843
0.585489968144
0.229328187062
0.0900236602611
0.0289327365056
0.00939569108117
0.00291127804748
0.0012398886838
0.000790037531119
0.00061650935619
0.00053307956569
0.000487716890148
0.000461062166425
0.000444538520713
1284.02179011
355.44013239
104.111880098
32.8951879571
11.3025392834
4.21877691597
1.69501114301
0.722846644311
0.320446721403
0.145576250409
0.068150481404
0.0142756652177
0.00472355066322
0.00161464722177
0.000899311213337
0.000666845326837
0.0005628344203
0.000507243294847
0.000474275838095
0.00045345471103
1381.37419621
379.09630447
110.885131296
35.0931204039
12.1553206261
4.62651022082
1.92135407387
0.865485287823
0.417199214745
0.21859723493
0.105267363074
0.0323191744422
0.00695641998599
0.0022984985314
0.00105909480395
0.000732031213929
0.000600700789043
0.000532522118349
0.000491778132481
0.000465520405011
1420.4174701
391.993026491
115.066351542
36.6286325009
12.8156044933
4.97089618087
2.12645579019
0.995182754883
0.510503613657
0.293172461161
0.175223696269
0.0745396216675
0.00996350338979
0.00328715436594
0.00130419136111
0.000818099908143
0.000648868227267
0.000564967895347
0.00051463676643
0.000481554302677
1451.60524448
400.279999197
117.567860524
37.5717780273
13.269653881
5.2358193293
2.29796174822
1.11026402458
0.596452107046
0.364580227565
0.248653750712
0.125417239967
0.0262989646063
0.00418084759249
0.00170053563882
0.000934799964158
0.000709682319373
0.000605975618179
0.000543915505098
0.000502365965529
1470.70398399
407.091152084
119.770146928
38.4017712568
13.6652852296
5.46479163883
2.44657200023
1.21155125384
0.670650116765
0.431913878715
0.319337212486
0.201168088528
0.0638792943287
0.00553823527522
0.00230699064745
0.00109731144304
0.00078549626724
0.000656751875327
0.000580560890806
0.000528674481632
1495.90668411
414.124624985
122.272099036
39.4073217276
14.1178769573
5.69327356265
2.57840975045
1.29800757355
0.735386174384
0.494610284843
0.386281339869
0.279575142599
0.116325555405
0.013824897288
0.00323378014761
0.00134040431821
0.000878964706366
0.000717845822596
0.000625081291898
0.000560917206242
1522.24769486
422.131445083
125.233703767
40.5992266963
14.6085033482
5.90497419184
2.68210882191
1.36157161073
0.788476724897
0.548781427098
0.452732155256
0.357702825223
0.192525960666
0.0432469856094
0.00446907947205
0.0017232207892
0.000991729111256
0.000788156572739
0.000676977615679
0.000598934578916
1561.82209505
432.084283169
128.38223813
41.7703243094
15.0653587725
6.08493033641
2.75461762826
1.40312729687
0.833359854326
0.602134262017
0.515237045866
0.440633138788
0.274079963982
0.0780506727554
0.00821846975786
0.00251594334526
0.00113339302446
0.000864448371895
0.000734056976422
0.000641537170269
1590.69903409
441.56571588
131.445474518
42.8573279549
15.4739133666
6.22863628819
2.79914276331
1.43215813998
0.875583205405
0.656093476683
0.572284566288
0.50569319669
0.353120787093
0.131875606064
0.0220103223985
0.0041733501341
0.00131820625998
0.000940023247866
0.000791729353285
0.000686001739567
1619.48106867
450.667627477
134.796253248
44.0454051539
15.8690539488
6.33513606715
2.823189061
1.45541211357
0.914425469963
0.703027804723
0.614090931894
0.545611627298
0.421490372506
0.196228913114
0.0545223731115
0.00790482706651
0.00163463334633
0.00100757323226
0.000842915979369
0.000727688456337
1637.81792288
459.189105679
138.36908823
45.3092643779
16.2530223663
6.42509812619
2.84448381295
1.47802552332
0.94624096188
0.733343103269
0.636729982368
0.573275500519
0.45698064875
0.262446603392
0.100929395097
0.0196639268937
0.00238223659883
0.00106096799328
0.00087866350661
0.000760125023139
1666.97466139
468.65712314
142.025348339
46.5521243008
16.6235227113
6.51583668266
2.87034931218
1.4990453709
0.96749142731
0.748202064214
0.647003928809
0.588629730619
0.47826650804
0.32600354085
0.150947798506
0.0438168842243
0.00353225634613
0.00109451513795
0.000890087674787
0.000776013295136
1709.18116212
481.702217713
146.073024123
47.8438503068
17.007819351
6.61461521305
2.89889394353
1.51500308065
0.977189659564
0.751234063543
0.645644144218
0.589495655713
0.499503095277
0.389386198302
0.237187870114
0.0960203117794
0.0070526274675
0.00116247219606
0.00087183908955
0.000769150400008
1750.78422516
495.788922095
150.77322914
49.3282692235
17.4134909718
6.70586977472
2.92135545733
1.52294091949
0.976721440292
0.743136543637
0.631690274752
0.581610964346
0.529720205135
0.474728835649
0.333495745253
0.132306181631
0.0175983526418
0.0013784663766
0.000823595991498
0.000736448894864
1764.10086015
508.807793601
156.30071033
51.066576485
17.8252821321
6.78739158486
2.94212472055
1.5273672709
0.968227533405
0.724577736406
0.610966935071
0.57454384173
0.571224633682
0.546953809117
0.429247523781
0.192768010662
0.036119977926
0.00284577559888
0.000759964283974
0.000679192466975
1807.76542525
530.19022483
163.603460217
53.0150545349
18.2809561758
6.91928213576
2.99443383604
1.54120816779
0.956868758961
0.702587835013
0.593020299787
0.570990347784
0.602934705154
0.586480967298
0.471236285234
0.250622596367
0.0661911035911
0.0111955902147
0.00073019577402
0.000602909618907
1948.48260335
568.784719791
173.129268799
55.2684008331
19.003466439
7.23086987673
3.12658532169
1.58149994775
0.954152212477
0.687854148064
0.584215027348
0.566553898459
0.610882520859
0.609453905211
0.503730606772
0.312055588405
0.106217028164
0.0251377502909
0.000932544208694
0.000516466453279
2177.69708342
619.205593352
183.975648519
58.4204291818
20.3592528084
7.84388766376
3.37567013889
1.66594190965
0.973897146356
0.688940371166
0.584536111955
0.560515256654
0.60595525282
0.61746343259
0.533073443442
0.379228305791
0.149934445943
0.0386501923667
0.00458778848813
0.000435242122659
2381.95962943
660.008723135
194.352870444
62.4224814844
22.1822310148
8.65518956917
3.7112261412
1.79367284954
1.01952374358
0.70733634159
0.590962412918
0.556713453472
0.593789048011
0.612570897383
0.551080967034
0.425937736438
0.230492280772
0.0791785121242
0.0181125722089
0.000392630240012
2443.63400411
681.009458431
202.149619678
65.9497680345
23.8540955622
9.44436322238
4.0679252617
1.9485685275
1.08655399466
0.737875538685
0.601551871859
0.556256468376
0.579826913102
0.600156759261
0.556733635762
0.44611172844
0.304930449354
0.113810284516
0.0289102005471
0.000539046308716
2457.23287244
689.553848826
206.733516859
68.2757267503
25.0975319023
10.1020797321
4.40336319
2.11340448019
1.1662977275
0.775712183924
0.615997365236
0.557561676931
0.563490996262
0.57980616461
0.556691124957
0.480914226446
0.369325238043
0.177076671336
0.0453492688946
0.00269946669954
2471.11625827
692.503351015
208.713079939
69.6101839979
25.9566503381
10.6251420735
4.70286614446
2.27567669765
1.25133652551
0.817946132141
0.633097997539
0.558048584742
0.542987648286
0.555754731852
0.56860735714
0.538499767453
0.434239948418
0.241649918185
0.0765178375121
0.0114683688218
2474.14449024
694.602296037
209.926454924
70.6436176468
26.6794519348
11.0847979056
4.97914743327
2.43393838433
1.33924757896
0.863696200812
0.651795348716
0.556819782661
0.524439739683
0.544736702177
0.599403036079
0.598929623679
0.500921824906
0.312851763882
0.102997450826
0.021738518933
2474.50224044
693.809642917
210.491062712
71.3424542252
27.2152830116
11.4540593716
5.21910071405
2.58174292221
1.4270023903
0.911366196861
0.670703276864
0.556370262763
0.519159447091
0.555543832544
0.631703860545
0.650716391995
0.574055076629
0.418302299211
0.149283434817
0.031202664193
2444.77651556
690.267787724
210.785050725
71.7969303306
27.5337126957
11.6985369747
5.40137171893
2.70731894471
1.50738873849
0.954730358386
0.686455594387
0.56161391546
0.534115532665
0.586602342979
0.664628421196
0.69124636215
0.642885776836
0.492640037831
0.239686443824
0.0538337341181
2420.38600254
685.156804795
210.605401834
71.8792917882
27.6058917184
11.8044357741
5.50951333875
2.79486493868
1.56600825946
0.983217476633
0.697921705051
0.577632145725
0.568407936781
0.630104334641
0.700449563751
0.728096563792
0.69545089763
0.557784785009
0.341515884026
0.0954876187365
2400.08709375
680.45755977
209.286409002
71.3149886855
27.3886694607
11.7533981865
5.52256010407
2.82421018446
1.58672658131
0.991912790882
0.708366014816
0.604699212213
0.614884396988
0.677205193272
0.741228901879
0.765144221947
0.739380792188
0.619731750732
0.421518170376
0.128020518456
0.000408314065825
0.000408234757499
0.000408258753778
0.000408370475009
0.000408571385074
0.000408880306675
0.000409343378611
0.000410062833258
0.00041126713392
0.000413473847506
0.00041786164835
0.000427131492161
0.000447631582078
0.000495399686945
0.000617903714195
0.00100246303099
0.00279432008339
0.018190529719
0.239664781387
4.15359459238
0.000407915550711
0.000407666178479
0.00040765530494
0.00040784713828
0.000408249604348
0.000408928250818
0.000410053989364
0.00041201662031
0.000415666859441
0.00042281336577
0.000437261000427
0.000467178903824
0.00053146664194
0.000681086439304
0.00109199533627
0.00261715417199
0.0112793391778
0.0800867837979
0.754395548135
7.24445653069
0.000409826871332
0.000409304149731
0.000409194602692
0.000409443982474
0.000410086085243
0.000411287878235
0.000413462744773
0.000417503505836
0.000425227401694
0.000440229670144
0.000469669473704
0.000528644619169
0.000653151465565
0.000947328071125
0.00180277897027
0.00522681735349
0.0244840178911
0.158197573837
1.23982716416
8.20426724983
0.000412431690573
0.000411564447848
0.00041130544066
0.000411599103909
0.000412544735633
0.000414485372726
0.000418197879357
0.000425243311745
0.000438595697905
0.000463853060427
0.000511937566932
0.000606237354828
0.000805036848062
0.00128704460007
0.00276184972958
0.00892080642065
0.0424733493335
0.262438756037
1.68520340498
8.20434634917
0.000415399986517
0.00041414407744
0.000413714461725
0.000414079615198
0.000415453286511
0.000418427018346
0.000424229189728
0.000435172344869
0.000455453227334
0.000492781133774
0.000562269516074
0.000697250555078
0.000984467791496
0.00170288379637
0.00400529424929
0.0138907809175
0.0668182828973
0.392868200928
2.03076491395
7.90566967221
0.000418338942093
0.000416654117573
0.00041605568819
0.000416560657708
0.000418540459753
0.000422886953079
0.000431323277912
0.000446934060383
0.000475156408918
0.000525936094293
0.000619135808799
0.000800027379308
0.00119119398471
0.00220389796051
0.00559635356812
0.0205167004606
0.100138818158
0.537921064914
2.25753147306
7.55921316013
0.000421127681117
0.000418956048667
0.000418196909874
0.000418930265108
0.0004217138011
0.000427765078675
0.000439309547164
0.000460196305753
0.000497126042257
0.000562466852649
0.000681529567049
0.000913910159104
0.00142713902955
0.00280664489717
0.0076361671612
0.0293920670774
0.143833418712
0.677953766865
2.37891744679
7.22787017378
0.000423816656261
0.000421068181506
0.000420143539776
0.000421187467318
0.000424954548776
0.000432990183906
0.000448009424315
0.000474615448781
0.000520822137475
0.00060166708795
0.000748741521771
0.00103882158298
0.00169589100362
0.00353544602571
0.0102673360204
0.0412425101516
0.196436195853
0.796054426782
2.42524721314
6.92173300594
0.000426627330548
0.000423160196835
0.00042202666721
0.000423426045701
0.000428302651734
0.000438514411612
0.00045724474501
0.000489848130717
0.000545725866489
0.000642876182235
0.000820120663999
0.00117481332762
0.0020019561588
0.00442141744324
0.0136685825402
0.0567033420172
0.253723762478
0.884365156094
2.42453701612
6.63950314067
0.000429952903367
0.000425540045011
0.000424083921935
0.000425813830026
0.000431839064018
0.000444301373331
0.000466827351751
0.000505525516435
0.000571268351066
0.00068532019139
0.000894760357791
0.00132145001998
0.00234945790355
0.00549916421886
0.0180331090655
0.0759712066469
0.310248743902
0.943646687032
2.39633487608
6.3789517867
0.000434323445069
0.000428619622452
0.000426629243855
0.000428568127404
0.000435667542745
0.000450311978944
0.000476540100242
0.00052121211767
0.000596740721863
0.000727930404331
0.000971133753401
0.00147700720477
0.00274008454679
0.00680018003649
0.0235272635916
0.0985354009217
0.361225268956
0.979240190805
2.3527590797
6.13827396381
0.000440343674081
0.000432868231267
0.000430019573784
0.00043193339435
0.000439900718176
0.000456493817423
0.000486120012849
0.000536367834354
0.000621212244458
0.000769173613715
0.00104672166447
0.00163752889071
0.00317020895724
0.00834193549541
0.0302265437649
0.123169689027
0.403722942921
0.997392981758
2.30113300871
5.91608802587
0.000448643346836
0.000438779742114
0.000434634391132
0.000436170703223
0.000444656950442
0.000462781120645
0.000495254620249
0.000550331210805
0.00064348519737
0.000806942889141
0.00111772609004
0.00179593132173
0.00362749233915
0.0101128330323
0.0380391859716
0.1481968208
0.436816060195
1.00341172075
2.24596587659
5.71132874997
0.000459858159326
0.000446856242191
0.000440863334447
0.000441551050437
0.00045006007772
0.000469100374456
0.00050359227614
0.000562333857063
0.000662112824967
0.000838570319934
0.0011790167522
0.00194152954396
0.00408800230847
0.0120565196871
0.046653113702
0.171893252205
0.461027350242
1.00125094631
2.1901389376
5.52319188112
0.000474606556677
0.000457579739636
0.000449077941458
0.000448332312044
0.000456226105776
0.000475371071619
0.000510763118389
0.000571553127782
0.000675505948572
0.000861027923813
0.00122448401974
0.00206049657444
0.00451558182437
0.014062870927
0.055548966122
0.19285791236
0.477613985774
0.993735088495
2.13558306706
5.35108769395
0.000493422058884
0.000471349310169
0.000459573108051
0.000456709452514
0.000463229445249
0.000481497729735
0.000516411309749
0.000577209739205
0.000682144863992
0.000871356164051
0.00124791042127
0.00213766657601
0.00486528617431
0.0159743432745
0.0640930412057
0.210224889938
0.488042615182
0.982899390351
2.08365459621
5.19456160399
0.00051663041553
0.000488387650406
0.000472486485814
0.000466745211696
0.000471053309188
0.000487355366266
0.000520238191201
0.00057870506844
0.000680880151949
0.000867280763993
0.00124428616822
0.00215963531505
0.00509156752156
0.0176123476408
0.0716801347734
0.223699676867
0.493722966081
0.970254592838
2.03531796717
5.05315795771
0.000544174592274
0.000508632153284
0.000487714983507
0.000478296707386
0.000479531216943
0.000492764980713
0.00052204040806
0.000575762795381
0.000671249314694
0.000847863589222
0.00121122998848
0.00211839123753
0.0051595631485
0.0188186741881
0.0778707259884
0.233470919837
0.495918208999
0.956946575798
1.99120813348
4.92624223295
0.000575380132166
0.000531615976471
0.000504846317724
0.000490957074202
0.000488287738803
0.00049744837489
0.000521708514692
0.000568507810069
0.000653686173031
0.000813947329194
0.00114998848017
0.00201413151014
0.00505549840574
0.0194971880392
0.0824740971289
0.240065715584
0.495730000728
0.943836298891
1.95163519225
4.81283086353
0.000608649945891
0.000556326414439
0.000523114501618
0.000504038004448
0.000496702120711
0.000500965101826
0.000519156659818
0.000557413449046
0.000629500300999
0.000768172611665
0.0010655445843
0.00185597420761
0.00479166518612
0.0196386636812
0.0855579213538
0.24419663643
0.494095169551
0.931533280989
1.9165821961
4.71148859614
0.000641128485746
0.000581019193128
0.000541362329058
0.000516611226443
0.00050393904243
0.000502674087035
0.000514200247047
0.000543098606116
0.000600575689875
0.00071448899463
0.000965697909433
0.00166011093836
0.00440358059434
0.0193192403458
0.0873947710982
0.246624691336
0.491773535282
0.920410643924
1.88572848818
4.62033835302
0.000668522074362
0.000603022581407
0.000557971484623
0.000527584402024
0.000509079319249
0.00050179733114
0.000506470185107
0.000526053168091
0.000568864098089
0.000657284682734
0.000859412820367
0.00144610540359
0.00394063692101
0.0186754244283
0.0883732673304
0.248049619976
0.489332314114
0.910622591925
1.85851094558
4.53719652944
0.000685440650821
0.000618725744201
0.00057078023408
0.000535746846034
0.000511317376459
0.000497636048016
0.000495485852206
0.000506460292066
0.000535877316304
0.000600423424544
0.000755005419545
0.0012327875048
0.00345437464906
0.0178678004586
0.0889041481146
0.249034855795
0.487140892286
0.902136606686
1.83421778259
4.45980754294
0.000686501938795
0.000624033334775
0.000577141972444
0.00053975313048
0.000510108557194
0.000489872981699
0.000480928273328
0.000484269339955
0.000502430212964
0.000546531087214
0.000658727512531
0.00103509904876
0.00298874919876
0.0170470854688
0.0893441712108
0.249971405933
0.485385924114
0.89478315571
1.81209777864
4.38611724212
0.000667898075352
0.000615329658497
0.000574301799995
0.000538117934771
0.00050514621419
0.000478767385874
0.000462984331453
0.000459509527316
0.000468771562269
0.000496791338137
0.000574089648885
0.000862542142168
0.00257477017428
0.0163311037864
0.0899495118304
0.251078649453
0.484106942694
0.888316224253
1.79146222636
4.31451097567
0.000628728601942
0.000590616361335
0.000560097125361
0.000529381091686
0.000496199670695
0.000465072586122
0.000442532705223
0.0004326480334
0.000434998263817
0.000451287628848
0.000502003790212
0.000719151745895
0.00222944145513
0.0157944785804
0.0908599833634
0.252432785779
0.483244167534
0.882472877678
1.77176023527
4.24395853331
0.000571510042974
0.000550332140313
0.000533753841036
0.00051253722832
0.000483026192141
0.000449717519923
0.000421027776885
0.000404767022557
0.000401475928329
0.00040964950847
0.000441569817259
0.00060453290344
0.00195750177411
0.0154684237377
0.0921083388484
0.25400945202
0.482686983826
0.87702063202
1.75261727287
4.17404579269
0.00050166052627
0.00049749204445
0.000496426780337
0.000487608806213
0.000465549129923
0.000433501395575
0.000400137350848
0.00037746649155
0.000369036751235
0.000371628580167
0.000391107825519
0.00051542489332
0.0017543616356
0.0153469042541
0.0936455995454
0.255727867224
0.482314000644
0.871786833064
1.7338386199
4.10490825175
0.000426297072396
0.000437129468539
0.000451234290943
0.000456079441629
0.000444265162878
0.000417045634939
0.00038134372653
0.000352554786664
0.000338910498623
0.000337358653534
0.000348990039728
0.000447287917003
0.0016092615442
0.0153960961165
0.0953731281091
0.257487975477
0.482020153151
0.866669641865
1.71538685186
4.03709841542
0.000352783110627
0.000375255616092
0.000402741644028
0.000420930912718
0.000420632794394
0.000401038433873
0.000365724110088
0.000331670112444
0.000312483755575
0.000307300540008
0.000314028814252
0.000395515327875
0.00150823781979
0.015564955403
0.097174022816
0.259196946409
0.481730616213
0.861633728443
1.69734513599
3.97142402884
0.000287483582894
0.000317660088696
0.000356066991152
0.000386227336623
0.000397192968433
0.00038659932123
0.000354005992444
0.000315983563626
0.000291013143091
0.000282022664903
0.000285466259998
0.000356095914726
0.00143662298378
0.0157956024295
0.098939672877
0.260785992291
0.481405033771
0.856696022125
1.67987715496
3.90880215622
0.000235647875389
0.00026899172325
0.00031596878274
0.000356430254853
0.000377343335797
0.000375532361892
0.000346836078149
0.000306089819864
0.000275388044257
0.000261975382956
0.000262771241651
0.00032581636855
0.00138097726282
0.0160337966573
0.100591501186
0.262222409394
0.48103917998
0.851910123999
1.66319279094
3.85017342565
0.000204669673282
0.000232488243707
0.000286276171658
0.000335733835675
0.000364860310548
0.000370307520301
0.00034508569018
0.000302105168244
0.000265994412381
0.000247351330907
0.000245438640342
0.000302251613087
0.00133084426669
0.016241017932
0.102099976081
0.26352178544
0.480670762399
0.847358091953
1.64752224486
3.79647805682
0.000229801739159
0.000210417096849
0.000269807430662
0.00032763588278
0.000363350794191
0.000373751761942
0.000350005776078
0.000303901641587
0.000262692873785
0.000238053552213
0.000232891576972
0.000283747418744
0.00128076772832
0.016407813038
0.103499230867
0.264758728363
0.480388170416
0.843150118684
1.63308944994
3.74862107106
0.00065469744702
0.000205093638221
0.000268729700706
0.000334840835591
0.000375839795153
0.000388590672112
0.00036315174094
0.000311368236564
0.000264902306772
0.000233743373979
0.000224491596704
0.000269413934347
0.00123206630226
0.0165634325385
0.104889209292
0.266066586934
0.480331382203
0.839421640584
1.62006946449
3.70732375879
0.0040450325187
0.000220589093584
0.000285392421973
0.000359587502586
0.000404700440825
0.000417086311695
0.000386140076296
0.00032460869177
0.000271772318276
0.000233918566017
0.000219605608221
0.000259027365662
0.00119311720193
0.016774682156
0.10641705951
0.267617036634
0.480673591381
0.836314238187
1.60852412345
3.67282673349
0.0129876499517
0.000268273845147
0.000323722839146
0.000404473130201
0.000452049062649
0.000461001857819
0.000420398917557
0.000344025765927
0.000282418939605
0.000237983722192
0.000217674298044
0.000252811162254
0.00117748855347
0.0171306774863
0.108238373968
0.269580462
0.481581923096
0.833934480485
1.59833075488
3.64473765633
0.0213549748346
0.000383984877739
0.000391363269718
)
;

boundaryField
{
    emptyPatch
    {
        type            empty;
    }
    minY
    {
        type            fixedValue;
        value           uniform 4.5592e-05;
    }
    maxY
    {
        type            inletOutlet;
        inletValue      nonuniform List<scalar> 0();
        value           nonuniform List<scalar> 0();
    }
    water_to_cooler
    {
        type            epsilonWallFunction;
        blending        stepwise;
        value           nonuniform List<scalar> 
37
(
11.7075753254
29.74077744
43.3856251221
51.5376468252
55.6216019698
57.2963004031
57.6089645938
57.132869469
56.1919049862
54.9846697589
53.6379576925
52.2344546925
50.8294985442
49.4617547954
48.1596970468
46.9448801615
45.8328165392
44.8324720541
43.9454999379
43.166112094
42.4820312212
41.8764820498
41.3308116923
40.827151172
40.3505616013
39.8903213572
39.4402974298
38.9985752616
38.5666237503
38.1482787796
37.748796974
37.3741302787
37.0303360433
36.7227893416
36.4549041145
36.2264379036
36.0311403565
)
;
    }
    water_to_heater
    {
        type            epsilonWallFunction;
        blending        stepwise;
        value           nonuniform List<scalar> 
61
(
23.1000012309
1133.56223346
1133.56223346
1868.9391264
1868.9391264
2536.21116257
2536.21116257
2902.03862734
2945.52077315
2833.47761534
2833.47761534
2750.85699636
2750.85699636
2707.73912745
2707.73912745
2758.58795097
3050.39724874
3609.0765689
3609.0765689
3840.09147855
3840.09147855
3953.81021776
3953.81021776
4026.10128545
4087.45953579
4137.14571928
4137.14571928
4207.0482337
4207.0482337
4292.24921735
4292.24921735
4382.81881925
4458.18267697
4526.27698367
4526.27698367
4607.68541822
4607.68541822
4741.05816357
4741.05816357
4876.89928086
4980.01453626
5218.55334085
5218.55334085
5741.00319824
5741.00319824
6472.33437359
6472.33437359
7010.61587941
7210.74127308
7279.97922596
7279.97922596
7286.61862796
7286.61862796
7301.38453828
7301.38453828
7265.14371562
7200.76228853
7091.21289199
7091.21289199
7027.71421339
7027.71421339
)
;
    }
    procBoundary2to3
    {
        type            processor;
        value           nonuniform List<scalar> 
41
(
2426.06331847
683.346384354
208.959170021
70.7678880017
27.0420941396
11.571958
5.43982665176
2.78930505633
1.56847781417
0.984642884743
0.720482242109
0.641493384606
0.668970786294
0.732027453116
0.790503665409
0.807690737237
0.78134982483
0.677233795421
0.446436949224
0.173506495654
0.000473757752968
0.000520548796523
0.000521962393334
0.000467091333219
0.000370292682255
0.000296175907909
0.00024530884021
0.000218257443611
0.000251218502461
0.00120054463765
0.0177172701219
0.110471810285
0.272087676143
0.483201876682
0.832403713178
1.58925035773
3.61951437884
0.0281636559437
0.000750473262629
0.000473757752968
0.000503011863754
)
;
    }
}


// ************************************************************************* //
