/*--------------------------------*- C++ -*----------------------------------*\
| =========                 |                                                 |
| \\      /  F ield         | OpenFOAM: The Open Source CFD Toolbox           |
|  \\    /   O peration     | Version:  2312                                  |
|   \\  /    A nd           | Website:  www.openfoam.com                      |
|    \\/     M anipulation  |                                                 |
\*---------------------------------------------------------------------------*/
FoamFile
{
    version     2.0;
    format      ascii;
    arch        "LSB;label=32;scalar=64";
    class       volScalarField;
    location    "0.87/water";
    object      nut.gas;
}
// * * * * * * * * * * * * * * * * * * * * * * * * * * * * * * * * * * * * * //

dimensions      [0 2 -1 0 0 0 0];

internalField   nonuniform List<scalar> 
1497
(
1.54364412459e-06
1.38250802807e-06
1.23702070669e-06
1.09849336445e-06
9.42194463776e-07
7.38013513244e-07
4.91902634495e-07
2.71183167162e-07
1.33323708498e-07
6.68900924745e-08
3.89586767505e-08
2.81941836631e-08
2.52740695242e-08
5.29709459215e-06
4.77922471882e-06
4.03686412548e-06
3.2577061715e-06
2.59738896039e-06
2.14760609507e-06
1.86168499669e-06
1.64979231784e-06
1.461829543e-06
1.28610543288e-06
1.11666251433e-06
9.33743371201e-07
7.1549818673e-07
4.74339477559e-07
2.68393848878e-07
1.37587356311e-07
7.10338269912e-08
4.13926774868e-08
2.93584011755e-08
2.55593498107e-08
5.71625611975e-06
5.19419965156e-06
4.3725443731e-06
3.50249364956e-06
2.79983897583e-06
2.32436978169e-06
2.01366305857e-06
1.77512304375e-06
1.556176086e-06
1.34585021745e-06
1.14521928236e-06
9.44795770171e-07
7.23753026202e-07
4.90297476681e-07
2.88225794313e-07
1.51954043128e-07
7.85498670828e-08
4.4850613333e-08
3.08902422549e-08
2.60824583309e-08
6.15065684481e-06
5.50524884142e-06
4.62316605621e-06
3.75051929581e-06
3.03264761179e-06
2.51659236482e-06
2.16628935549e-06
1.89661224629e-06
1.64913666048e-06
1.41270341114e-06
1.19267698905e-06
9.86350632991e-07
7.71082634253e-07
5.43219391515e-07
3.32232756456e-07
1.77505899318e-07
9.000853088e-08
4.95442228712e-08
3.28520353281e-08
2.68444491772e-08
6.03083001872e-06
5.47924857961e-06
4.71500416542e-06
3.93380883653e-06
3.22673933771e-06
2.6669741011e-06
2.27867030094e-06
1.99012728845e-06
1.72834520297e-06
1.47869580375e-06
1.25325217064e-06
1.04956898719e-06
8.43506860966e-07
6.18841275815e-07
3.92424199259e-07
2.11723738892e-07
1.04927972447e-07
5.53858113311e-08
3.51908673612e-08
2.77981886663e-08
5.80152804422e-06
5.51273074127e-06
4.85263904227e-06
4.09048672234e-06
3.36076521824e-06
2.75800632633e-06
2.33150781412e-06
2.03190157638e-06
1.77280182799e-06
1.52905087674e-06
1.3104508155e-06
1.11471519421e-06
9.16844376777e-07
6.93214662789e-07
4.52055516635e-07
2.46646045562e-07
1.20588266747e-07
6.15606335434e-08
3.76551839275e-08
2.88624145551e-08
5.72433342339e-06
5.64363098677e-06
5.00192229986e-06
4.16539246898e-06
3.37622678545e-06
2.75398377926e-06
2.32148050783e-06
2.02146908966e-06
1.77427605408e-06
1.54935563463e-06
1.34928981039e-06
1.16736797665e-06
9.76390969124e-07
7.50754361465e-07
4.97094044599e-07
2.73538649427e-07
1.3320937418e-07
6.67736193659e-08
3.98454620642e-08
2.99339147863e-08
5.79653977048e-06
5.77698045681e-06
5.05680766876e-06
4.13299126336e-06
3.29251765604e-06
2.66100581564e-06
2.23972457427e-06
1.95562389034e-06
1.73416445414e-06
1.54063398784e-06
1.36883445201e-06
1.20466896852e-06
1.0179717169e-06
7.86117799011e-07
5.21585483876e-07
2.88087948708e-07
1.40716239472e-07
7.0225461962e-08
4.15078627945e-08
3.0963024131e-08
5.78113537762e-06
5.68839464621e-06
4.93804585811e-06
4.0028392367e-06
3.14777750544e-06
2.50877180541e-06
2.10214939153e-06
1.8497585463e-06
1.66932093064e-06
1.51819058061e-06
1.37971007508e-06
1.23111433569e-06
1.04215246326e-06
7.99287113732e-07
5.26416195558e-07
2.91433231281e-07
1.4369846182e-07
7.21059369784e-08
4.27353810867e-08
3.20285562719e-08
5.77532833584e-06
5.47699206964e-06
4.73734297807e-06
3.84013565859e-06
2.99882777052e-06
2.35241293533e-06
1.95531806926e-06
1.7394881566e-06
1.60937033346e-06
1.50541390171e-06
1.39603319777e-06
1.25131122554e-06
1.0498377907e-06
7.9297396455e-07
5.17033408707e-07
2.88259425405e-07
1.44467462946e-07
7.33444694557e-08
4.39466284433e-08
3.33541080237e-08
5.7357103656e-06
5.27776857466e-06
4.53641402164e-06
3.68949790259e-06
2.88263407857e-06
2.23906465721e-06
1.84657763993e-06
1.66556094033e-06
1.58610151408e-06
1.5214335347e-06
1.42210909564e-06
1.2631012059e-06
1.04152081705e-06
7.72908170667e-07
5.01832003085e-07
2.84534953016e-07
1.45921403959e-07
7.52789121615e-08
4.58004963548e-08
3.52818077129e-08
5.47612931486e-06
4.94984163124e-06
4.2639760756e-06
3.51157325269e-06
2.77789083054e-06
2.17014285106e-06
1.80071751747e-06
1.65824351252e-06
1.6174629651e-06
1.56412499503e-06
1.44725389291e-06
1.26203428985e-06
1.02079623325e-06
7.48853072165e-07
4.90429856235e-07
2.85966982205e-07
1.51044680959e-07
7.95599949989e-08
4.91965566581e-08
3.82677950241e-08
5.09461494189e-06
4.57010484102e-06
3.98125829352e-06
3.34406656933e-06
2.69786790895e-06
2.1507575574e-06
1.83063902289e-06
1.72506285746e-06
1.68983041686e-06
1.61126674607e-06
1.4603804024e-06
1.24900150636e-06
9.97348362857e-07
7.33319194555e-07
4.91962260952e-07
2.98128656358e-07
1.63510143936e-07
8.83253220892e-08
5.51272428211e-08
4.26414040934e-08
4.84382017202e-06
4.37735568903e-06
3.86144830382e-06
3.30070439813e-06
2.70652452166e-06
2.21200932328e-06
1.93764847378e-06
1.83900723308e-06
1.76828786681e-06
1.64404557474e-06
1.46081767223e-06
1.23581832716e-06
9.88095698177e-07
7.39995333499e-07
5.14614431119e-07
3.26316793044e-07
1.86559417248e-07
1.03215803478e-07
6.4433328037e-08
4.88542459319e-08
4.93557021543e-06
4.58345254322e-06
4.07451189148e-06
3.46628847491e-06
2.84000200421e-06
2.35323276859e-06
2.08682407699e-06
1.95648278001e-06
1.83218319871e-06
1.66710850756e-06
1.46437668305e-06
1.23822892392e-06
1.0036894491e-06
7.75559929425e-07
5.64461102922e-07
3.76506906174e-07
2.25183430094e-07
1.27525016448e-07
7.9005832048e-08
5.79786194046e-08
5.47777530115e-06
5.15419204738e-06
4.5379551031e-06
3.7705623232e-06
3.05704054785e-06
2.54307830435e-06
2.25471937235e-06
2.07546548234e-06
1.89542432545e-06
1.6959024696e-06
1.48252021156e-06
1.26561004297e-06
1.0534407242e-06
8.48364940909e-07
6.4889777329e-07
4.56529130674e-07
2.86908987865e-07
1.66740884775e-07
1.02105930668e-07
7.18258465374e-08
6.27688951146e-06
5.79772984392e-06
4.98302896291e-06
4.07725429648e-06
3.29207319948e-06
2.74118323176e-06
2.42446850157e-06
2.19938525615e-06
1.96704281283e-06
1.74056134937e-06
1.52547348107e-06
1.32606689942e-06
1.14022231738e-06
9.57923297986e-07
7.68957187791e-07
5.71069064902e-07
3.78921432883e-07
2.2773388578e-07
1.38416712643e-07
9.31036511246e-08
6.64664249432e-06
5.94613707492e-06
5.03130141739e-06
4.16405443981e-06
3.41738121846e-06
2.8683265199e-06
2.54490430916e-06
2.29858698324e-06
2.03270841418e-06
1.79688193613e-06
1.58769771417e-06
1.4065091595e-06
1.24547322287e-06
1.0863757601e-06
9.11419626268e-07
7.12736102632e-07
5.00434306204e-07
3.14515621059e-07
1.9251590384e-07
1.25015616332e-07
6.03396765243e-06
5.75466944023e-06
4.97143889904e-06
4.14619803893e-06
3.42870391767e-06
2.90674261849e-06
2.59321129258e-06
2.34918568304e-06
2.07512492389e-06
1.84117222858e-06
1.63928989227e-06
1.47489081731e-06
1.33823872094e-06
1.20550334548e-06
1.0512838351e-06
8.60820574131e-07
6.3791102801e-07
4.22748360417e-07
2.65589264689e-07
1.69781475687e-07
5.65829456428e-06
5.60572797156e-06
4.90560829119e-06
4.09490307309e-06
3.40270425853e-06
2.90984277189e-06
2.59613723958e-06
2.34615407437e-06
2.08293845635e-06
1.84747601049e-06
1.65553257879e-06
1.51144405666e-06
1.40187010666e-06
1.29862356333e-06
1.16984302368e-06
9.95283684015e-07
7.73318622462e-07
5.41276086076e-07
3.5404116434e-07
2.2747611413e-07
5.4119302987e-06
5.49254747369e-06
4.85451912993e-06
4.05051274284e-06
3.37670202384e-06
2.898991328e-06
2.56928442781e-06
2.29958450819e-06
2.04085405625e-06
1.81342938213e-06
1.64123407741e-06
1.52379062565e-06
1.44416212822e-06
1.37015542192e-06
1.26587332621e-06
1.10816303898e-06
8.93502995785e-07
6.57099365847e-07
4.50140312559e-07
2.9558458888e-07
5.36865465695e-06
5.52543144746e-06
4.85127316825e-06
3.98957428746e-06
3.31830825077e-06
2.85351072055e-06
2.50639410734e-06
2.21617588137e-06
1.95990168778e-06
1.75512260051e-06
1.61392107064e-06
1.53013502198e-06
1.48283250865e-06
1.43554953132e-06
1.35078252945e-06
1.20457974167e-06
9.96313078187e-07
7.62027160103e-07
5.44578778852e-07
3.67399081596e-07
5.57662096561e-06
5.69238809376e-06
4.79746287675e-06
3.83698923549e-06
3.18801322718e-06
2.75493690185e-06
2.40789730521e-06
2.10983771774e-06
1.86622376383e-06
1.69257225123e-06
1.59010534324e-06
1.5457581647e-06
1.53156613981e-06
1.50652807105e-06
1.43224304825e-06
1.28781037734e-06
1.0829448127e-06
8.53849672538e-07
6.30629753185e-07
4.34815485178e-07
5.84484700602e-06
5.80502396124e-06
4.66399932163e-06
3.60092234787e-06
2.98789725348e-06
2.60314161785e-06
2.27951480108e-06
1.99547121673e-06
1.7779910339e-06
1.64283664561e-06
1.58510849202e-06
1.58304672147e-06
1.59879507978e-06
1.58548610943e-06
1.50658117311e-06
1.35544711806e-06
1.1536081749e-06
9.30072125434e-07
6.98862149898e-07
4.87499557981e-07
5.90442104002e-06
5.75927605043e-06
4.51403949308e-06
3.34746014203e-06
2.74233603595e-06
2.41151777541e-06
2.13163375059e-06
1.8840691166e-06
1.70689119745e-06
1.61885641249e-06
1.61029515854e-06
1.64778122541e-06
1.68032644388e-06
1.65845958673e-06
1.56201616595e-06
1.40326832523e-06
1.2045783997e-06
9.78403246335e-07
7.3117728904e-07
5.14632943599e-07
5.76723288721e-06
5.4053797624e-06
4.27778064942e-06
3.14612950979e-06
2.52965142558e-06
2.22876645602e-06
1.99425493982e-06
1.79374189309e-06
1.66740070896e-06
1.6331059753e-06
1.67132251261e-06
1.73187540832e-06
1.75434068425e-06
1.70527656961e-06
1.58847688634e-06
1.42263205732e-06
1.21677054636e-06
9.67275992939e-07
7.14692073256e-07
5.08086087941e-07
5.52026993287e-06
4.95453081439e-06
3.98388089283e-06
3.01898687258e-06
2.42993215211e-06
2.12242621657e-06
1.90709852847e-06
1.7480536556e-06
1.6754020469e-06
1.69174028536e-06
1.75705454344e-06
1.80684218665e-06
1.79310944402e-06
1.70983263696e-06
1.57198713936e-06
1.38608676487e-06
1.14681569582e-06
8.87479792253e-07
6.55345771779e-07
4.60209052362e-07
5.17124222778e-06
4.5821547748e-06
3.78698297697e-06
3.00574387262e-06
2.4533938476e-06
2.11254670027e-06
1.8885220065e-06
1.76006831209e-06
1.73292743674e-06
1.77615222627e-06
1.82842570314e-06
1.83329217805e-06
1.77091190179e-06
1.64898726955e-06
1.47662660055e-06
1.25293125152e-06
1.00584321493e-06
7.70499449971e-07
5.57279865168e-07
3.71813410043e-07
5.05024885525e-06
4.60017901913e-06
3.91167276227e-06
3.18348534956e-06
2.58088360735e-06
2.16891758415e-06
1.9208786932e-06
1.8112891084e-06
1.80283033714e-06
1.83018899765e-06
1.83001049688e-06
1.77143568207e-06
1.65565875634e-06
1.49321607516e-06
1.29581791707e-06
1.07343987993e-06
8.50106994706e-07
6.33011132946e-07
4.30411855272e-07
2.58023401989e-07
5.60803347271e-06
5.24821763188e-06
4.42435573263e-06
3.48133218215e-06
2.71125922305e-06
2.21601905062e-06
1.94759665654e-06
1.83961476488e-06
1.81415169051e-06
1.79018565885e-06
1.72291144853e-06
1.61004376287e-06
1.46432692074e-06
1.29659031776e-06
1.11446444078e-06
9.12591195883e-07
6.99639891424e-07
4.83841140046e-07
2.90454228002e-07
1.46105927859e-07
6.75659873437e-06
6.27469348134e-06
5.07447817721e-06
3.77568127709e-06
2.84305547207e-06
2.27112625189e-06
1.9563226559e-06
1.81295301983e-06
1.74343689414e-06
1.66610692363e-06
1.55759732815e-06
1.4268938711e-06
1.28433727577e-06
1.13477020631e-06
9.76797320651e-07
7.83092389127e-07
5.51705118929e-07
3.27806165847e-07
1.63770386173e-07
6.80743887904e-08
8.15260230499e-06
7.27212135509e-06
5.60443130229e-06
4.11856919298e-06
3.09474690199e-06
2.42218049924e-06
1.99765253226e-06
1.77055837425e-06
1.64809896843e-06
1.54016227666e-06
1.41982524742e-06
1.29250430984e-06
1.16312490064e-06
1.02723926041e-06
8.70306710897e-07
6.58484084012e-07
3.98398448198e-07
1.92204551287e-07
8.14008196135e-08
2.29319266747e-08
8.61537554594e-06
7.91524854634e-06
6.1551393652e-06
4.61697603702e-06
3.4889877185e-06
2.6697959665e-06
2.09498092424e-06
1.75847435145e-06
1.5784258796e-06
1.4522807643e-06
1.33472455748e-06
1.21869844061e-06
1.09847275715e-06
9.57178575496e-07
7.66501298857e-07
5.10416110645e-07
2.58060684263e-07
1.06408802766e-07
3.49450910736e-08
5.80428509388e-09
8.57098233143e-06
8.3316148619e-06
6.67005605118e-06
5.08213292246e-06
3.85446428122e-06
2.89186133395e-06
2.20467587091e-06
1.77124180345e-06
1.53368824777e-06
1.3910996051e-06
1.28243152824e-06
1.18040253828e-06
1.06005512771e-06
8.91036164748e-07
6.518267554e-07
3.75131093864e-07
1.66110338411e-07
6.26068886328e-08
1.34476056191e-08
3.45153668474e-09
8.59457743829e-06
8.59793517397e-06
6.97827085013e-06
5.33256179653e-06
4.02060190545e-06
3.02603136113e-06
2.2850998031e-06
1.78229988207e-06
1.4966096529e-06
1.33806873784e-06
1.23839783062e-06
1.14881106597e-06
1.02169059917e-06
8.21247187684e-07
5.49639007406e-07
2.83918746057e-07
1.20209621076e-07
4.25965454374e-08
6.42474550852e-09
2.97807956161e-09
8.33270559138e-06
8.43340453265e-06
7.17802607114e-06
5.64784637445e-06
4.17876569972e-06
3.10334326979e-06
2.3080601961e-06
1.77340754687e-06
1.46034758564e-06
1.28729915339e-06
1.19388271433e-06
1.11617034828e-06
9.85176846584e-07
7.64070161388e-07
4.79752370373e-07
2.36047633038e-07
1.01509796175e-07
3.57927423832e-08
6.5403608524e-09
2.95839925216e-09
8.05847776859e-06
8.06333642924e-06
7.26634595305e-06
6.03678293403e-06
4.54088770378e-06
3.25823713512e-06
2.3393857903e-06
1.76617733725e-06
1.43247259919e-06
1.2423692043e-06
1.14944444255e-06
1.08570712847e-06
9.60959046755e-07
7.3297120059e-07
4.47538508258e-07
2.20092469375e-07
9.79775584076e-08
3.8125069739e-08
1.04302884916e-08
4.08359500669e-09
7.6234417918e-06
7.67697560637e-06
7.29337976014e-06
6.36258829955e-06
4.9553939051e-06
3.5905669861e-06
2.49907122429e-06
1.83066602779e-06
1.44707126487e-06
1.22159261705e-06
1.11261265561e-06
1.06038060891e-06
9.5372452338e-07
7.32824632623e-07
4.5203829191e-07
2.28680203856e-07
1.05875388658e-07
4.82067598446e-08
1.9062480809e-08
7.84377697868e-09
2.77879476891e-08
3.73578556955e-08
5.6980089287e-08
8.44715225856e-08
1.12164874098e-07
1.36393802876e-07
1.57456248669e-07
1.76263244802e-07
1.98014811512e-07
2.38039993921e-07
3.10669123625e-07
3.810474734e-07
3.78489913884e-07
3.38622833644e-07
3.11545807176e-07
2.9120723281e-07
3.04516491595e-07
3.56507892507e-07
3.60444249156e-07
1.483959459e-06
2.70863673158e-08
3.44543648057e-08
4.96379850608e-08
7.16601408246e-08
9.57250266283e-08
1.17729050978e-07
1.37293421354e-07
1.56983118804e-07
1.86054034585e-07
2.40557764537e-07
3.14596344111e-07
3.49704116935e-07
3.28292635391e-07
3.05037616635e-07
2.91765633014e-07
2.78873442065e-07
3.0142331754e-07
3.73461336281e-07
3.82099098184e-07
2.22983920066e-06
2.66590786689e-08
3.23085580524e-08
4.42352425973e-08
6.20734445996e-08
8.31243263735e-08
1.03726157048e-07
1.22946186217e-07
1.45569383165e-07
1.84992476603e-07
2.50082363218e-07
3.10743641011e-07
3.16506692293e-07
2.95270144732e-07
2.83673112874e-07
2.74410786431e-07
2.67891070109e-07
3.07737009745e-07
3.95750961648e-07
4.08785856394e-07
2.98996203056e-06
2.65237199006e-08
3.08824728877e-08
4.0585692554e-08
5.5581562283e-08
7.43632088773e-08
9.45254302484e-08
1.15327238714e-07
1.44353847917e-07
1.95326084906e-07
2.62236920961e-07
2.97912244263e-07
2.86231356467e-07
2.74462518068e-07
2.68597543473e-07
2.53696634529e-07
2.52110265424e-07
3.24505494992e-07
4.19367613889e-07
5.48099539879e-07
3.61518165864e-06
2.66740979605e-08
3.01259099638e-08
3.84617273919e-08
5.18311022685e-08
6.94765177012e-08
9.02250414598e-08
1.15138560355e-07
1.53370142723e-07
2.12655398334e-07
2.67422230649e-07
2.7612477292e-07
2.6483120783e-07
2.62234587765e-07
2.57104511509e-07
2.34492457382e-07
2.35270831931e-07
3.40883603098e-07
4.37452597993e-07
7.31359274109e-07
4.04070639094e-06
2.70875215535e-08
2.99910169734e-08
3.76658403804e-08
5.05206957237e-08
6.8448919231e-08
9.11834230489e-08
1.21574664005e-07
1.68235407918e-07
2.26158249917e-07
2.57148491492e-07
2.53874724331e-07
2.5325137701e-07
2.53527960872e-07
2.43541411222e-07
2.15456509072e-07
2.29785177673e-07
3.56607602752e-07
5.62242832196e-07
2.11824365494e-06
4.30880001737e-06
2.77396350422e-08
3.04469514662e-08
3.80952789807e-08
5.14218935168e-08
7.08351906029e-08
9.65767314087e-08
1.31992876062e-07
1.80630702902e-07
2.23409153261e-07
2.36342458338e-07
2.40919861353e-07
2.45381643674e-07
2.43417715245e-07
2.24337173989e-07
1.91245401534e-07
2.37055023927e-07
3.69346161047e-07
7.3584721766e-07
3.97322756143e-06
4.50542060847e-06
2.86332235034e-08
3.14965831958e-08
3.97118163775e-08
5.43381030324e-08
7.58758147373e-08
1.04503921102e-07
1.42600393779e-07
1.80066680651e-07
2.05718126412e-07
2.21482902111e-07
2.32389114599e-07
2.35905994849e-07
2.29516769755e-07
2.01574433896e-07
1.67941981411e-07
2.46009631585e-07
4.78067767275e-07
1.6985981495e-06
4.16175096935e-06
4.67614330957e-06
2.98320780897e-08
3.31737616027e-08
4.24296027116e-08
5.87823020523e-08
8.24085143319e-08
1.13273994103e-07
1.45832923312e-07
1.62571610038e-07
1.90482030152e-07
2.11464297688e-07
2.21706577073e-07
2.2209937102e-07
2.09708477488e-07
1.74272145783e-07
1.52685295746e-07
2.41604960634e-07
5.77246932759e-07
2.70539579985e-06
3.70685172204e-06
4.8683629182e-06
3.14581082802e-08
3.54830290564e-08
4.59505677249e-08
6.38570038692e-08
8.90027948127e-08
1.17904179469e-07
1.33680921696e-07
1.45380536463e-07
1.79129118122e-07
1.9898629553e-07
2.06138172422e-07
2.02355267925e-07
1.83423130635e-07
1.43574151814e-07
1.39303604183e-07
2.71839599204e-07
1.35176807006e-06
2.60440678206e-06
2.50891009574e-06
5.07096250166e-06
3.3654236643e-08
3.83082628545e-08
4.96987530692e-08
6.84756976209e-08
9.27364361575e-08
1.1147051129e-07
1.17407306208e-07
1.34484519573e-07
1.65680255217e-07
1.81299083019e-07
1.84702025853e-07
1.76132535256e-07
1.52456714108e-07
1.20384363124e-07
1.28962041013e-07
3.15021026659e-07
2.2910834296e-06
2.25768197981e-06
1.2555329524e-06
5.08817731564e-06
3.65342405973e-08
4.13449435249e-08
5.28153120022e-08
7.0509941608e-08
8.94287248795e-08
1.00524616402e-07
1.07477288524e-07
1.24625342598e-07
1.4810114903e-07
1.58774917594e-07
1.5840055554e-07
1.46645617457e-07
1.22623305441e-07
1.04564246656e-07
1.32747208595e-07
6.74398081374e-07
2.4301168932e-06
1.45587477541e-06
7.70494371745e-07
4.60190996963e-06
3.99871029891e-08
4.40315830375e-08
5.41195069503e-08
6.845917698e-08
8.23578047167e-08
9.18039732857e-08
1.00418604019e-07
1.13962989348e-07
1.28899829435e-07
1.34879951766e-07
1.31683525505e-07
1.20407212047e-07
1.0144794219e-07
9.6587422279e-08
2.14019569892e-07
1.51887370501e-06
2.26325274697e-06
7.63543403007e-07
6.53497276915e-07
3.45761904874e-06
4.41670548877e-08
4.62893716448e-08
5.36039585802e-08
6.4074392955e-08
7.49056756339e-08
8.43084676315e-08
9.32605747621e-08
1.03448884938e-07
1.12299462004e-07
1.14735853232e-07
1.10380559524e-07
9.87291086438e-08
8.70941468475e-08
1.41835966501e-07
8.79233950826e-07
1.5763115659e-06
2.08263579366e-06
4.9193441775e-07
4.31845816955e-07
1.89762279797e-06
4.97297906795e-08
4.87969341342e-08
5.27471201918e-08
5.97368584313e-08
6.81913834474e-08
7.68063427688e-08
8.51917921261e-08
9.33884430384e-08
9.95159672478e-08
1.00241400251e-07
9.45189742567e-08
8.16416794061e-08
1.20347470996e-07
6.07059558087e-07
1.12973410949e-06
1.48040633559e-06
1.97568618984e-06
4.64984151561e-07
3.80143367989e-07
9.00841650336e-07
5.78614659874e-08
5.28220404685e-08
5.32466675258e-08
5.70787447606e-08
6.29881004093e-08
6.98855365549e-08
7.68991043787e-08
8.3588487207e-08
8.90998554469e-08
9.06008823816e-08
8.3035640506e-08
1.12121820756e-07
5.14865860462e-07
9.12049388279e-07
1.04968506076e-06
1.40558811971e-06
1.96102707929e-06
1.08240282603e-06
3.60546150187e-07
6.40479970326e-07
7.02504816264e-08
5.99423264519e-08
5.65049034658e-08
5.70950902216e-08
6.02395035253e-08
6.4871951562e-08
6.99573741292e-08
7.48710903516e-08
7.99928156633e-08
8.31672791963e-08
1.11842847885e-07
4.4952776871e-07
7.87873461773e-07
8.39236398608e-07
9.70750833289e-07
1.3522622611e-06
1.97438373168e-06
2.39374368427e-06
3.6585059703e-07
4.97232987865e-07
8.922906938e-08
7.18571021464e-08
6.36016446239e-08
6.04612168569e-08
6.05666434665e-08
6.26260000739e-08
6.54613542354e-08
6.83182554628e-08
7.23147005063e-08
7.66971805021e-08
1.20119292505e-07
6.16574286161e-07
7.25568767436e-07
7.67118998466e-07
9.07352055531e-07
1.31757277086e-06
1.96718102842e-06
1.9440161982e-06
3.75646253041e-07
4.85827929781e-07
1.16811370535e-07
8.98171709275e-08
7.5223449784e-08
6.74897844607e-08
6.40526815679e-08
6.31360664984e-08
6.33405289737e-08
6.38792173075e-08
6.61370146106e-08
7.04230722759e-08
1.10760614178e-07
5.71654143048e-07
6.68302012478e-07
7.08739164925e-07
8.60226451951e-07
1.28459939048e-06
1.92721535296e-06
1.0639643416e-06
3.76729475117e-07
4.79318206233e-07
1.53701945753e-07
1.1427155921e-07
9.15418059951e-08
7.80691228813e-08
7.02663972896e-08
6.57149644151e-08
6.28205669406e-08
6.09103397073e-08
6.12752381786e-08
6.48761896688e-08
9.95838260836e-08
5.26324496393e-07
6.27118367217e-07
6.63459537918e-07
8.1537928793e-07
1.22806255638e-06
1.85663946328e-06
4.9792506232e-07
3.69802772117e-07
4.61702775077e-07
1.99134906739e-07
1.44775991862e-07
1.12059625323e-07
9.14689795799e-08
7.82179141245e-08
6.92765314016e-08
6.29516956096e-08
5.87388756735e-08
5.76233581193e-08
6.08017848679e-08
9.10510917555e-08
4.62155001323e-07
6.02329677342e-07
6.2780204487e-07
7.63102389653e-07
1.15091585292e-06
1.78151002883e-06
3.55422074063e-07
3.59023461031e-07
6.89567689802e-07
2.49099959952e-07
1.78876311051e-07
1.34908111463e-07
1.05980618703e-07
8.62676650733e-08
7.23888833828e-08
6.27367491719e-08
5.69196414702e-08
5.53323905278e-08
5.86397531132e-08
8.6601535553e-08
3.51879602509e-07
5.85765261723e-07
5.99953266701e-07
7.20375432339e-07
1.10308829937e-06
1.61437419685e-06
2.59455665493e-07
3.46631448409e-07
1.6310857998e-06
2.97916490734e-07
2.12780335756e-07
1.57057781479e-07
1.18857634789e-07
9.20130256763e-08
7.32583734399e-08
6.11906063127e-08
5.51852573012e-08
5.45750498609e-08
5.86695526069e-08
7.5724168078e-08
2.21032968794e-07
5.50763969828e-07
5.78043852919e-07
7.26677480328e-07
1.13546332039e-06
2.9374045005e-07
2.61639041191e-07
3.48525825383e-07
2.84932235933e-06
3.38169164208e-07
2.40585360567e-07
1.7340030075e-07
1.25697896184e-07
9.20953369713e-08
6.99525161227e-08
5.77668571889e-08
5.38583652677e-08
5.58506020233e-08
6.11168644071e-08
6.7939084054e-08
1.37037051877e-07
4.62637386268e-07
5.41886738705e-07
7.48388275386e-07
2.2585254373e-07
2.08910253413e-07
2.64574167448e-07
3.66740126214e-07
2.47971642272e-06
3.60329750588e-07
2.53271074069e-07
1.76034662694e-07
1.20244638619e-07
8.27233155088e-08
6.14398563836e-08
5.34616902523e-08
5.47458847906e-08
6.04954263448e-08
6.62349705532e-08
6.97596485338e-08
1.00467916238e-07
2.47696649038e-07
2.25902880516e-07
1.24756088192e-07
1.69226121254e-07
2.0685872143e-07
2.91777282618e-07
3.92920502435e-07
1.60124129777e-06
3.52791591147e-07
2.39519562683e-07
1.55498456287e-07
9.70009536945e-08
6.36980398163e-08
5.15999182655e-08
5.35232291253e-08
6.17474804913e-08
6.91990066469e-08
7.1738376422e-08
7.07021858305e-08
6.61825300928e-08
6.07163002665e-08
7.88336235165e-08
1.26736428844e-07
1.72222826002e-07
2.29007634351e-07
3.41481952697e-07
4.15782220514e-07
7.54046871217e-07
3.06753416337e-07
1.91820233864e-07
1.08714835654e-07
6.18376521242e-08
4.71412167996e-08
5.1623449377e-08
6.30199732724e-08
7.15487309066e-08
7.27045832662e-08
6.85962444986e-08
6.376360526e-08
5.57047265629e-08
5.0338471285e-08
6.01384617252e-08
1.18334586822e-07
1.9745370637e-07
3.03075516756e-07
4.45311161837e-07
4.27120433576e-07
5.90096019547e-07
2.25434337753e-07
1.17558928034e-07
5.65968961397e-08
4.03887626635e-08
4.72507129493e-08
6.04777363913e-08
6.82926118748e-08
6.73205416494e-08
6.16892391703e-08
5.61299270136e-08
5.17152730578e-08
4.42607474021e-08
3.78126412413e-08
4.02096930417e-08
1.23364770688e-07
2.85452506721e-07
4.57227798521e-07
5.21183427051e-07
4.48740800313e-07
5.63355809271e-07
1.29445414761e-07
5.26985119317e-08
3.25134413497e-08
3.94210249878e-08
5.25381535155e-08
6.07414219755e-08
6.10939724975e-08
5.68237628463e-08
5.10294292251e-08
4.55270582187e-08
4.0725006815e-08
3.51846146829e-08
2.98529710487e-08
3.41193440895e-08
1.7162941784e-07
3.55639952997e-07
4.9643774081e-07
5.59066075004e-07
4.8759525518e-07
5.71151672065e-07
5.61352729056e-08
2.48104121613e-08
2.96571543138e-08
4.22175940982e-08
5.13854322584e-08
5.53182482326e-08
5.38610255543e-08
4.88343729324e-08
4.28903805599e-08
3.74501831711e-08
3.2941240027e-08
2.88346325257e-08
2.47910797635e-08
6.35856084761e-08
2.32110828138e-07
3.97275822772e-07
5.29154599875e-07
5.99742372463e-07
5.3730179703e-07
6.19245225586e-07
1.93020968882e-08
1.98793067655e-08
3.08651092696e-08
4.095579331e-08
4.7838448247e-08
4.92646386359e-08
4.63589472386e-08
4.12985204938e-08
3.59955630401e-08
3.14741636211e-08
2.79393381728e-08
2.5041179651e-08
2.32011906578e-08
1.36136903183e-07
2.99541551891e-07
4.36611071488e-07
5.59023873073e-07
6.4059188932e-07
5.91279349039e-07
7.00181357985e-07
1.11065936412e-08
1.98687460166e-08
2.99744503222e-08
3.85423574406e-08
4.28864025214e-08
4.26489975627e-08
3.92899666316e-08
3.47110210792e-08
3.04160378522e-08
2.72839779363e-08
2.54279373604e-08
2.48198820015e-08
4.80893578537e-08
2.0896887208e-07
3.48491349717e-07
4.60850868701e-07
5.77075617578e-07
6.76030995196e-07
6.49362740744e-07
8.18884368379e-07
9.29453904393e-09
1.84671978217e-08
2.77466100392e-08
3.46564293967e-08
3.74021347334e-08
3.62064645148e-08
3.26516572438e-08
2.88133505653e-08
2.62862555911e-08
2.57140834559e-08
2.77265977627e-08
4.01042425517e-08
1.32774091407e-07
2.72491443301e-07
3.73273442199e-07
4.64431296344e-07
5.74337242246e-07
6.97196623385e-07
7.13566297818e-07
1.08343090866e-06
8.41858106031e-09
1.63628668354e-08
2.43771164674e-08
3.00884754809e-08
3.19664639881e-08
3.026503475e-08
2.70506734044e-08
2.5183427045e-08
2.76635369407e-08
3.43928587188e-08
4.87845796167e-08
9.77253573269e-08
2.08989933012e-07
2.99284135247e-07
3.70947779315e-07
4.44835475664e-07
5.45920665932e-07
6.93704000273e-07
7.83326627634e-07
1.99752383078e-06
6.99943086561e-09
1.36617386738e-08
2.05263573835e-08
2.52802943043e-08
2.64691845711e-08
2.45746831957e-08
2.327400309e-08
2.92493905041e-08
4.07875223497e-08
5.92258813628e-08
9.2274771023e-08
1.57529408176e-07
2.33512140703e-07
2.93270904391e-07
3.47908593424e-07
4.09838202115e-07
5.00260909598e-07
6.610293973e-07
8.3474904504e-07
4.05110811995e-06
5.63421309169e-09
1.11120240497e-08
1.69074755172e-08
2.07084795206e-08
2.13653354355e-08
2.06895632015e-08
2.57167555698e-08
3.77308239824e-08
5.51797813791e-08
7.92236371571e-08
1.17236317635e-07
1.71829059771e-07
2.25131708972e-07
2.70785906355e-07
3.17261357219e-07
3.74551116254e-07
4.58876487127e-07
6.23671897702e-07
9.69949445554e-07
6.62988709306e-06
5.0168913038e-09
9.2039125241e-09
1.3956170628e-08
1.70715961289e-08
1.81233432607e-08
2.15437963259e-08
3.04165188522e-08
4.43310150176e-08
6.14539475853e-08
8.32554151642e-08
1.14801381475e-07
1.5868047929e-07
2.05445953027e-07
2.47505093965e-07
2.92825456706e-07
3.51425060764e-07
4.35787826356e-07
6.00702951525e-07
1.25579794627e-06
9.49114339926e-06
5.99505970335e-09
8.49826851873e-09
1.22564707098e-08
1.53227456155e-08
)
;

boundaryField
{
    emptyPatch
    {
        type            empty;
    }
    minY
    {
        type            calculated;
        value           nonuniform List<scalar> 0();
    }
    maxY
    {
        type            calculated;
        value           nonuniform List<scalar> 0();
    }
    maxX
    {
        type            nutkWallFunction;
        blending        stepwise;
        value           uniform 0;
    }
    water_to_heater
    {
        type            nutkWallFunction;
        blending        stepwise;
        value           uniform 0;
    }
    procBoundary1to0
    {
        type            processor;
        value           nonuniform List<scalar> 
41
(
7.04646109622e-06
7.31359970161e-06
7.21438916938e-06
6.5279959547e-06
5.28788576233e-06
3.98517261491e-06
2.8179582305e-06
2.0238646208e-06
1.54775017272e-06
1.25634462644e-06
1.10083473185e-06
1.04195223128e-06
9.59397374118e-07
7.60427579202e-07
4.89531630307e-07
2.59551171602e-07
1.25865562513e-07
6.53553328923e-08
3.34099107241e-08
1.58409625906e-08
1.84246732771e-08
2.44774370042e-08
3.44340320827e-08
4.66616355864e-08
5.96979520836e-08
7.61705834748e-08
1.01361953977e-07
1.39893408928e-07
1.89754101342e-07
2.33650285382e-07
2.81627451942e-07
3.44177294318e-07
4.31392581049e-07
5.95135868528e-07
1.35788487351e-06
1.22694688326e-05
9.74763701557e-09
9.8460915449e-09
1.26450016104e-08
1.84246732771e-08
1.60797112694e-08
)
;
    }
    procBoundary1to3
    {
        type            processor;
        value           nonuniform List<scalar> 
41
(
1.48828448366e-06
1.33589279126e-06
1.20259703092e-06
1.08191929789e-06
9.51276998853e-07
7.7062699426e-07
5.29104664637e-07
2.90771561422e-07
1.36962709142e-07
6.5500252261e-08
3.73757387118e-08
2.73514954765e-08
2.51716734187e-08
5.09986749964e-06
4.50337635933e-06
3.77723264687e-06
3.06724213358e-06
2.45195625602e-06
2.01404371934e-06
1.7367067119e-06
1.7367067119e-06
2.87094214734e-08
4.10143572737e-08
6.62756426757e-08
9.99472998587e-08
1.31955185305e-07
1.59161720872e-07
1.81934904458e-07
2.0061311231e-07
2.18323575318e-07
2.45473180722e-07
3.03521191715e-07
3.96248740283e-07
4.48371903785e-07
4.03023187719e-07
3.47738171383e-07
3.14406022728e-07
3.04827150648e-07
3.41351377551e-07
3.48919661692e-07
1.21646086021e-06
)
;
    }
}

