/*--------------------------------*- C++ -*----------------------------------*\
| =========                 |                                                 |
| \\      /  F ield         | OpenFOAM: The Open Source CFD Toolbox           |
|  \\    /   O peration     | Version:  2312                                  |
|   \\  /    A nd           | Website:  www.openfoam.com                      |
|    \\/     M anipulation  |                                                 |
\*---------------------------------------------------------------------------*/
FoamFile
{
    version     2.0;
    format      ascii;
    arch        "LSB;label=32;scalar=64";
    class       volScalarField;
    location    "0.07/water";
    object      alpha.gas;
}
// * * * * * * * * * * * * * * * * * * * * * * * * * * * * * * * * * * * * * //

dimensions      [0 0 0 0 0 0 0];

internalField   nonuniform List<scalar> 
750
(
0.864497826713
0.860921583994
0.869141159886
0.918797112127
0.901605625012
0.745635009931
0.704036441795
0.872003076919
0.876580806032
0.81527164505
0.911424459344
0.962449423446
0.983136282405
0.983117141619
0.565171086892
0.0163233102517
0.00691735955748
0.0131442342792
0.0132395218363
0.0101667987722
0.00804721323796
0.00616745090103
0.00492159774574
0.00442235098757
0.00438244921848
0.00454780818816
0.00622680026184
0.0379205068698
0.219420239011
0.633683615622
0.900482056622
0.964879677613
0.983114101161
0.983143982235
0.669666094724
0.025316132829
0.00412330007221
0.00934315904852
0.010649934824
0.00921676010552
0.00759292625285
0.00593529481277
0.00480277304867
0.00432592745454
0.00427201220463
0.00443149008371
0.0062056072731
0.0399129310221
0.243445322487
0.602125100218
0.89446644409
0.966693442631
0.983129888976
0.983114101161
0.74331222348
0.0389651600321
0.00248847677319
0.00613934703401
0.00753035683176
0.00727569896872
0.0064210458138
0.0052575240913
0.00447997346262
0.00421662652631
0.00420693778335
0.00442098969951
0.00669371734369
0.0517438399379
0.30866535278
0.596674863636
0.892142387411
0.967304326587
0.983111441962
0.983142788832
0.761907489991
0.0433952368018
0.0015508554745
0.00404743142624
0.00520316641481
0.00540900432144
0.00507041527159
0.00446957636774
0.00418304928728
0.00415241095446
0.00418244129156
0.00453872168939
0.00814224068361
0.0801139178083
0.39874156169
0.596668736749
0.888689274915
0.964426549966
0.983125602804
0.983114573548
0.756037917111
0.0420393362627
0.00138734998097
0.00297346531547
0.00391069952348
0.00426083900712
0.00417321052936
0.00405810920115
0.00406690809048
0.00413170840044
0.00426158811635
0.00492253705243
0.0116912946178
0.127761989756
0.477219325885
0.596662610072
0.880714241635
0.954382237178
0.983114573548
0.983150095342
0.733133204442
0.0370633312972
0.00138695372505
0.00247196189612
0.00331701663225
0.00380634794857
0.00389965679525
0.00396762088746
0.00406751706183
0.00420892137096
0.00450488142662
0.00569577121838
0.0183971072579
0.180144397459
0.526065060486
0.596656483805
0.871239058832
0.940283118257
0.983126412964
0.983117709162
0.686905300881
0.0286583302616
0.0013865575779
0.00214770174071
0.00294482713455
0.00359155888706
0.00381669013992
0.00396434249565
0.0041284618427
0.00440162687668
0.00495754705061
0.00697870052728
0.0277673921944
0.2242329852
0.560293347142
0.596650342368
0.86777116309
0.932113418498
0.983115291291
0.983151509422
0.628575856145
0.0206666222012
0.00138616141262
0.00187826848218
0.00261490979225
0.00340777800706
0.00374657111674
0.00397090788275
0.00423849777835
0.0047013255626
0.00566063919562
0.0089971022094
0.0391855536297
0.267313534993
0.596640057424
0.596644200663
0.867780504865
0.931829311608
0.983128192544
0.983115291291
0.577939343849
0.0155801095299
0.00138576523441
0.00171968317685
0.00239413465734
0.00327089763371
0.00369602400705
0.00398834508156
0.00435082168172
0.00499725607121
0.00636393383201
0.0109535032512
0.0499124045185
0.323145736345
0.596635463565
0.596638060097
0.879426956719
0.939945091464
0.983112066799
0.983148458494
0.55385819627
0.013312523395
0.00138536916295
0.00167238601157
0.00231420846108
0.00321768291843
0.00368532902893
0.0040101473561
0.00439889161116
0.00505426507073
0.00640787479072
0.011037926948
0.0565699862987
0.371229244732
0.596630744223
0.596631899155
0.902354372927
0.956821402677
0.983126949736
0.983112066799
0.558484143982
0.0139232303469
0.00138497307411
0.00163190931495
0.00226649934364
0.00318377403951
0.00367398089935
0.00400556615418
0.00437939219418
0.0049838945775
0.00619914528927
0.010418562432
0.0573133031466
0.405834712067
0.596625787464
0.59662573793
0.92364240418
0.972362238412
0.9831089442
0.98313462782
0.57869123015
0.0160350985213
0.00138457697321
0.0015785746918
0.00221196613789
0.00314023511158
0.00364952117025
0.00397792146179
0.00430612971125
0.004778537892
0.00566649907982
0.00887458194033
0.0527509639032
0.413773778549
0.596620608192
0.596619578307
0.93639866198
0.979974852397
0.983115748411
0.9831089442
0.619946005075
0.0207332612644
0.00138418097699
0.00149721695095
0.00213906598239
0.00307437422328
0.00360341657768
0.00392183636233
0.00418359862838
0.00447958723047
0.00496138039721
0.00686964926666
0.0405294504073
0.3961335961
0.596615515803
0.596613401403
0.944568387115
0.981417847858
0.983105840122
0.983109492133
0.701151324546
0.036818668046
0.00138378496292
0.00138338893546
0.00202557307198
0.00296943641218
0.00352352517059
0.00383853212191
0.00404320562183
0.0041907391212
0.00435057846517
0.00520552885431
0.0240116855997
0.333634102249
0.596609870914
0.596607242952
0.951112595369
0.979267772677
0.983104798138
0.981230054383
0.842720140506
0.0916264240998
0.00157632622359
0.00138299300753
0.00189711816447
0.00283246548497
0.00341106314708
0.00372768344064
0.00390842337894
0.00398074978526
0.0039743408548
0.00425775746649
0.0107123217142
0.220780080656
0.59660381181
0.596601087276
0.93736347443
0.973967369443
0.981773901822
0.980115303069
0.942783626583
0.200849992174
0.00303932887454
0.00138259706195
0.00177509707879
0.00266617590843
0.00329000724297
0.00360170613152
0.00378720090027
0.00379371596815
0.00372832781945
0.0038050078923
0.00561181473865
0.114251177032
0.568623016901
0.596594871391
0.901773821741
0.96487250498
0.97605799474
0.977971699682
0.975097947905
0.356348124941
0.00688299253509
0.0013822011035
0.00157953643894
0.00244556802866
0.00317562524658
0.00348732018683
0.00366457185135
0.00365443871231
0.00357275978506
0.00359200838561
0.00440746321656
0.0525965364056
0.493243096504
0.596588651315
0.883866467321
0.948619670518
0.963488297761
0.972422545329
0.975095168378
0.607606601174
0.0296156844467
0.00138180524572
0.00138140937223
0.00213533297225
0.00299679096907
0.00335097046729
0.00353772227153
0.00352879241745
0.00346963954013
0.00344716819646
0.00395879469674
0.0239980291269
0.382484273218
0.596582433817
0.897430565237
0.92765147564
0.947778035954
0.964526956455
0.971469878969
0.868542105556
0.116902218242
0.00194137083332
0.00138101348188
0.00184278907197
0.00276715191275
0.00319022953537
0.00340644024482
0.00340152070544
0.00335839502887
0.00332057067982
0.00375642491573
0.018075646396
0.327065603735
0.596576174216
0.892919882313
0.913770026634
0.938757397976
0.960183576065
0.971934180991
0.967220304635
0.293998558325
0.00499656224454
0.00138061768707
0.00149607710356
0.002508113986
0.00303630505515
0.00328319878259
0.0032809188672
0.00324403102775
0.00322336040459
0.00372231313874
0.0194329313987
0.340360505141
0.588272652837
0.870594883811
0.911466447658
0.939159842513
0.960777314646
0.974612558641
0.988236728564
0.563990013126
0.0208354884333
0.00138022187494
0.00137982605183
0.0022254732941
0.00283613915434
0.00315144890939
0.00316432191609
0.00313005739896
0.003151550354
0.00376487720518
0.0229639183873
0.394125326948
0.537502486993
0.843690372891
0.917660525569
0.945765435382
0.966459634873
0.981299474881
0.988884461712
0.819326815206
0.0918465258061
0.00158621464867
0.00137943032037
0.00195526455759
0.00257641708663
0.00297640799372
0.00305797008899
0.00303696632735
0.00308339190526
0.00384445882283
0.0288019688037
0.470535978819
0.511927201839
0.840060078239
0.923668285255
0.955432649866
0.976434781794
0.987991832154
0.988889579185
0.916213002621
0.181192532698
0.00286403127624
0.00137903457171
0.00178542537596
0.00235421231454
0.00279879155548
0.00295767763093
0.00295766273517
0.00303040863093
0.00403510921497
0.0387829347593
0.573734639664
0.512344967241
0.86786396037
0.920308544052
0.959977596394
0.984500102695
0.98888999896
0.988884461712
0.929076357295
0.233795339252
0.00459197349428
0.00137863881031
0.00167981475754
0.0021781246169
0.00262258420264
0.002840516227
0.00288708660329
0.00301458174188
0.00429401040064
0.0509717705289
0.590157274429
0.544532367849
0.879403277626
0.915021045275
0.960221803128
0.987764837985
0.988884461712
0.988888380919
0.9229865136
0.242821887778
0.00557586859172
0.00137824316335
0.00162758656886
0.00205880372761
0.00248353960556
0.00275988788529
0.00287199049931
0.00305018381033
0.00466122570271
0.0620245201043
0.590138769209
0.631504659907
0.872328520877
0.916519605643
0.963618649099
0.988656935109
0.988889575167
0.988884461712
0.897968357176
0.225992222431
0.00535398115293
0.0013778475058
0.00162758253975
0.00204105543866
0.00246405009757
0.00277281689507
0.00294882364772
0.00325072188414
0.0059228761396
0.0845405550519
0.604228434218
0.750497486342
0.850841154393
0.926825326672
0.970993072608
0.988884646847
0.988884461712
0.988598419402
0.826880512391
0.159920874946
0.00350542203649
0.00137745182737
0.00167014166733
0.00210918769754
0.00256502664498
0.00298362158548
0.00337187137214
0.00408024991947
0.0112031810342
0.150451456172
0.670472821403
0.841942923063
0.843128261372
0.938572650063
0.975603978983
0.988884461712
0.988887373045
0.985257212178
0.655300443903
0.0684178422783
0.0014840429391
0.00137534557625
0.00179210671998
0.00233038196923
0.00288290816687
0.00346611543321
0.00400432875681
0.00526403110074
0.0252659710325
0.306329985181
0.78296040308
0.869009893529
0.878353524098
0.942220057324
0.975332855737
0.988811474945
0.988884461712
0.952254513668
0.386704030752
0.0166642517156
0.000927442173708
0.0013151973389
0.00182919759057
0.00239390205931
0.00296957633085
0.00350413843458
0.00398965957426
0.00632682585205
0.0697738193888
0.566244871405
0.858457721921
0.874865420112
0.914993084105
0.940905381941
0.971830308245
0.988063271063
0.987366277578
0.814182718542
0.135490809837
0.00219424003369
0.00086372198148
0.00126951710062
0.00180102132922
0.00234826532334
0.00289662247687
0.00330376131377
0.00382310491661
0.0108334915734
0.232033020444
0.795569102332
0.875709538555
0.875643164349
0.920104417062
0.939172647
0.968141439267
0.985676365016
0.973575390864
0.513423938322
0.025853843224
0.000380729760328
0.000726262683377
0.00118505104818
0.00167674623041
0.00215885409822
0.00260419112583
0.00281368849375
0.00355493033822
0.0370259138918
0.525335655974
0.867068103469
0.875712962218
0.875690934347
0.904798682206
0.93699106212
0.967372209543
0.980073408488
0.877744638418
0.197805356902
0.00288562118344
0.000375599073838
0.000573176925947
0.000962937365665
0.00137245060297
0.00177960479621
0.00201360844589
0.00215632749741
0.00386384464568
0.141196804188
0.760608620509
0.870153966371
0.873503461464
0.875694578711
0.889373110988
0.936386372855
0.967373398683
0.96542843345
0.594597084469
0.0401473572122
0.000391668923552
0.000375583949268
0.000417140699788
0.000660729964695
0.000968603688142
0.00127864521582
0.00133765375028
0.00148683055369
0.00903718985614
0.358319437888
0.862525234114
0.86803125592
0.860098784281
0.874276109894
0.894806177357
0.939765696398
0.96528526418
0.893091281595
0.259038492153
0.00516770488164
0.000375580761457
0.000375554935449
0.000375461050119
0.000394418667805
0.000563266580522
0.000776354587397
0.0008357725829
0.00117447602287
0.0410907301602
0.609921347758
0.89011533814
0.864090917422
0.842378198686
0.870213902421
0.916485063641
0.945652381907
0.959379291788
0.678362733301
0.0681296960783
0.000548913396689
0.000375554121947
0.000375449658224
0.000375384632526
0.000375381031789
0.000375379357521
0.000414445023498
0.000518427368651
0.00209732812465
0.152900860049
0.79413622623
0.90141777852
0.864855867558
0.840646199028
0.864910113111
0.94114585929
0.949773355574
0.91871216553
0.406149142004
0.0162749332258
0.000375562440137
0.000375454465062
0.000375384783955
0.000375380864506
0.000375377206458
0.000375346673444
0.000375230960495
0.000471122118825
0.0115078131569
0.372031791936
0.874653429121
0.906695944717
0.872635514276
0.840646445457
0.861194846156
0.950283060092
0.950118128341
0.83656681057
0.166646667068
0.00239905696189
0.000375450495103
0.000375389412874
0.000375381343118
0.000375373312616
0.000375358345821
0.000375241798353
0.000375209939434
0.000591353399671
0.0544211172857
0.591026357237
0.892633209196
0.908200328895
0.883631411756
0.851271883395
0.867760233055
)
;

boundaryField
{
    emptyPatch
    {
        type            empty;
    }
    minY
    {
        type            fixedValue;
        value           nonuniform List<scalar> 0();
    }
    maxY
    {
        type            inletOutlet;
        phi             phi.gas;
        inletValue      uniform 1;
        value           nonuniform List<scalar> 
20
(
0.950283060092
0.950118128341
0.83656681057
0.166646667068
0.00239905696189
0.000375450495103
0.000375389412874
0.000375381343118
0.000375373312616
0.000375358345821
0.000375241798353
0.000375209939434
0.000591353399671
0.0544211172857
0.591026357237
0.892633209196
0.908200328895
0.883631411756
0.851271883395
0.867760233055
)
;
    }
    maxX
    {
        type            zeroGradient;
    }
    water_to_heater
    {
        type            zeroGradient;
    }
    procBoundary2to1
    {
        type            processor;
        value           nonuniform List<scalar> 
20
(
0.922003746126
0.960881039263
0.983117141619
0.983146191672
0.437111643812
0.0121568679446
0.0107740473469
0.0170488408642
0.0140082624564
0.0100436892953
0.00787903032431
0.00602456629456
0.00484546467171
0.0045006761912
0.00452894962363
0.00481768786374
0.0074824758404
0.0523996344672
0.237869757687
0.704988741248
)
;
    }
    procBoundary2to3
    {
        type            processor;
        value           nonuniform List<scalar> 
39
(
0.882565922832
0.862876907144
0.853646542325
0.852992157921
0.852998946232
0.857144744004
0.866080062943
0.87453321613
0.876471771321
0.870322075725
0.863612262047
0.863612262047
0.817003042998
0.787421583793
0.808045888252
0.90329351147
0.890177909929
0.63930389954
0.625462443854
0.873271235726
0.876647164392
0.787157666556
0.63101445242
0.63101445242
0.599179882945
0.820658048952
0.859660870996
0.825493287954
0.649030110492
0.548820939219
0.811958587042
0.913678620638
0.917216872509
0.893548012649
0.875137246843
0.876095712462
0.905380409414
0.936894268041
0.950284918801
)
;
    }
}


// ************************************************************************* //
