/*--------------------------------*- C++ -*----------------------------------*\
| =========                 |                                                 |
| \\      /  F ield         | OpenFOAM: The Open Source CFD Toolbox           |
|  \\    /   O peration     | Version:  2312                                  |
|   \\  /    A nd           | Website:  www.openfoam.com                      |
|    \\/     M anipulation  |                                                 |
\*---------------------------------------------------------------------------*/
FoamFile
{
    version     2.0;
    format      ascii;
    arch        "LSB;label=32;scalar=64";
    class       volScalarField;
    location    "0.86/heater";
    object      T;
}
// * * * * * * * * * * * * * * * * * * * * * * * * * * * * * * * * * * * * * //

dimensions      [0 0 0 1 0 0 0];

internalField   nonuniform List<scalar> 
150
(
788.77586946
788.653074353
788.408123509
788.042365382
787.557966517
788.627657235
788.494522449
788.22780888
787.826544656
787.28900125
788.505924735
788.370919585
788.100842029
787.695579372
787.155007962
788.434641655
788.299647435
788.029661805
787.624700484
787.084798928
788.403866636
788.269535252
788.00092937
787.598177785
787.061467925
788.393295874
788.259370586
787.991596905
787.590097566
787.054803103
788.38930836
788.255485272
787.987917638
787.586689654
787.051540729
788.385576977
788.251781472
787.984301039
787.583275987
787.048378623
788.378422028
788.24451787
787.97685001
787.575696149
787.040899903
788.366979703
788.232830384
787.964646852
787.56278147
787.027471843
788.352867397
788.218450803
787.949676569
787.546878789
787.010729193
788.338123679
788.203491824
787.934232164
787.530601491
786.993711424
788.323925079
788.189098372
787.919397626
787.514835926
786.976609635
788.311293594
788.176297712
787.906266784
787.501043703
786.960835346
788.300925052
788.165784434
787.895496649
787.48991488
786.94854969
788.293212146
788.157987722
787.887559301
787.481836534
786.940318286
788.287668696
788.152396128
787.881897812
787.4761326
786.934634669
788.283436033
788.148086559
787.877455777
787.471560285
786.9300038
788.2803488
788.144909355
787.874113555
787.468042368
786.926390991
788.27855796
788.143075233
787.872211322
787.466124109
786.924564174
788.277495851
788.141986206
787.871089308
787.465087126
786.92385441
788.276459092
788.140887641
787.869853956
787.463718475
786.92262385
788.275724535
788.140086839
787.868880098
787.462489966
786.921516337
788.276024087
788.140380677
787.869111667
787.462580763
786.922237123
788.277454082
788.141827434
787.870527921
787.463649293
786.922867791
788.280189533
788.144537001
787.873174765
787.465968402
786.923157282
788.285692812
788.150014891
787.87862133
787.471400954
786.92806267
788.295964145
788.160333013
787.889036016
787.481979807
786.93901523
788.312981206
788.177439443
787.906315501
787.49949604
786.9568202
788.339542348
788.204062313
787.933039131
787.52633162
786.983764438
)
;

boundaryField
{
    emptyPatch
    {
        type            empty;
    }
    minY
    {
        type            zeroGradient;
    }
    maxY
    {
        type            zeroGradient;
    }
    minX
    {
        type            zeroGradient;
    }
    heater_to_water
    {
        type            compressible::turbulentTemperatureTwoPhaseRadCoupledMixed;
        refValue        nonuniform List<scalar> 
60
(
304.691073607
325.675868378
325.67851288
326.613736122
326.615133025
326.331682776
326.33243778
324.832923478
322.697308858
321.858196674
321.858316826
321.712256164
321.712347286
321.625850903
321.625940981
321.726105503
321.668672473
321.79596786
321.796142644
321.71927613
321.719478047
321.720021241
321.720225148
321.505448663
320.420626878
320.289521031
320.28970573
322.69230361
322.692470715
325.557927707
325.558067615
325.814566547
326.125080676
326.001836077
326.001944715
326.198233799
326.198332565
325.972455043
325.972536923
326.106028104
325.852996392
325.954330292
325.954405907
325.750878645
325.750953264
325.653165075
325.653222372
323.525929651
320.352203462
320.049740521
320.049799857
324.938963686
324.938980546
330.487783583
330.487729538
331.832457843
331.663744617
332.386771463
332.386533935
331.952133179
)
;
        refGradient     uniform 0;
        valueFraction   nonuniform List<scalar> 
60
(
0.000601133450333
0.000733658943167
0.000733583251039
0.00073361984488
0.000733581212748
0.000733614267528
0.000733593132253
0.00072957448826
0.000722283949329
0.000720204830839
0.000720200834522
0.000720531227034
0.000720528171496
0.000720189537869
0.000720186503995
0.000720866591929
0.000720137338857
0.000720835341563
0.000720829484196
0.000720113232194
0.000720106444818
0.000720270654643
0.00072026379587
0.000719690146515
0.000714812671892
0.00071461152981
0.000714604910777
0.000725448769218
0.00072544333821
0.000736004872499
0.000736000780833
0.000735531081937
0.000736476183953
0.000735649889439
0.0007356467648
0.000736596091442
0.000736593268228
0.000735641928084
0.000735639569661
0.000736528078733
0.00073551841108
0.000736246211778
0.000736244029743
0.000735453006486
0.000735450837761
0.000735565187104
0.000735563514698
0.000728801360579
0.000715058704317
0.000715423782475
0.00071542161149
0.000735695254526
0.00073569474646
0.000745464139012
0.000745465484951
0.000745985757209
0.000745499184173
0.000746048137048
0.000746053710682
0.000745517657074
)
;
        source          uniform 0;
        value           nonuniform List<scalar> 
60
(
787.269063585
787.220466914
786.951739389
786.952408595
786.818535576
786.81831241
786.748170238
786.748927835
786.727449521
786.727810659
786.721171271
786.720912332
786.717659256
786.717754542
786.714604655
786.714360331
786.707182679
786.706949606
786.693528459
786.69380633
786.677065633
786.676989619
786.65997806
786.660090392
786.644449194
786.644449349
786.628694948
786.625377379
786.613167003
786.610372722
786.602165027
786.602570401
786.596686282
786.596976382
786.592347357
786.59205437
786.588444324
786.58871647
786.586896362
786.586585121
786.586155992
786.58589503
786.584670004
786.584884957
786.583778385
786.583653721
786.584357402
786.585926209
786.590560685
786.59017396
786.590495494
786.584627177
786.589600938
786.589224005
786.600161724
786.600927392
786.618810282
786.61909976
786.646015181
786.645935017
)
;
        kappaMethod     solidThermo;
        Tnbr            T.liquid;
        region          solid;
        otherPhase      gas;
    }
    procBoundary2to3
    {
        type            processor;
        value           nonuniform List<scalar> 5(788.379211943 788.243889616 787.973115193 787.566652157 787.02422534);
    }
}


// ************************************************************************* //
