/*--------------------------------*- C++ -*----------------------------------*\
| =========                 |                                                 |
| \\      /  F ield         | OpenFOAM: The Open Source CFD Toolbox           |
|  \\    /   O peration     | Version:  2312                                  |
|   \\  /    A nd           | Website:  www.openfoam.com                      |
|    \\/     M anipulation  |                                                 |
\*---------------------------------------------------------------------------*/
FoamFile
{
    version     2.0;
    format      ascii;
    arch        "LSB;label=32;scalar=64";
    class       volScalarField;
    location    "0.77/water";
    object      rhom;
}
// * * * * * * * * * * * * * * * * * * * * * * * * * * * * * * * * * * * * * //

dimensions      [1 -3 0 0 0 0 0];

internalField   nonuniform List<scalar> 
1496
(
570.788666331
598.025886218
598.787758457
593.506464076
584.006711474
578.185753695
577.845175708
582.920343418
598.085375591
625.551996956
667.859918713
726.452919562
795.942142538
861.907952921
898.115907086
900.892403831
901.087799521
900.892436981
901.238223685
883.993856733
576.137467267
618.375169572
619.455932685
611.653109386
596.71065356
586.05171163
583.348273317
586.40063179
599.070125866
624.541356343
662.786670128
715.603081624
780.309715839
846.587093233
892.864943912
900.953852468
900.892414314
901.141899214
900.892436447
881.997681964
585.445442432
638.516284589
639.012719272
630.518151665
611.805521225
596.874296504
592.021160208
593.647714856
603.107941968
625.466012173
661.326277698
710.967786206
772.455732647
837.610256924
888.130955847
900.892391362
901.012290327
900.892417791
901.171718671
874.559767021
599.140744085
653.010959632
652.235148018
648.145488444
629.570932595
612.622229516
605.961619799
606.419872604
612.69249217
630.608257739
663.148782465
711.093074025
771.308048256
835.75905451
886.926862032
900.913123702
900.892398268
901.080730323
900.89241393
859.503002499
617.679597699
661.42988585
659.605505787
662.805253886
651.416338812
636.294040095
628.341774738
627.435534372
631.121634699
644.762713333
673.115380105
717.848396464
776.106247006
839.387525383
888.849396509
900.892379674
901.001662047
900.892396664
894.388240784
838.681346019
639.44575123
671.037702428
666.233358296
674.16416494
676.858377556
669.956270481
662.680529241
660.251769273
662.240569261
672.907213654
698.187200603
740.125833948
795.927258684
855.622086536
895.872554412
900.953863329
900.892378255
899.85589119
877.47362386
820.531070394
660.892066094
689.627029384
677.327394262
685.827424938
703.705224981
711.456919231
708.761902083
706.519481754
708.058053417
717.822435169
741.948044955
782.369529035
834.784484175
883.745860926
900.835249195
900.892357291
899.489914074
887.185488903
856.787965281
816.409561615
680.578206933
713.140194593
694.040626383
701.003575733
729.750609746
756.337617418
763.898552571
765.347589494
768.796853629
779.778962536
803.584630725
840.37906185
879.399124557
897.965411945
900.280035907
897.075177949
885.238268205
867.190633453
851.076302491
822.234742579
696.838623602
724.223406468
712.439642352
716.730200315
750.398181717
794.29268858
818.060920269
828.376422124
836.215076399
848.026367987
865.684606943
883.189647368
892.252302924
895.524530441
890.622596534
876.578049152
863.146804779
862.194345792
856.497802147
838.846964705
709.843485916
724.264617307
724.333700246
724.389704234
759.067727824
810.190681699
845.286641723
864.583044792
874.655769981
879.864181867
882.5249291
884.24849942
885.283873451
874.602046678
857.404486045
846.614862282
855.005788957
867.464104252
870.899299756
858.088723906
720.303522679
724.227012849
719.796262426
719.393599636
755.734162754
807.925083365
844.546812162
864.918191771
874.317476003
876.238302717
873.05071166
863.281716699
843.100555299
822.731070118
816.852838611
831.195346284
857.238445665
879.650283479
883.937258847
864.762217576
712.580493088
707.457504688
690.410332374
695.495240134
729.458041202
778.689570126
818.076850239
840.238758634
846.173550419
839.048839266
820.492092471
795.59726938
778.194372168
779.283904759
799.265373223
830.847426475
863.053330965
887.587006816
886.940955878
862.076343827
672.399405254
657.530136907
652.299621836
657.748032715
675.56307632
706.503094311
740.261548316
763.434377411
767.492472059
757.997996539
743.991541517
738.383134854
747.667172732
769.264601838
798.464912277
832.95088616
870.63247417
888.25073418
885.149836502
847.30060597
627.960538937
630.445285848
634.171330473
633.803823161
635.468200181
645.338659232
663.740825335
684.273849697
695.8124309
702.677727613
711.499186033
725.950621643
745.482870353
770.396345737
802.522276492
842.06448737
879.766112653
888.271826318
872.393710526
822.92404132
614.47580645
630.749195202
632.542486637
627.974198538
625.487270162
626.941535203
638.153658945
656.898684774
675.660961983
692.903874614
709.549770927
727.47486497
750.366039396
780.906224119
820.162207068
863.553987262
882.206978508
881.032066844
841.957462446
819.320938069
614.456794856
638.334539526
634.860423098
627.69434729
625.449946649
625.478819255
636.157057584
655.176840435
675.763356323
695.408168151
715.73777203
740.07735167
771.126272652
810.554207477
855.23400434
883.208282819
882.308472714
856.043340553
830.687088163
825.456977943
614.474329561
650.225324506
639.917114174
630.486083106
625.658144084
626.760905398
639.067932677
660.300893468
685.115470181
710.68261561
738.851348391
772.417772295
812.848300618
857.315808282
887.931582325
887.473399217
867.76638817
839.108487609
833.556007885
852.896087922
619.033397269
660.346735859
645.753493875
639.439552034
632.000794001
636.115824305
652.221237297
679.030969142
710.468435565
743.632560502
780.409271257
822.405804532
865.718162893
893.570203678
893.923464147
879.890987496
847.150486002
839.544402149
854.779842863
904.996877899
638.007127828
672.494719579
656.11170121
655.594518988
651.478264891
659.717695
680.404589367
712.412842258
749.604095937
789.367781563
832.76100457
874.888011831
896.452371753
897.397752103
890.302509044
857.448467227
846.92719294
856.663924972
902.72583009
959.387986572
664.636815322
697.351380642
675.911328707
679.984064058
684.837575198
698.269928052
722.625647435
757.440174652
798.077168342
840.6718076
880.572488227
897.53642617
897.802472269
897.517903772
869.93387035
857.211144386
860.769134828
900.786927293
956.210469291
986.122759589
696.725396396
726.10992381
702.626149424
709.856005134
726.319779072
746.950398455
774.43911022
809.91798377
849.495343921
883.642003067
897.719217106
897.802427497
897.902660707
889.633281421
869.453609556
869.065123289
902.953343823
954.12658573
984.608739016
988.587546052
724.246986822
728.034585088
726.293078727
732.921234887
761.321864993
791.007132858
820.676413709
851.953356583
880.18345216
896.962506058
897.802360204
897.902596074
896.267146356
876.756770977
876.214295227
911.553929216
957.282403361
983.833806347
988.587540387
988.617761609
727.987807395
728.472194677
728.971647809
734.343972985
768.196862454
801.897326967
831.23753028
858.303042208
881.019067196
894.527219954
896.733074655
893.07990103
876.759062685
860.486505394
899.975256895
958.622805548
983.974442983
988.563450207
988.611732132
988.375447456
727.581505043
715.999357937
702.476502732
717.397309882
754.284626128
787.870703129
816.115012431
840.318489538
857.854227606
865.613582722
863.593501463
845.528884055
823.969620276
828.030127839
897.516323723
962.134198407
985.533504574
988.614306963
988.587528132
988.058944762
677.270573914
641.020347838
636.69429486
659.4273148
694.042660774
722.265314205
743.641291255
758.974092911
767.263420743
768.758881309
760.627984248
741.711932603
731.236062372
750.33183118
822.052756426
910.377046752
970.233116476
987.358152706
988.624438227
988.526921392
587.020389456
566.834515188
575.289633468
593.456268107
615.646233644
632.633748914
643.595949367
650.069971738
653.357862535
654.497169136
652.95333494
650.831713735
654.897366721
671.800253943
705.940283004
768.556931896
872.340672386
958.458506333
985.872437908
988.540471923
546.054069107
546.002986799
552.325224775
564.840570596
578.889718039
589.079408216
594.997416945
598.534031079
601.395474961
604.882422141
609.850526893
617.220431509
627.971728599
644.07626367
667.67377799
704.182853301
766.416450246
861.039058072
949.267679405
984.20899506
542.252761463
544.677906486
548.916490139
560.174073359
572.11184321
580.161284427
584.438302013
587.129446683
589.93101918
594.159884399
600.815466785
610.391195435
623.275214317
640.708276083
665.198073802
700.06491394
750.028777926
810.243009118
876.755606015
950.528306386
542.452280656
545.16920612
549.94065097
561.05391746
572.131522057
579.281686974
582.880282496
585.22430266
587.988867133
592.471557079
599.677724031
610.136072984
624.457876184
644.547395836
672.628502335
709.281698594
758.634210157
813.728392574
856.609592872
902.605981206
542.259533203
548.387231664
555.07087268
565.820411857
574.800848355
580.376654529
583.373550239
585.557226905
588.451972901
593.370337977
601.475453181
613.941589769
632.646536461
659.286822419
694.089779719
737.166792703
791.900463165
839.606676735
858.143066387
866.525225037
542.450459065
556.128106256
565.027153003
574.614725847
580.72136814
583.974293992
585.902821023
587.964530181
591.516040151
597.930049452
608.630919577
625.343177132
650.043759732
683.404913931
726.083779641
780.901867742
841.023663549
861.096536825
858.896026481
810.78598127
544.016941629
567.813093926
577.189056844
584.291608147
587.325906068
588.686216995
589.886375418
592.32301727
597.349338777
606.352213993
620.875522268
642.691985924
673.225370586
713.945127825
768.306524708
834.887086218
867.470904367
865.516594038
824.391880058
708.094592395
552.47879009
581.43905059
589.00378422
592.648185199
592.800946166
592.790425073
593.645524947
596.860979151
603.895120925
616.099759793
635.02759605
662.281453707
700.024562547
751.747726997
820.34216728
870.14966027
870.57342777
840.69714679
720.724627473
634.370587452
566.916261091
596.063381395
600.535912141
600.565191414
598.207830964
596.872385338
597.520033783
601.398170189
610.357876936
625.832368962
649.373192336
683.332589224
731.081811451
796.558875458
862.96896345
870.573405115
858.602602661
746.664556348
635.38811196
616.219722999
585.468536627
612.978549635
614.516186031
611.99340085
607.170517717
604.547902549
604.840691067
609.005946053
619.4438636
637.766525989
666.033186686
708.082325669
767.777784171
840.577725107
867.187801031
868.973092305
782.422301858
648.72662437
615.280264183
615.188838521
610.852888658
631.900779387
633.032768802
631.013690623
626.218471387
623.47694676
623.696714717
628.349413182
640.449913526
661.986627384
695.312042318
744.151805836
809.009822593
857.847740316
865.434835205
808.975737685
670.655020544
617.478030188
614.825865518
616.99095631
628.491211287
643.631054096
647.52681969
650.143589207
648.755004085
648.373057301
650.776143629
658.992086518
676.661485847
706.358188619
750.508852594
807.055597849
853.657205293
854.170885604
803.234715693
687.505625778
622.704609574
614.825802037
614.825845974
621.779389646
870.6600525
902.915201503
904.377850496
885.816149222
883.589919378
945.082813605
989.270817273
995.618222769
996.470242112
996.489939471
978.021853264
778.803872096
685.565840547
686.739310106
926.244992534
999.934742428
796.440655649
766.758886922
789.984174226
834.890274695
882.283615776
910.82527148
904.282904022
885.908123189
900.800323177
974.883774526
994.703207023
996.145451246
996.488751617
996.485669427
992.31813795
893.106895476
687.059680907
685.575567508
918.287287652
999.881792799
796.452830082
768.472931534
789.529953937
834.052011902
881.204751374
910.767321346
902.107883568
885.95476197
892.845202537
984.164802089
995.487089331
996.445251237
996.48584628
996.510754035
996.485963185
964.712256551
733.249209687
687.059648784
916.317466068
999.837564542
791.792742949
769.240086525
788.142347066
830.597873438
876.852912269
908.629054826
899.059739063
885.987382947
886.073095377
982.31350572
995.796307146
996.487271896
996.514067754
996.501375972
996.512964029
987.40243045
808.087848816
686.681870415
922.380522924
999.825770928
783.695187265
769.950589532
786.382363728
825.114901648
869.350452366
902.769617251
898.726550199
886.057874594
886.179786756
963.384476594
995.669558061
996.50958982
996.501548542
996.525895276
996.501637271
993.202695283
859.203982927
708.14383304
936.08500002
999.860078974
777.631106746
770.746229763
784.294749514
817.87994192
858.223502781
890.390851369
898.077492604
886.179773032
886.268135466
925.485320371
991.17615637
996.503003317
996.539014525
996.516479275
996.52601145
995.409152877
893.207497686
767.629210939
952.563959142
999.902238081
776.873835955
771.548169697
781.526146882
808.298048027
842.904423023
872.272986982
889.853971258
888.332365896
886.359019072
898.467716741
974.185699353
996.531775221
996.512609633
996.536221933
996.51461065
996.521501665
918.368011421
829.511800089
969.571845232
999.930235854
780.266733722
772.431054021
778.129570116
796.673716603
824.539962663
852.302585512
875.041369663
888.807650605
892.315222576
897.810320269
948.976884072
993.663885878
996.547653835
996.521097292
996.532672932
996.412755009
934.291121079
879.06133853
983.182225703
999.933930226
789.216586837
773.701060906
773.859219107
785.941853629
809.211810614
838.164387311
865.634162704
887.094182357
899.628892986
907.173271108
935.192946005
983.580884451
996.517208915
996.542049149
996.521395328
995.052731344
941.582033512
910.825447969
988.956928529
999.93392661
802.490098652
773.927590397
773.853506459
781.004999799
802.804231587
833.602958828
863.578828254
886.998239004
904.864757231
921.191456069
938.816356474
966.696865083
993.714423091
996.514318266
996.528957575
992.591825555
941.086154373
925.692081326
989.434623889
999.93393022
810.081925958
773.853437177
773.859308342
780.599595475
802.818886594
834.309053483
865.215530142
890.738505323
912.407392
934.074566322
954.776958879
959.908255611
981.145435685
995.678331105
996.508413273
984.822587474
935.578289887
930.565971286
987.98670904
999.859739004
808.867394216
773.859231342
773.853395664
783.53712083
809.297819301
843.287842536
875.8658516
903.208160853
926.066624062
949.219274638
969.414226085
964.145145235
963.46004182
984.308349914
988.884792172
958.543090653
931.379204954
931.156892717
982.63563099
999.444801051
802.928128245
774.888030706
778.784973132
798.45720652
832.024300867
868.905904296
901.095359895
927.094524898
950.022296452
972.125432617
972.904334818
971.514815864
914.219504868
897.5135187
919.424018131
930.888225231
932.192890933
924.583602091
962.140515024
997.802242489
796.427579932
784.845102724
799.042047405
832.553755976
873.069649018
909.33746737
938.447978484
963.807059234
979.123959799
979.406688901
968.214296024
849.369075795
710.244547418
678.771857545
719.281346229
888.57351979
932.567058004
909.12823886
909.167587442
994.795459779
798.328314048
807.146371047
839.099468332
882.991814004
923.248654157
955.315312982
978.8041357
981.187651568
981.266000584
888.115881448
676.046765894
603.800771541
590.423126595
591.106801774
600.853050204
797.953438821
932.926402182
884.00415806
843.519633806
991.69304777
816.203879071
845.827621276
893.458246861
937.601425882
970.461910498
985.221166854
985.389057874
963.598302854
759.158898978
606.631980748
590.666454839
588.86110177
590.666453638
589.364272566
611.726536761
772.770921455
885.062281869
844.276811811
814.607464718
987.991520811
850.856643644
901.427955519
949.452368161
980.181240488
986.549093816
986.560967567
910.985586606
666.773972345
591.066453808
590.666446591
589.147071884
590.666446845
589.288767961
590.666427259
657.631251727
776.043527526
860.494592122
818.000362115
810.088670106
986.755244166
905.101363375
957.409580907
984.897489309
986.398053046
986.560966222
843.472748857
623.742358723
590.294403117
590.666435146
589.824113103
590.666435399
589.708325487
590.666419741
596.471800622
686.940504649
791.746337274
865.897589477
817.933158465
807.181988369
988.361675005
960.659431119
986.770407371
986.927609777
985.76608821
818.41089261
611.112964314
590.481127349
590.666423585
590.409984356
590.666420933
590.202504979
590.66640239
597.530675465
624.973157573
712.169599916
821.388626331
867.746039048
828.44507148
806.610151618
991.020913862
987.141538184
987.270243046
983.419163216
847.324269463
661.558277706
620.959735954
603.948677753
596.820187246
594.435691785
594.268084384
599.847818572
614.79268512
639.100118811
680.956261568
751.315059235
850.086325489
867.73973341
788.535287123
806.038308416
996.635140967
987.270241219
983.454877274
892.321139026
749.893119759
709.083469619
688.643435281
651.866043326
628.412784264
623.160227916
630.603768518
652.369724046
679.20419192
707.710937108
744.667408642
780.100992622
808.04133947
755.942276509
699.515742294
878.535073606
999.794047379
987.241189141
939.176212112
822.451051725
786.86300882
798.680579446
776.429774505
710.771368551
674.963860284
668.366641624
689.471791511
720.691096896
737.160251828
737.524169365
726.798151226
706.634143264
688.875878947
690.039276925
689.861464792
907.026019649
999.796175957
974.403548155
891.509079999
833.52172614
839.685894688
857.16639979
816.138794934
730.035619586
692.870108631
687.615937662
710.251968393
721.282804759
713.950440608
691.608114357
690.039701315
688.10619921
689.972385769
688.154829756
690.038670244
893.605820594
999.312789954
960.422800721
889.543635634
854.305774594
857.372869769
856.951774066
784.961549268
709.79612198
687.800030802
687.709669492
694.114975846
693.397983787
689.726450729
690.053024026
688.740827434
690.039291368
687.932947791
690.038792255
689.514189583
877.644399063
998.301235492
960.796674569
897.918499228
864.32958619
856.128736046
836.645905032
742.118002264
692.52319211
687.899342743
687.800913657
690.043849716
699.538515441
703.189834282
699.849796265
690.052639043
688.654756434
690.03872539
687.932340938
690.051458267
864.552679637
997.580722748
970.868626717
913.684600925
867.151354817
851.534866595
839.02671801
762.451675289
716.605161441
708.782686977
712.625059305
733.306546443
757.01007741
766.785212756
757.65878852
711.658499347
690.052039217
688.413167467
690.05140315
689.277993417
838.898625543
996.230333462
983.524925022
935.343759151
869.169106707
848.700916531
856.637175125
831.69852716
797.531245373
788.450374828
794.669555943
819.513032816
834.306140932
834.74449264
811.228391152
757.51449372
698.171139062
690.05128086
688.515728133
690.112962627
797.253485135
992.379706672
983.883622339
953.408383503
866.894306004
832.200461674
867.754957078
889.902175874
890.76570678
886.720093364
889.292872946
897.22436269
898.272715913
880.303341217
850.76308532
806.218150011
741.556842099
694.258728901
690.112806055
689.759151251
768.110320286
986.499122514
978.83444354
950.464831811
841.82890594
791.57490525
843.325606879
884.288570353
911.354722266
932.215006969
939.724608414
940.374418343
937.697041629
924.267353168
898.275039764
861.085347202
810.436380107
747.562468582
701.845387468
697.277130036
767.867587087
983.444145592
935.115903551
895.233293285
770.853559687
740.164529406
791.161279983
847.09638466
893.059999491
927.354565469
946.747392679
952.860966927
952.987718285
951.705642703
942.415030651
913.697304739
874.470820506
832.689734509
772.600169741
739.668731387
777.519217684
982.246878052
839.804564738
758.191109807
694.964437956
708.404549763
755.439295954
811.014285537
864.049412257
910.651440204
943.715293399
956.271770949
957.346320884
957.601019069
957.890703073
945.276136809
909.268273872
882.922647187
855.361490019
787.704299876
783.607913451
980.28365751
713.165624257
659.05992138
664.620541441
698.921726824
747.952479121
802.979056304
856.424423646
904.248938337
941.79711521
957.908606268
958.512890339
958.525782426
958.541799371
950.69503436
915.810964885
899.721841364
901.524531681
827.988266852
778.661240467
976.707515302
638.13024438
636.319305205
660.568361936
699.915870474
750.368718279
806.080704068
860.352068574
908.77649653
946.260659305
958.531217164
958.526308108
958.569879531
958.5262986
938.803812183
907.914243687
909.831890821
928.200735706
863.390376085
758.649250204
971.921115273
622.140461903
636.115035306
667.761342475
712.357143698
765.460000259
822.287831203
877.098876012
925.280729032
955.831449499
958.526302125
958.58345813
958.526297724
946.799192114
907.303558918
907.297556572
923.696960042
953.585364298
878.374557023
729.695539626
968.532999119
620.805557044
644.168021982
690.279533435
740.589245672
795.502373865
851.799096391
904.772159886
947.618236146
958.526298057
958.583454236
958.526295043
946.112126806
901.519352591
901.427936221
915.657850198
952.972606359
973.302041631
855.701138195
729.443749616
968.925016576
624.022165249
665.451024022
722.352458596
776.783236455
832.069296604
886.094279691
935.339397754
958.445204931
958.583451301
958.526292936
938.395166093
890.177249639
890.061881665
908.221188429
946.288567397
982.323770689
982.520649056
805.071708673
732.551949175
974.529458584
640.272947465
698.732208359
758.071071285
814.505422065
869.543996783
921.259682926
956.518182874
958.583448719
958.526291199
930.370475319
881.603473549
881.448648959
900.713574718
940.749512687
978.866957662
991.307482171
968.139130808
781.20896005
768.707457518
978.020975793
672.511171481
746.732058465
808.99130651
865.33950549
912.042630884
943.992484135
954.774495775
947.467583894
908.338262309
860.595831424
865.704172851
900.216983382
945.095933603
979.275877211
995.333906028
994.762626969
907.4312604
781.209894714
792.970810999
977.953033633
)
;

boundaryField
{
    emptyPatch
    {
        type            empty;
    }
    minY
    {
        type            calculated;
        value           nonuniform List<scalar> 0();
    }
    maxY
    {
        type            calculated;
        value           nonuniform List<scalar> 
40
(
628.491208198
643.631050417
647.526815837
650.143585402
648.755000348
648.373053664
650.776140175
658.992084299
676.661485742
706.358188662
750.508850997
807.055594368
853.657202096
854.170884521
803.234717835
687.505626924
622.704607198
614.825799487
614.825843429
621.779387271
672.5111713
746.732058027
808.991305026
865.339503538
912.042629112
943.992482725
954.774494518
947.467582508
908.338260844
860.595829834
865.704170345
900.216980931
945.095932007
979.275876558
995.33390589
994.76262587
907.431249985
781.209891588
792.97080844
977.947352114
)
;
    }
    water_to_cooler
    {
        type            calculated;
        value           nonuniform List<scalar> 
38
(
999.934742429
999.881792801
999.837564545
999.825770932
999.860078978
999.902238083
999.930235856
999.933930229
999.933926615
999.933930227
999.859739027
999.444801199
997.80224344
994.795463347
991.693056151
987.991537667
986.755269292
988.36170375
991.020941507
996.635153563
999.794048284
999.796176969
999.312793654
998.301245384
997.580738209
996.230360017
992.379765662
986.499238022
983.444306086
982.247079406
980.283926727
976.707901441
971.92167079
968.533698189
968.925718268
974.529976645
978.021335339
977.953043576
)
;
    }
    water_to_heater
    {
        type            calculated;
        value           nonuniform List<scalar> 
59
(
570.703466969
570.703496311
576.046754799
585.342718576
599.017430342
599.017436845
617.533243904
617.533240105
639.284640883
639.28463033
660.723982535
680.408484523
696.669911196
696.669894078
709.677051632
709.677035145
720.140385866
720.140371669
712.414992908
672.226203886
627.795901861
627.795889537
614.325218848
614.325209966
614.310161417
614.310153762
614.325202885
618.875197279
637.839510308
637.839489356
664.465597291
664.465570912
696.558409741
696.558382262
724.087308095
727.82692449
727.420721959
727.4207007
677.10387831
677.103857551
586.895702729
586.895686272
545.966147126
542.178880054
542.382795789
542.382802517
542.191397698
542.191420959
542.382823774
542.382863898
543.948578917
552.406488502
566.83568086
566.835754363
585.371540946
585.371629715
610.714736592
610.714790954
628.33490296
)
;
    }
    procBoundary0to1
    {
        type            processor;
        value           nonuniform List<scalar> 
41
(
569.635959589
582.083436265
582.150799567
579.313371303
574.829572042
572.720752311
574.435117033
581.954839945
598.677587586
629.471888892
679.165481415
747.000677446
821.168014083
880.636781655
900.892386179
901.019698635
900.89243176
901.202454841
900.892457578
883.526061075
850.696759983
882.748645948
896.660692601
883.188926843
867.441259422
907.851670576
965.858172027
988.070298887
994.656267532
996.453413268
972.719751708
710.867487995
686.832716033
685.57562421
935.427366521
999.934747749
791.468080691
763.525421209
786.608835043
826.44801616
826.44801616
)
;
    }
}


// ************************************************************************* //
