/*--------------------------------*- C++ -*----------------------------------*\
| =========                 |                                                 |
| \\      /  F ield         | OpenFOAM: The Open Source CFD Toolbox           |
|  \\    /   O peration     | Version:  2312                                  |
|   \\  /    A nd           | Website:  www.openfoam.com                      |
|    \\/     M anipulation  |                                                 |
\*---------------------------------------------------------------------------*/
FoamFile
{
    version     2.0;
    format      ascii;
    arch        "LSB;label=32;scalar=64";
    class       volVectorField;
    location    "2";
    object      U;
}
// * * * * * * * * * * * * * * * * * * * * * * * * * * * * * * * * * * * * * //

dimensions      [0 1 -1 0 0 0 0];

internalField   nonuniform List<vector> 
1875
(
(0.0306076 -0.0698264 0)
(0.0559609 -0.0580304 0)
(0.0704206 -0.0445769 0)
(0.0341935 -0.0454749 0)
(0.0320386 -0.0636005 0)
(0.0054667 -0.0378328 0)
(-0.00587838 -0.0418114 0)
(0.030865 -0.0565954 0)
(0.0469233 -0.0279276 0)
(0.00883659 -0.0359646 0)
(0.00476937 -0.0748952 0)
(-0.026836 -0.10576 0)
(0.000424637 -0.0478324 0)
(0.0247017 -0.0948692 0)
(-0.00340972 -0.0758788 0)
(-0.0087458 -0.0340261 0)
(-0.0463919 -0.0275195 0)
(-0.0313429 -0.055882 0)
(0.00540208 -0.0425143 0)
(-0.00295422 -0.0370198 0)
(-0.0319113 -0.0638191 0)
(-0.0323624 -0.0458682 0)
(-0.06949 -0.0443478 0)
(-0.0543741 -0.0571729 0)
(-0.0301483 -0.0682221 0)
(0.0264726 -0.037826 0)
(0.0243387 0.0428795 0)
(0.0442802 0.188761 0)
(0.0202323 0.208031 0)
(0.0382931 0.205105 0)
(-0.0133239 0.209286 0)
(0.0153959 0.0640346 0)
(0.0125949 0.0193468 0)
(0.0421032 0.163023 0)
(-0.00855854 0.21222 0)
(-0.0102804 0.225466 0)
(-0.0313487 0.209219 0)
(0.00370715 -0.00123861 0)
(0.0292405 0.197539 0)
(0.00561635 0.221268 0)
(0.0111469 0.213201 0)
(-0.0438661 0.162744 0)
(-0.0116963 0.0226177 0)
(-0.017039 0.0559887 0)
(0.0154413 0.209304 0)
(-0.0384196 0.205259 0)
(-0.0196064 0.207763 0)
(-0.0450098 0.188294 0)
(-0.023753 0.0432884 0)
(-0.0269038 -0.0348517 0)
(0.0218735 -0.125108 0)
(-0.0288837 -0.0451066 0)
(-0.0375874 0.0328635 0)
(-0.0209584 0.017918 0)
(0.0217869 0.072871 0)
(0.0297652 0.0792227 0)
(0.0495264 -0.0401177 0)
(-0.019435 -0.0676287 0)
(-0.0299538 0.0966847 0)
(-0.0353935 0.128552 0)
(-0.0438235 0.047308 0)
(0.0444937 -0.0825075 0)
(0.00128256 -0.115553 0)
(-0.0377933 -0.0409294 0)
(0.0420653 0.0304214 0)
(0.0401215 0.128144 0)
(0.0291803 0.0977029 0)
(0.022905 -0.065088 0)
(-0.0482428 -0.0458114 0)
(-0.0296136 0.0783313 0)
(-0.0219694 0.074773 0)
(0.0202277 0.0195301 0)
(0.0372932 0.0330114 0)
(0.0289034 -0.0448306 0)
(-0.0225023 -0.123012 0)
(0.00172546 -0.0668592 0)
(-0.00323407 0.150903 0)
(-0.00311389 0.127939 0)
(0.019926 0.0392366 0)
(0.0328411 0.0496877 0)
(0.0574294 0.103936 0)
(0.0505927 0.138027 0)
(0.00933975 0.148891 0)
(-0.00603431 0.168459 0)
(-0.00105777 0.185518 0)
(0.0113229 0.0237225 0)
(0.0474765 0.0468282 0)
(-0.00641535 0.156925 0)
(-0.0412952 0.0429936 0)
(-0.0107046 0.0224838 0)
(0.000924046 0.187116 0)
(0.0034431 0.169149 0)
(-0.00995507 0.148262 0)
(-0.0502199 0.137961 0)
(-0.0553022 0.106883 0)
(-0.03314 0.0517215 0)
(-0.0197238 0.0392098 0)
(0.00320679 0.125921 0)
(0.00375825 0.15154 0)
(-0.00228976 -0.065189 0)
(-0.00748433 -0.101621 0)
(0.00469471 -0.00794835 0)
(0.0260985 0.000407912 0)
(0.0209291 -0.0329908 0)
(-0.00376752 0.0059668 0)
(-0.00639422 0.0733375 0)
(-0.00594685 0.0901636 0)
(0.0205951 0.088022 0)
(0.017262 0.134892 0)
(0.0233173 0.124675 0)
(0.0256296 -0.0307047 0)
(-0.015445 -0.0296167 0)
(-0.00125724 0.134337 0)
(0.0162243 -0.0218065 0)
(-0.0301428 -0.0284262 0)
(-0.0237846 0.12952 0)
(-0.0208977 0.136878 0)
(-0.0231185 0.0842617 0)
(0.00407263 0.0786483 0)
(0.00826186 0.0727795 0)
(0.00577097 0.013782 0)
(-0.018392 -0.0329094 0)
(-0.0248776 5.0483e-05 0)
(-0.00526709 -0.00592363 0)
(0.00733512 -0.099665 0)
(-0.000571979 -0.0721259 0)
(-0.00704716 0.0560859 0)
(-0.0042831 0.0828204 0)
(-0.00507795 0.0871627 0)
(-0.0313875 0.0977964 0)
(-0.0372381 0.0923418 0)
(-0.0190491 0.0649263 0)
(0.00424741 0.0737995 0)
(0.0150695 0.154442 0)
(0.00951207 0.147074 0)
(0.0139811 0.099698 0)
(-0.0310862 0.0857908 0)
(0.000757433 0.0757312 0)
(0.0306399 0.0879362 0)
(-0.0180819 0.0989448 0)
(-0.00842749 0.148595 0)
(-0.0156241 0.157515 0)
(-0.0029958 0.0715873 0)
(0.0167657 0.0529491 0)
(0.0361082 0.0874393 0)
(0.0305685 0.0978891 0)
(0.00573421 0.0884332 0)
(0.00381072 0.087748 0)
(0.00658747 0.0597356 0)
(0.000349654 -0.0721898 0)
(-0.00382228 -0.0752695 0)
(-0.0041682 0.0112631 0)
(-0.00675292 0.00790009 0)
(0.00883798 0.0310685 0)
(-0.0076684 0.0962572 0)
(-0.0121385 0.0507982 0)
(-0.00137533 0.0130493 0)
(-0.00244499 0.0165624 0)
(0.000491358 0.137478 0)
(-0.00102001 0.134484 0)
(-0.000893912 0.0630835 0)
(0.00521862 0.0163255 0)
(-0.000662052 -0.00404756 0)
(-0.004171 0.037778 0)
(0.000333404 0.0609575 0)
(0.00376932 0.132131 0)
(0.000594362 0.138662 0)
(0.00542908 0.0177561 0)
(0.00130889 0.00601536 0)
(0.0109575 0.0477863 0)
(0.00592558 0.0996608 0)
(-0.00971466 0.0311486 0)
(0.00598895 0.00983262 0)
(0.00315171 0.012807 0)
(0.00351803 -0.0747395 0)
(-0.00236564 -0.0605158 0)
(0.000401599 0.0539941 0)
(-0.00738705 0.0490172 0)
(-0.000497366 0.0808553 0)
(-0.00632281 0.137273 0)
(-0.0228868 0.0733391 0)
(-0.0147348 0.0328003 0)
(-0.0216029 0.0679897 0)
(-0.0183133 0.144882 0)
(-0.00291129 0.143036 0)
(0.00647744 0.0821683 0)
(0.0154075 0.0790515 0)
(-0.00378106 0.091721 0)
(-0.0142046 0.0803869 0)
(-0.00534532 0.0758579 0)
(0.00453491 0.142191 0)
(0.0186768 0.14596 0)
(0.022555 0.0694449 0)
(0.0150616 0.0294374 0)
(0.020906 0.0723259 0)
(0.00470358 0.136793 0)
(0.000477314 0.0797478 0)
(0.00668183 0.0543244 0)
(-0.00112636 0.0566111 0)
(0.00196975 -0.0634343 0)
(-0.00353183 -0.0658672 0)
(0.00315955 0.0276527 0)
(0.00345791 0.0160375 0)
(0.0124256 0.0327839 0)
(0.00607074 0.151727 0)
(-0.0123216 0.0756066 0)
(-0.0144761 0.0132326 0)
(-0.0278719 0.0314159 0)
(-0.0267817 0.101175 0)
(-0.0161172 0.082755 0)
(-0.00795433 0.0275351 0)
(-0.00464157 0.0450657 0)
(-8.29662e-05 0.0656954 0)
(0.00669833 0.0471398 0)
(0.00763469 0.0244113 0)
(0.0164144 0.0823804 0)
(0.0262736 0.103837 0)
(0.0276207 0.0323971 0)
(0.0138513 0.0128695 0)
(0.0103018 0.077163 0)
(-0.00745483 0.149625 0)
(-0.013344 0.0317932 0)
(-0.00475696 0.0188441 0)
(-0.0032492 0.0289576 0)
(0.00328675 -0.0681507 0)
(-0.000914365 -0.0619566 0)
(0.00421953 0.0316734 0)
(0.00807389 0.0291482 0)
(0.00751083 0.066274 0)
(-0.00027424 0.193761 0)
(-0.0183565 0.109825 0)
(-0.0238186 0.0682954 0)
(-0.0246072 0.0869047 0)
(-0.026079 0.120644 0)
(-0.0145664 0.0928801 0)
(-0.0101349 0.0555376 0)
(-0.00993476 0.0565201 0)
(-3.50458e-05 0.063275 0)
(0.0108427 0.0585371 0)
(0.0103771 0.0529891 0)
(0.0145362 0.0927489 0)
(0.0255231 0.122601 0)
(0.0238525 0.0890867 0)
(0.023004 0.0684632 0)
(0.017195 0.11118 0)
(-0.000751078 0.190387 0)
(-0.00803073 0.065556 0)
(-0.00867854 0.032255 0)
(-0.00426464 0.0321427 0)
(0.000637715 -0.0657103 0)
(-0.000826322 -0.0695499 0)
(0.00514019 0.00978941 0)
(0.0131391 0.013997 0)
(0.0106172 0.0522601 0)
(0.0142128 0.214975 0)
(-0.00477532 0.128734 0)
(-0.0215128 0.0334188 0)
(-0.0168914 0.0360305 0)
(-0.0097528 0.085192 0)
(-0.00667726 0.0464431 0)
(-0.00597301 0.0234871 0)
(-0.00421647 0.0231768 0)
(6.82824e-05 0.0251711 0)
(0.00477097 0.0242377 0)
(0.00625279 0.0226003 0)
(0.0060068 0.0476701 0)
(0.00900809 0.0895227 0)
(0.0164701 0.0374234 0)
(0.0210561 0.0341222 0)
(0.00418992 0.130647 0)
(-0.0147078 0.211378 0)
(-0.0113421 0.0505052 0)
(-0.0133235 0.0156384 0)
(-0.00476703 0.0105067 0)
(0.000892169 -0.0725046 0)
(0.000722047 -0.0738281 0)
(0.00574923 -0.00403745 0)
(0.0188007 0.0160246 0)
(0.0132729 0.0592524 0)
(0.0171439 0.224876 0)
(0.00907598 0.188454 0)
(-0.012678 0.0929986 0)
(-0.0200544 0.0569457 0)
(-0.00844605 0.0967157 0)
(-0.00304714 0.0833839 0)
(-0.00296723 0.0472262 0)
(-0.0018588 0.0415786 0)
(-0.000160549 0.0409209 0)
(0.00158928 0.0430944 0)
(0.00275113 0.0476588 0)
(0.00227575 0.0854169 0)
(0.00811384 0.0984298 0)
(0.0203433 0.0580973 0)
(0.0123613 0.0939446 0)
(-0.00907964 0.189558 0)
(-0.0172244 0.221876 0)
(-0.013545 0.0579573 0)
(-0.0189027 0.0164739 0)
(-0.00561985 -0.00402041 0)
(-0.000840398 -0.076695 0)
(1.66991e-05 -0.0809781 0)
(0.00510641 -0.028584 0)
(0.019584 0.00112216 0)
(0.00796951 0.0583564 0)
(0.0123124 0.226541 0)
(0.0128021 0.198462 0)
(0.00446795 0.100086 0)
(-0.00457461 0.0297014 0)
(0.000370715 0.0469757 0)
(0.00734776 0.0379409 0)
(0.00353418 0.0219155 0)
(0.00113435 0.0192742 0)
(-0.000139235 0.0190953 0)
(-0.00163586 0.0199469 0)
(-0.00406925 0.0222527 0)
(-0.00773133 0.0393238 0)
(-0.000231863 0.0490588 0)
(0.00440889 0.0308105 0)
(-0.00504571 0.101803 0)
(-0.0129753 0.199384 0)
(-0.0125924 0.223806 0)
(-0.00876376 0.0563978 0)
(-0.0200306 0.00204504 0)
(-0.00575375 -0.0280219 0)
(-0.000567802 -0.0837897 0)
(0.00456154 -0.0864155 0)
(0.00894099 -0.0505449 0)
(0.0218983 0.00954264 0)
(0.00507104 0.0712758 0)
(0.0111543 0.217064 0)
(0.0209773 0.199898 0)
(0.0156784 0.13413 0)
(0.00631453 0.0624012 0)
(0.00784865 0.0686139 0)
(0.00556465 0.0755869 0)
(0.00209344 0.0593206 0)
(0.000688802 0.0487803 0)
(9.14349e-06 0.0453153 0)
(-0.0010383 0.050818 0)
(-0.00226858 0.0595883 0)
(-0.00581607 0.0760672 0)
(-0.00764246 0.0698892 0)
(-0.00630833 0.065107 0)
(-0.0156828 0.135062 0)
(-0.0203786 0.20022 0)
(-0.0112172 0.215729 0)
(-0.00552305 0.0700759 0)
(-0.0223198 0.00988011 0)
(-0.00906407 -0.0505179 0)
(-0.00472532 -0.0919728 0)
(0.00748943 -0.109066 0)
(0.00958093 -0.0660861 0)
(0.0157717 0.0100529 0)
(-0.00222715 0.0859121 0)
(0.000961805 0.190934 0)
(0.015723 0.190667 0)
(0.0135272 0.135783 0)
(0.010698 0.0488199 0)
(0.00756001 0.0491855 0)
(0.00839424 0.0532662 0)
(0.00671932 0.0339263 0)
(0.00289939 0.0255837 0)
(-3.33655e-05 0.0241983 0)
(-0.00307702 0.0267248 0)
(-0.00658919 0.0339848 0)
(-0.00814222 0.0538484 0)
(-0.00723776 0.0506169 0)
(-0.0103893 0.0505491 0)
(-0.0129383 0.136162 0)
(-0.0149187 0.191609 0)
(-0.000269239 0.191005 0)
(0.00244777 0.0844277 0)
(-0.0154942 0.010623 0)
(-0.00900805 -0.0660751 0)
(-0.00714565 -0.112521 0)
(0.00950254 -0.125716 0)
(0.00904639 -0.0692485 0)
(0.0108902 0.0322351 0)
(-0.00408641 0.107554 0)
(-0.000828121 0.172187 0)
(0.0143691 0.172565 0)
(0.0169832 0.142796 0)
(0.0171388 0.0749542 0)
(0.0121206 0.0720215 0)
(0.0100159 0.075997 0)
(0.00695482 0.0707003 0)
(0.00245582 0.0623424 0)
(-1.94016e-05 0.0576702 0)
(-0.00269771 0.0640209 0)
(-0.00684984 0.0699133 0)
(-0.00980283 0.0761742 0)
(-0.0117142 0.0730742 0)
(-0.0168443 0.0771449 0)
(-0.0165899 0.142542 0)
(-0.0138229 0.172761 0)
(0.00168159 0.172108 0)
(0.00438938 0.107215 0)
(-0.0105033 0.0316892 0)
(-0.00846015 -0.0693595 0)
(-0.00918533 -0.129202 0)
(0.0102756 -0.149305 0)
(0.0112198 -0.0665432 0)
(0.00416821 0.0381564 0)
(-0.00922625 0.116564 0)
(-0.00484872 0.148755 0)
(0.00354779 0.153616 0)
(0.00810433 0.130564 0)
(0.0102952 0.0629504 0)
(0.00732456 0.0657372 0)
(0.00578981 0.0670983 0)
(0.0040709 0.0520989 0)
(0.00260948 0.0426909 0)
(-9.20444e-05 0.0370725 0)
(-0.00231171 0.0436215 0)
(-0.00372571 0.0509759 0)
(-0.00555487 0.0671997 0)
(-0.00690774 0.0667594 0)
(-0.00990065 0.0649367 0)
(-0.00743921 0.130163 0)
(-0.00273774 0.153619 0)
(0.00553422 0.149256 0)
(0.0098027 0.116045 0)
(-0.00343842 0.0381293 0)
(-0.0104273 -0.0664069 0)
(-0.00953431 -0.150749 0)
(0.010898 -0.175506 0)
(0.00743964 -0.0569651 0)
(-0.00483089 0.0762516 0)
(-0.0126279 0.12775 0)
(-0.00684542 0.140195 0)
(5.41746e-05 0.145162 0)
(0.00593007 0.123872 0)
(0.00997856 0.075755 0)
(0.00688828 0.0805238 0)
(0.00707214 0.0816556 0)
(0.00494462 0.0760982 0)
(0.00267585 0.0705075 0)
(-5.68863e-05 0.0669763 0)
(-0.00253061 0.0709459 0)
(-0.00495003 0.0755106 0)
(-0.00711849 0.0816448 0)
(-0.00685331 0.0811856 0)
(-0.0097985 0.0774992 0)
(-0.00571358 0.122425 0)
(0.000145054 0.145308 0)
(0.00688654 0.140672 0)
(0.0126077 0.127444 0)
(0.00490325 0.0751828 0)
(-0.00687524 -0.0571293 0)
(-0.0105853 -0.175517 0)
(0.00755104 -0.190054 0)
(-0.00101138 -0.0271327 0)
(-0.0151501 0.0829121 0)
(-0.0144011 0.12459 0)
(-0.0114138 0.120826 0)
(-0.00285998 0.128434 0)
(0.000688857 0.108502 0)
(0.00435585 0.0638207 0)
(0.00187263 0.0735773 0)
(0.00250832 0.073479 0)
(0.0011959 0.0634912 0)
(0.0010596 0.0557385 0)
(0.000110395 0.0502169 0)
(-0.000851425 0.0563821 0)
(-0.00122887 0.0628398 0)
(-0.00233759 0.0734853 0)
(-0.0020219 0.0740494 0)
(-0.00373151 0.0654531 0)
(-0.00134279 0.108016 0)
(0.0019647 0.12897 0)
(0.0113921 0.121576 0)
(0.0140439 0.124342 0)
(0.0151521 0.0814187 0)
(0.0010165 -0.0276174 0)
(-0.00733554 -0.189522 0)
(0.0017723 -0.193581 0)
(-0.00283013 -0.00252228 0)
(-0.0137983 0.100667 0)
(-0.010843 0.121945 0)
(-0.00817542 0.110175 0)
(-0.00203531 0.119516 0)
(0.0022814 0.104774 0)
(0.00439933 0.0731208 0)
(0.00199442 0.082673 0)
(0.0036917 0.0822871 0)
(0.00232708 0.0775326 0)
(0.00182205 0.0717596 0)
(5.18495e-05 0.0696787 0)
(-0.00179624 0.0727178 0)
(-0.00256768 0.0771304 0)
(-0.00387852 0.0823406 0)
(-0.00227645 0.0827445 0)
(-0.00452432 0.0752317 0)
(-0.00269999 0.108392 0)
(0.0010854 0.117259 0)
(0.00837075 0.10995 0)
(0.0107569 0.121226 0)
(0.0137491 0.0990236 0)
(0.00261352 -0.00321543 0)
(-0.00176493 -0.19294 0)
(-0.00230662 -0.187783 0)
(-0.00450537 0.0109817 0)
(-0.0093381 0.0996863 0)
(-0.00678078 0.114243 0)
(-0.00848289 0.101547 0)
(-0.00343509 0.107452 0)
(-0.000261728 0.094615 0)
(2.45163e-05 0.0668481 0)
(-0.000861706 0.0759532 0)
(0.000421504 0.0746337 0)
(6.46698e-05 0.0689569 0)
(0.000358885 0.0624957 0)
(-2.40353e-05 0.0597657 0)
(-0.00040048 0.0638955 0)
(-7.59162e-05 0.0688151 0)
(-0.000690787 0.0746992 0)
(0.00113626 0.0763173 0)
(-0.00075485 0.0687618 0)
(0.00183591 0.0961213 0)
(0.00512066 0.106149 0)
(0.00694259 0.100494 0)
(0.00660171 0.114169 0)
(0.00928999 0.0983465 0)
(0.0042333 0.0101897 0)
(0.0020736 -0.187887 0)
(-0.00294198 -0.18015 0)
(-0.00256853 0.0136428 0)
(-0.00443762 0.102916 0)
(-0.00398018 0.121592 0)
(-0.00425638 0.100281 0)
(-0.00079591 0.10074 0)
(0.00199577 0.0964599 0)
(0.00185454 0.0735381 0)
(2.07933e-05 0.0807312 0)
(0.00186909 0.0794993 0)
(0.00109485 0.0762328 0)
(0.0012823 0.0713097 0)
(-0.000107745 0.069763 0)
(-0.00118273 0.0722898 0)
(-0.00105245 0.076099 0)
(-0.001764 0.0793325 0)
(-1.40814e-07 0.0810299 0)
(-0.00168957 0.0741292 0)
(-0.00158277 0.091798 0)
(0.00200538 0.107661 0)
(0.00377934 0.104382 0)
(0.00401854 0.117786 0)
(0.00423455 0.10162 0)
(0.00273906 0.0136958 0)
(0.00287912 -0.180457 0)
(-0.00404007 -0.175133 0)
(-0.00328692 0.0159915 0)
(-0.00417703 0.102863 0)
(-0.00455082 0.11566 0)
(-0.00177053 0.0948966 0)
(-0.00360267 0.0951835 0)
(-5.11333e-05 0.0889613 0)
(-0.000507046 0.0732426 0)
(-0.00138116 0.0763685 0)
(3.60639e-05 0.0738931 0)
(-0.00010368 0.0710403 0)
(0.000296783 0.0666983 0)
(-0.000198446 0.0662166 0)
(-0.000534293 0.0674846 0)
(-5.22398e-05 0.0709591 0)
(-0.000292694 0.0739083 0)
(0.00115856 0.076751 0)
(0.000783973 0.0738992 0)
(-0.000872451 0.0883137 0)
(0.00156412 0.0959469 0)
(0.00525113 0.0961004 0)
(0.00580334 0.114911 0)
(0.00409894 0.101494 0)
(0.00390314 0.0142835 0)
(0.00378472 -0.174924 0)
(-0.00339826 -0.164007 0)
(-0.00400827 0.0130333 0)
(-0.000918871 0.106801 0)
(-0.00218459 0.114464 0)
(-0.00232903 0.0983782 0)
(-0.00196529 0.0972098 0)
(0.000245592 0.0877607 0)
(-0.000132857 0.0764829 0)
(-0.000769206 0.0783775 0)
(0.000292475 0.0765244 0)
(0.000279386 0.074596 0)
(0.000346801 0.0711684 0)
(-0.000265936 0.0704502 0)
(-0.000686041 0.0716319 0)
(-0.000524408 0.0745937 0)
(-0.000669888 0.0761387 0)
(0.0007211 0.0780422 0)
(0.000301899 0.077648 0)
(-0.000349379 0.0907303 0)
(0.00199409 0.092252 0)
(0.00239975 0.0941299 0)
(0.0031369 0.119532 0)
(0.00225845 0.106262 0)
(0.00364239 0.0137435 0)
(0.00379443 -0.16381 0)
(-0.0037149 -0.157973 0)
(-0.00613264 0.00990143 0)
(-0.00269219 0.0999485 0)
(-0.00190542 0.119864 0)
(-0.00297552 0.0947746 0)
(-0.00197772 0.0902467 0)
(8.4279e-05 0.0854357 0)
(-0.00124841 0.0763886 0)
(-0.00206064 0.075904 0)
(-0.000449972 0.0726291 0)
(-0.000271695 0.0715467 0)
(0.000495489 0.0692975 0)
(-0.000141205 0.069112 0)
(-0.000287356 0.0693707 0)
(0.000140294 0.0714421 0)
(0.00040752 0.0724431 0)
(0.00122985 0.0750438 0)
(0.000423982 0.0775656 0)
(-0.000365047 0.0850967 0)
(0.00232297 0.0906842 0)
(0.000815256 0.0954214 0)
(0.00130916 0.115475 0)
(0.00303428 0.101865 0)
(0.00556699 0.0113683 0)
(0.00404741 -0.157661 0)
(-0.00461962 -0.142558 0)
(-0.00522785 0.0115021 0)
(-0.0050291 0.0960354 0)
(-0.00271946 0.115773 0)
(-0.000881389 0.0980176 0)
(-0.00222973 0.0900135 0)
(0.000152706 0.0858747 0)
(-0.00118684 0.0817851 0)
(-0.00125392 0.0756734 0)
(-0.000335119 0.0725041 0)
(-5.53466e-05 0.0718627 0)
(0.000454663 0.0704984 0)
(0.000233392 0.0718605 0)
(0.000240309 0.0704934 0)
(0.000648896 0.0727139 0)
(0.000934003 0.0734916 0)
(0.00145642 0.0771785 0)
(0.00124905 0.0816623 0)
(0.000691365 0.0847518 0)
(0.0019542 0.0901788 0)
(0.00235611 0.0957571 0)
(0.00178671 0.113933 0)
(0.00244062 0.0963963 0)
(0.00610898 0.0104263 0)
(0.00360742 -0.142586 0)
(-0.00358903 -0.135664 0)
(-0.00745276 0.0102405 0)
(-0.00488802 0.0963006 0)
(-0.0034144 0.109416 0)
(-0.00247495 0.0945382 0)
(-0.00149051 0.0883562 0)
(-0.000777881 0.0833381 0)
(-0.000283058 0.0806918 0)
(5.01362e-05 0.0740047 0)
(-9.43662e-06 0.0708035 0)
(0.000187465 0.0699937 0)
(-1.45375e-06 0.0688484 0)
(5.15462e-06 0.0700215 0)
(-0.000162718 0.0686382 0)
(-0.000189419 0.070528 0)
(0.00024188 0.0710743 0)
(0.000575747 0.0744802 0)
(0.00138607 0.0801189 0)
(0.00134205 0.0838149 0)
(0.00257314 0.08797 0)
(0.00272554 0.0946971 0)
(0.0029621 0.117028 0)
(0.00580344 0.0917294 0)
(0.0071681 0.00930786 0)
(0.00401328 -0.136009 0)
(-0.00406636 -0.117789 0)
(-0.00866728 0.0141827 0)
(-0.00607869 0.0870091 0)
(-0.00253767 0.111649 0)
(-0.00245234 0.0927022 0)
(-0.0016807 0.0869832 0)
(-0.00114746 0.08269 0)
(-0.000475444 0.0802775 0)
(0.000142037 0.0749461 0)
(-5.03305e-05 0.0722712 0)
(0.000140833 0.0717419 0)
(-8.72311e-05 0.0713653 0)
(-0.000115404 0.0722661 0)
(-0.000272888 0.0712326 0)
(-0.000470834 0.071495 0)
(-0.000169278 0.0721376 0)
(-0.000358264 0.0743399 0)
(0.000551196 0.0803206 0)
(0.000627944 0.0826743 0)
(0.00183414 0.0867959 0)
(0.00109067 0.0960879 0)
(0.00380394 0.10718 0)
(0.00807346 0.087636 0)
(0.00795459 0.0148408 0)
(0.00467474 -0.117494 0)
(-0.004179 -0.10754 0)
(-0.00792209 0.0152742 0)
(-0.00821397 0.081697 0)
(-0.00357689 0.101926 0)
(-0.00115694 0.0935727 0)
(-0.00114519 0.0854079 0)
(-0.000282924 0.0808275 0)
(-1.62111e-05 0.0776927 0)
(0.000481439 0.073068 0)
(0.00014986 0.0708597 0)
(0.000224131 0.0701366 0)
(3.75447e-05 0.0695406 0)
(8.09109e-05 0.0703374 0)
(0.000119866 0.0696642 0)
(-3.93927e-05 0.0701079 0)
(-3.40004e-05 0.0708878 0)
(-0.000276003 0.073084 0)
(-4.17291e-05 0.0777239 0)
(0.000761164 0.08117 0)
(0.000863209 0.0861065 0)
(0.00213878 0.0915134 0)
(0.00404969 0.09985 0)
(0.0067634 0.083853 0)
(0.00811777 0.0158061 0)
(0.00365359 -0.107808 0)
(-0.00385476 -0.0907672 0)
(-0.00844618 0.0228685 0)
(-0.00782284 0.0784092 0)
(-0.0046924 0.0946489 0)
(-0.00218277 0.0881556 0)
(-0.000763697 0.084372 0)
(-0.00034506 0.0806474 0)
(0.000337823 0.078361 0)
(0.000623858 0.0750098 0)
(0.000355907 0.0731183 0)
(0.00027586 0.0722856 0)
(5.46094e-05 0.0717921 0)
(3.28375e-05 0.0722919 0)
(2.40821e-05 0.071782 0)
(-0.00019589 0.0721669 0)
(-0.000261957 0.0729298 0)
(-0.000492499 0.0747078 0)
(-0.000281741 0.0781797 0)
(0.000485976 0.0805469 0)
(0.00117339 0.0843788 0)
(0.00250102 0.088266 0)
(0.00416267 0.0982652 0)
(0.0077749 0.0781486 0)
(0.00862332 0.0221693 0)
(0.00390654 -0.0913126 0)
(-0.0037327 -0.0800537 0)
(-0.00752192 0.0244337 0)
(-0.00750329 0.0734287 0)
(-0.00438635 0.0907308 0)
(-0.00238571 0.083956 0)
(-0.00131754 0.0818752 0)
(-0.000561393 0.0784201 0)
(-8.06317e-05 0.0758538 0)
(0.000279924 0.0732162 0)
(0.000158499 0.0716878 0)
(0.000154236 0.070969 0)
(-1.72316e-05 0.0703069 0)
(-1.70601e-05 0.070531 0)
(-1.378e-05 0.0703224 0)
(-0.00019745 0.0708928 0)
(-0.000262923 0.0716617 0)
(-0.000460543 0.0732373 0)
(-0.000177927 0.0756902 0)
(0.000183211 0.0782632 0)
(0.000943128 0.0817795 0)
(0.00167007 0.0852821 0)
(0.00425146 0.0884276 0)
(0.00814865 0.0738635 0)
(0.00785578 0.0248775 0)
(0.00384142 -0.079844 0)
(-0.00348725 -0.0658419 0)
(-0.00740925 0.0313449 0)
(-0.00776405 0.0710777 0)
(-0.00473706 0.0832626 0)
(-0.00256898 0.081912 0)
(-0.00150529 0.0804428 0)
(-0.000536637 0.0780908 0)
(-0.000107392 0.076604 0)
(0.000180548 0.0745591 0)
(0.000137495 0.0733736 0)
(0.000140112 0.0727474 0)
(3.39042e-06 0.072198 0)
(-1.24687e-05 0.0722463 0)
(-3.3945e-05 0.0722058 0)
(-0.000160119 0.0727478 0)
(-0.000172214 0.0734221 0)
(-0.000175687 0.0746004 0)
(6.19313e-05 0.0766509 0)
(0.000550085 0.0782274 0)
(0.00134668 0.0806882 0)
(0.00278534 0.081464 0)
(0.00473629 0.0828032 0)
(0.00736303 0.0703912 0)
(0.00732672 0.0315176 0)
(0.00341378 -0.0654062 0)
(-0.00322993 -0.0556646 0)
(-0.00647877 0.034202 0)
(-0.0068019 0.067607 0)
(-0.00486188 0.0786183 0)
(-0.00320592 0.0775406 0)
(-0.00203477 0.0773237 0)
(-0.00121177 0.0756408 0)
(-0.000629177 0.0743113 0)
(-0.000301868 0.0729283 0)
(-0.000171688 0.0720588 0)
(-4.97589e-05 0.0714422 0)
(-4.52118e-05 0.0709174 0)
(8.55685e-06 0.0708822 0)
(5.65973e-05 0.0708994 0)
(7.50317e-05 0.0714518 0)
(0.000209355 0.0720334 0)
(0.00037993 0.0729724 0)
(0.000724445 0.0743729 0)
(0.00132382 0.0755493 0)
(0.00223203 0.0774441 0)
(0.00344355 0.0775922 0)
(0.00493595 0.0794446 0)
(0.00660272 0.0677248 0)
(0.00627824 0.0342306 0)
(0.00320309 -0.0558182 0)
(-0.00304064 -0.0442913 0)
(-0.00590435 0.0392698 0)
(-0.00628658 0.0673711 0)
(-0.00476558 0.0758229 0)
(-0.00344081 0.0753568 0)
(-0.00232475 0.0760365 0)
(-0.00150164 0.0749451 0)
(-0.000951535 0.0744469 0)
(-0.000541668 0.0734916 0)
(-0.000349183 0.0727272 0)
(-0.000165018 0.0723909 0)
(-9.30309e-05 0.0720023 0)
(-6.66751e-06 0.0719621 0)
(8.76548e-05 0.0719742 0)
(0.000146978 0.0723447 0)
(0.000329052 0.0726745 0)
(0.000491847 0.0734197 0)
(0.000920638 0.074455 0)
(0.00146723 0.0749326 0)
(0.0022591 0.0760507 0)
(0.003316 0.0751366 0)
(0.00480891 0.0759928 0)
(0.0063971 0.0671605 0)
(0.00595985 0.0390757 0)
(0.00306703 -0.0443782 0)
(-0.00282752 -0.0355841 0)
(-0.00535678 0.0416854 0)
(-0.0055798 0.0652287 0)
(-0.00449913 0.0725121 0)
(-0.00365718 0.0720527 0)
(-0.00271874 0.0733125 0)
(-0.00196134 0.0728429 0)
(-0.00139561 0.0725067 0)
(-0.000893702 0.0719068 0)
(-0.000614993 0.0715055 0)
(-0.000358454 0.0711963 0)
(-0.00016695 0.0708413 0)
(4.68547e-06 0.0707619 0)
(0.000184733 0.0708557 0)
(0.000359744 0.0712265 0)
(0.000622062 0.0715158 0)
(0.000854964 0.0719746 0)
(0.0013931 0.0724611 0)
(0.00191958 0.0728116 0)
(0.00265498 0.0734597 0)
(0.00358486 0.0722966 0)
(0.0045312 0.072566 0)
(0.00569145 0.0654587 0)
(0.00537049 0.0418134 0)
(0.00284789 -0.0355368 0)
(-0.00267769 -0.0261548 0)
(-0.00486104 0.045371 0)
(-0.00512515 0.0654128 0)
(-0.00425968 0.0712771 0)
(-0.00360906 0.0714328 0)
(-0.00286235 0.0722636 0)
(-0.00216541 0.0719506 0)
(-0.00164419 0.072051 0)
(-0.00115904 0.0716958 0)
(-0.000826359 0.0715035 0)
(-0.000481127 0.0713368 0)
(-0.000236943 0.0711336 0)
(-1.10728e-06 0.0711057 0)
(0.000233134 0.0711288 0)
(0.000482493 0.0713373 0)
(0.000821383 0.0715106 0)
(0.00117284 0.071702 0)
(0.00165547 0.0719961 0)
(0.00216145 0.0720914 0)
(0.0028746 0.0722766 0)
(0.00363067 0.0712605 0)
(0.00422623 0.0710844 0)
(0.00505857 0.0654025 0)
(0.00485899 0.0453746 0)
(0.00265832 -0.0261624 0)
(-0.0025123 -0.0186158 0)
(-0.00446151 0.0473449 0)
(-0.00461317 0.0640878 0)
(-0.0039643 0.0695156 0)
(-0.00344906 0.0692988 0)
(-0.00279907 0.0703203 0)
(-0.00226996 0.0703995 0)
(-0.00178581 0.0704779 0)
(-0.00132037 0.0703571 0)
(-0.000958858 0.0702088 0)
(-0.00058714 0.0701404 0)
(-0.000304905 0.0700142 0)
(4.55854e-06 0.0699797 0)
(0.000286422 0.0700099 0)
(0.00058471 0.0701543 0)
(0.000959031 0.0702035 0)
(0.00132236 0.0703492 0)
(0.00178161 0.0704949 0)
(0.00226706 0.070383 0)
(0.00288557 0.0704094 0)
(0.00347771 0.0693838 0)
(0.00395325 0.0695818 0)
(0.00460928 0.0641836 0)
(0.00444364 0.0473348 0)
(0.00251871 -0.0186267 0)
(-0.00238646 -0.0106914 0)
(-0.00406694 0.0500155 0)
(-0.00425163 0.0642368 0)
(-0.00371285 0.0687647 0)
(-0.00327026 0.0688333 0)
(-0.00281077 0.0696119 0)
(-0.00226752 0.0696957 0)
(-0.00181477 0.0698992 0)
(-0.00136927 0.0698552 0)
(-0.001002 0.0698479 0)
(-0.000639691 0.069872 0)
(-0.000304825 0.0697983 0)
(-1.58775e-05 0.0697805 0)
(0.000303785 0.0698229 0)
(0.000626821 0.0698328 0)
(0.000990486 0.0698578 0)
(0.0013514 0.06988 0)
(0.00180288 0.0698762 0)
(0.00223892 0.0696543 0)
(0.00276578 0.0695571 0)
(0.0032765 0.0688211 0)
(0.00371214 0.0687225 0)
(0.0042666 0.0641835 0)
(0.00408809 0.0500176 0)
(0.00238765 -0.0106923 0)
(-0.00225805 -0.00407407 0)
(-0.00375065 0.0516295 0)
(-0.00389507 0.0634562 0)
(-0.00344277 0.0674929 0)
(-0.00306103 0.0674792 0)
(-0.00261313 0.0682401 0)
(-0.00216447 0.068388 0)
(-0.00176832 0.0686581 0)
(-0.00135654 0.0687349 0)
(-0.00101408 0.0687647 0)
(-0.000651615 0.0687713 0)
(-0.000315702 0.0688055 0)
(-3.00022e-06 0.0688051 0)
(0.000323401 0.0687584 0)
(0.000655043 0.0688083 0)
(0.00100452 0.0687647 0)
(0.00135582 0.0687248 0)
(0.00175635 0.0686851 0)
(0.00216043 0.0684315 0)
(0.00259478 0.0682477 0)
(0.00304299 0.0675273 0)
(0.00344508 0.067532 0)
(0.00388373 0.0635284 0)
(0.00374631 0.0516423 0)
(0.00225517 -0.00406411 0)
(-0.00213948 0.00267109 0)
(-0.00344061 0.0536212 0)
(-0.00356106 0.0634914 0)
(-0.00318406 0.0669201 0)
(-0.00282019 0.066938 0)
(-0.00244534 0.0676122 0)
(-0.00204488 0.067829 0)
(-0.00169305 0.0681045 0)
(-0.00132549 0.068197 0)
(-0.000980239 0.0682844 0)
(-0.000648741 0.0683342 0)
(-0.000332147 0.0683635 0)
(9.25374e-06 0.0683735 0)
(0.000314665 0.0683678 0)
(0.000633325 0.0683327 0)
(0.000981872 0.0683078 0)
(0.00130517 0.0682258 0)
(0.00168864 0.0680929 0)
(0.00204892 0.0678128 0)
(0.00245005 0.0676092 0)
(0.00281465 0.0669355 0)
(0.0031734 0.0669156 0)
(0.00356272 0.0634961 0)
(0.00344288 0.053615 0)
(0.00213718 0.00266809 0)
(-0.00202486 0.00848847 0)
(-0.00315434 0.0548791 0)
(-0.00325052 0.0630379 0)
(-0.00291085 0.066004 0)
(-0.00259987 0.0660117 0)
(-0.00227684 0.066651 0)
(-0.0019296 0.0668612 0)
(-0.00159693 0.0671872 0)
(-0.00125506 0.0672926 0)
(-0.000946793 0.0673937 0)
(-0.000630573 0.0674699 0)
(-0.000314486 0.0674782 0)
(-4.27653e-06 0.0675062 0)
(0.000310859 0.0675058 0)
(0.000616904 0.0674644 0)
(0.00093029 0.0674034 0)
(0.00126494 0.0672944 0)
(0.0016021 0.0671618 0)
(0.001931 0.066877 0)
(0.00226976 0.0666697 0)
(0.0025988 0.0660534 0)
(0.00291161 0.0660023 0)
(0.00324905 0.0630491 0)
(0.00315665 0.0548969 0)
(0.00202135 0.00848909 0)
(-0.00191602 0.0142234 0)
(-0.00288883 0.0563087 0)
(-0.00297745 0.062964 0)
(-0.00267016 0.0654982 0)
(-0.00238969 0.0655536 0)
(-0.00211231 0.0661341 0)
(-0.00180244 0.0663523 0)
(-0.00151434 0.0666178 0)
(-0.00118424 0.0667831 0)
(-0.000898472 0.0669132 0)
(-0.000579938 0.0669573 0)
(-0.000298254 0.0669906 0)
(-7.17329e-06 0.0670114 0)
(0.000283684 0.0670068 0)
(0.000581632 0.0669843 0)
(0.000894296 0.0668857 0)
(0.0011856 0.0667634 0)
(0.00150496 0.0666292 0)
(0.00178607 0.0663603 0)
(0.00209774 0.0661428 0)
(0.00238355 0.0655356 0)
(0.00266901 0.0655025 0)
(0.0029625 0.0629687 0)
(0.00288754 0.0563135 0)
(0.00191584 0.0142222 0)
(-0.0018101 0.0192999 0)
(-0.00264309 0.0572792 0)
(-0.00270909 0.0626636 0)
(-0.00244809 0.0647921 0)
(-0.00219098 0.0648879 0)
(-0.00194327 0.0654359 0)
(-0.001663 0.0656458 0)
(-0.00140796 0.065907 0)
(-0.00112006 0.0660335 0)
(-0.00083461 0.0661481 0)
(-0.000551636 0.0662427 0)
(-0.000283209 0.0663043 0)
(-4.88217e-06 0.066319 0)
(0.000271885 0.0662963 0)
(0.000549725 0.0662143 0)
(0.000839934 0.0661584 0)
(0.00110065 0.0660466 0)
(0.00139072 0.0659212 0)
(0.00166053 0.0656711 0)
(0.0019549 0.0654345 0)
(0.00219224 0.0648933 0)
(0.00244136 0.0648138 0)
(0.002705 0.0626703 0)
(0.00263782 0.0572651 0)
(0.0018111 0.019295 0)
(-0.00170843 0.0241833 0)
(-0.0024055 0.058272 0)
(-0.00246296 0.0625737 0)
(-0.00222745 0.0643659 0)
(-0.0020208 0.0644766 0)
(-0.00179179 0.0649792 0)
(-0.00153588 0.0652039 0)
(-0.00128578 0.0654341 0)
(-0.00102615 0.0655465 0)
(-0.000784297 0.0656766 0)
(-0.000527897 0.0657671 0)
(-0.00026568 0.0658039 0)
(-4.41943e-06 0.0658122 0)
(0.000264026 0.0658025 0)
(0.000518588 0.0657569 0)
(0.000763409 0.0656875 0)
(0.00102391 0.0655772 0)
(0.0012814 0.0654068 0)
(0.00153789 0.0651484 0)
(0.00178602 0.0649789 0)
(0.0020185 0.0644978 0)
(0.00223 0.0643828 0)
(0.00246425 0.0625747 0)
(0.0024117 0.0582648 0)
(0.00170476 0.0241728 0)
(-0.00161341 0.0285535 0)
(-0.00218177 0.0589632 0)
(-0.00223321 0.0623604 0)
(-0.00203083 0.0638694 0)
(-0.00185136 0.0640091 0)
(-0.00164787 0.0644194 0)
(-0.00142004 0.0646065 0)
(-0.00118683 0.0648397 0)
(-0.000944804 0.0650007 0)
(-0.000724979 0.0651095 0)
(-0.000472096 0.0651699 0)
(-0.00024434 0.0652112 0)
(-7.37149e-06 0.0652209 0)
(0.000227096 0.0652046 0)
(0.000467751 0.0651841 0)
(0.000711162 0.065105 0)
(0.000944429 0.0649777 0)
(0.00119098 0.0648452 0)
(0.00140137 0.0646361 0)
(0.00162666 0.0644281 0)
(0.00183384 0.0639976 0)
(0.00202564 0.0638846 0)
(0.00222739 0.0623598 0)
(0.00218129 0.0589615 0)
(0.0016125 0.0285553 0)
(-0.00151312 0.0326864 0)
(-0.0019664 0.0596123 0)
(-0.00200498 0.062289 0)
(-0.00183237 0.0635335 0)
(-0.00166469 0.0636708 0)
(-0.00147981 0.0640398 0)
(-0.00128545 0.0642197 0)
(-0.00109301 0.0644021 0)
(-0.000880201 0.0645568 0)
(-0.000655024 0.0646537 0)
(-0.000434037 0.0647332 0)
(-0.000218787 0.0648 0)
(5.256e-07 0.064798 0)
(0.000209969 0.0647753 0)
(0.000434947 0.0647151 0)
(0.00065245 0.0646551 0)
(0.000867741 0.0645468 0)
(0.00107759 0.064414 0)
(0.00128275 0.0642201 0)
(0.00148944 0.0640345 0)
(0.00166527 0.063656 0)
(0.00183775 0.063522 0)
(0.00201339 0.0622781 0)
(0.00196874 0.0595927 0)