/*--------------------------------*- C++ -*----------------------------------*\
| =========                 |                                                 |
| \\      /  F ield         | OpenFOAM: The Open Source CFD Toolbox           |
|  \\    /   O peration     | Version:  2312                                  |
|   \\  /    A nd           | Website:  www.openfoam.com                      |
|    \\/     M anipulation  |                                                 |
\*---------------------------------------------------------------------------*/
FoamFile
{
    version     2.0;
    format      ascii;
    arch        "LSB;label=32;scalar=64";
    class       volVectorField;
    location    "2";
    object      U.air;
}
// * * * * * * * * * * * * * * * * * * * * * * * * * * * * * * * * * * * * * //

dimensions      [0 1 -1 0 0 0 0];

internalField   nonuniform List<vector> 
1875
(
(0.0278485 0.117611 0)
(0.0628878 0.12791 0)
(0.0699482 0.132737 0)
(0.0278298 0.131136 0)
(0.0296554 0.119528 0)
(0.00689699 0.134974 0)
(-0.00897648 0.136195 0)
(0.0334974 0.124433 0)
(0.0434855 0.141082 0)
(0.00366834 0.136828 0)
(0.00461252 0.111277 0)
(-0.026511 0.0836324 0)
(-0.000524021 0.133824 0)
(0.0242171 0.0934664 0)
(-0.00321173 0.110728 0)
(-0.0038912 0.138218 0)
(-0.0425674 0.141264 0)
(-0.0341904 0.12514 0)
(0.00904853 0.136064 0)
(-0.00437182 0.135332 0)
(-0.0296668 0.119338 0)
(-0.0259708 0.130833 0)
(-0.0689374 0.132871 0)
(-0.0609576 0.128341 0)
(-0.0271859 0.119004 0)
(0.0292057 0.180208 0)
(0.0376038 0.25076 0)
(0.0493416 0.368669 0)
(0.0202014 0.389174 0)
(0.0390087 0.385979 0)
(-0.0115217 0.390366 0)
(0.00781606 0.269517 0)
(0.0220274 0.227599 0)
(0.0440566 0.350084 0)
(-0.00913422 0.39479 0)
(-0.0081196 0.398747 0)
(-0.0320115 0.374194 0)
(0.00387554 0.21155 0)
(0.0282622 0.365072 0)
(0.00456729 0.395582 0)
(0.0121672 0.396273 0)
(-0.0455954 0.350325 0)
(-0.0213389 0.230653 0)
(-0.00932415 0.262489 0)
(0.0139063 0.390171 0)
(-0.0390806 0.386155 0)
(-0.0191763 0.388935 0)
(-0.0497836 0.368578 0)
(-0.0365642 0.251202 0)
(-0.0294561 0.182501 0)
(0.0312932 0.0743857 0)
(-0.0167521 0.15597 0)
(-0.0287192 0.236915 0)
(-0.0194707 0.229542 0)
(0.0219464 0.279418 0)
(0.0253282 0.283857 0)
(0.0453275 0.165056 0)
(-0.0133798 0.13172 0)
(-0.0193806 0.290348 0)
(-0.0323994 0.326004 0)
(-0.0437404 0.258209 0)
(0.0309571 0.136547 0)
(0.000234885 0.0819877 0)
(-0.0262654 0.174095 0)
(0.0432705 0.244366 0)
(0.0373273 0.325311 0)
(0.0180499 0.291502 0)
(0.0165194 0.134628 0)
(-0.0447962 0.158962 0)
(-0.0250599 0.282963 0)
(-0.0221229 0.281172 0)
(0.0190307 0.230712 0)
(0.0281636 0.236751 0)
(0.0169008 0.156009 0)
(-0.0317685 0.0757835 0)
(0.00705184 0.139158 0)
(-0.00598206 0.322898 0)
(-0.00875139 0.313382 0)
(0.0121576 0.239796 0)
(0.0356541 0.255842 0)
(0.0539405 0.302533 0)
(0.0470249 0.320341 0)
(0.00241499 0.327038 0)
(-0.00463632 0.35635 0)
(-0.00255478 0.376454 0)
(0.00108416 0.227743 0)
(0.0513088 0.243972 0)
(-0.00502443 0.330256 0)
(-0.0437375 0.243655 0)
(0.000952207 0.225665 0)
(0.00228617 0.377107 0)
(0.00185245 0.35703 0)
(-0.00254306 0.326609 0)
(-0.0470583 0.319852 0)
(-0.051828 0.305099 0)
(-0.0357569 0.257517 0)
(-0.0123893 0.239964 0)
(0.00884944 0.311688 0)
(0.00641909 0.323405 0)
(-0.0077577 0.140431 0)
(-0.00841409 0.101501 0)
(0.00335257 0.200803 0)
(0.0218059 0.206367 0)
(0.0211699 0.17027 0)
(0.00360239 0.208021 0)
(0.00815549 0.266646 0)
(0.0024734 0.290068 0)
(0.0182779 0.290446 0)
(0.0160151 0.33081 0)
(0.0203115 0.322405 0)
(0.0249554 0.165045 0)
(-0.00278893 0.171708 0)
(-0.00138191 0.327044 0)
(0.00466449 0.178955 0)
(-0.0290676 0.16703 0)
(-0.0208624 0.326119 0)
(-0.0196961 0.332711 0)
(-0.0208428 0.287113 0)
(-0.00450863 0.280748 0)
(-0.00558622 0.267406 0)
(-0.00216833 0.21553 0)
(-0.0187605 0.170537 0)
(-0.0204989 0.205873 0)
(-0.00368536 0.202618 0)
(0.00816836 0.102881 0)
(-0.000731099 0.131696 0)
(-0.00473248 0.248192 0)
(0.000645067 0.27143 0)
(0.00346395 0.274655 0)
(-0.0238229 0.288238 0)
(-0.0342052 0.287365 0)
(-0.0195328 0.265393 0)
(0.00574613 0.278355 0)
(0.0142228 0.34903 0)
(0.00857398 0.340823 0)
(0.0170712 0.286532 0)
(-0.0261429 0.274679 0)
(0.000772637 0.28563 0)
(0.0258393 0.276672 0)
(-0.021379 0.285625 0)
(-0.00746536 0.34216 0)
(-0.0150778 0.351983 0)
(-0.00548444 0.276316 0)
(0.0170261 0.254994 0)
(0.0334128 0.283082 0)
(0.0232704 0.289013 0)
(-0.00245484 0.275963 0)
(-0.00100467 0.275651 0)
(0.00424835 0.251489 0)
(0.000493781 0.131541 0)
(-0.0039952 0.129013 0)
(-0.00430837 0.212318 0)
(-0.00512144 0.21274 0)
(0.00842853 0.236328 0)
(-0.00931793 0.291509 0)
(-0.0158584 0.251374 0)
(-0.00124094 0.214493 0)
(0.000393058 0.222252 0)
(0.00250846 0.333061 0)
(-5.04191e-05 0.331377 0)
(0.00267764 0.267144 0)
(-0.00116392 0.223615 0)
(-0.000525577 0.199666 0)
(0.00141919 0.242223 0)
(-0.00399533 0.264901 0)
(0.00281976 0.329451 0)
(-0.00173709 0.334245 0)
(0.00256576 0.222833 0)
(0.000496958 0.207453 0)
(0.0147523 0.248675 0)
(0.00763214 0.293548 0)
(-0.0091195 0.236465 0)
(0.00432378 0.214877 0)
(0.00323816 0.213946 0)
(0.00361822 0.128614 0)
(-0.00249971 0.144277 0)
(-0.000580251 0.248494 0)
(-0.00761202 0.245581 0)
(0.00134802 0.276344 0)
(-0.00723668 0.327349 0)
(-0.0214157 0.266637 0)
(-0.010963 0.231951 0)
(-0.0167073 0.263625 0)
(-0.0166541 0.338968 0)
(-0.00292848 0.337837 0)
(0.00616017 0.280571 0)
(0.0117888 0.273353 0)
(-0.00318667 0.28388 0)
(-0.0108592 0.276147 0)
(-0.0053884 0.275421 0)
(0.00477309 0.336989 0)
(0.0172316 0.339987 0)
(0.0181868 0.264972 0)
(0.0112931 0.228788 0)
(0.0195184 0.265401 0)
(0.00557552 0.327566 0)
(-0.00140004 0.275364 0)
(0.00665813 0.250316 0)
(-0.000380665 0.250939 0)
(0.00193179 0.1418 0)
(-0.00433136 0.138738 0)
(0.00248928 0.228685 0)
(0.000799388 0.219084 0)
(0.0103022 0.23884 0)
(0.00534686 0.343733 0)
(-0.012648 0.272275 0)
(-0.0128814 0.215426 0)
(-0.0254616 0.235677 0)
(-0.0253592 0.301909 0)
(-0.0144019 0.286064 0)
(-0.00467139 0.233793 0)
(-0.00135637 0.24927 0)
(-0.000582774 0.268647 0)
(0.00332945 0.250665 0)
(0.00459217 0.230687 0)
(0.0149065 0.285762 0)
(0.0250577 0.304461 0)
(0.0255569 0.236695 0)
(0.0124487 0.214813 0)
(0.0103118 0.273299 0)
(-0.00679859 0.342602 0)
(-0.0111203 0.237781 0)
(-0.0022014 0.22212 0)
(-0.00276198 0.230212 0)
(0.00404592 0.137109 0)
(-0.00150149 0.143272 0)
(0.00420268 0.231703 0)
(0.00660788 0.22932 0)
(0.00843706 0.264665 0)
(-0.000483322 0.384775 0)
(-0.0180809 0.304741 0)
(-0.022145 0.263706 0)
(-0.0251694 0.281972 0)
(-0.0261649 0.314685 0)
(-0.0145702 0.290358 0)
(-0.00885734 0.254098 0)
(-0.00832992 0.257629 0)
(-0.000162866 0.264753 0)
(0.00951318 0.258943 0)
(0.00917475 0.25176 0)
(0.0146545 0.290328 0)
(0.0256232 0.316651 0)
(0.0245411 0.283499 0)
(0.0213225 0.263707 0)
(0.0166828 0.306361 0)
(-0.000579449 0.381936 0)
(-0.00898585 0.263786 0)
(-0.00733034 0.232365 0)
(-0.00425609 0.232229 0)
(0.00121166 0.140365 0)
(-0.00126765 0.136683 0)
(0.00530749 0.212922 0)
(0.0120129 0.216108 0)
(0.0111598 0.255663 0)
(0.0145648 0.406749 0)
(-0.00649314 0.323097 0)
(-0.0230095 0.239416 0)
(-0.019064 0.242789 0)
(-0.0126234 0.285296 0)
(-0.00859664 0.250504 0)
(-0.00706964 0.227795 0)
(-0.00521503 0.228465 0)
(1.64999e-05 0.231187 0)
(0.00600605 0.22931 0)
(0.00748023 0.22681 0)
(0.00806509 0.251556 0)
(0.0117676 0.289156 0)
(0.0185288 0.24388 0)
(0.0224753 0.239891 0)
(0.00581516 0.325048 0)
(-0.0150235 0.403777 0)
(-0.0118754 0.253941 0)
(-0.0121923 0.217831 0)
(-0.00497882 0.213628 0)
(0.0012929 0.134036 0)
(0.000727673 0.131745 0)
(0.00666452 0.197636 0)
(0.0191856 0.216911 0)
(0.014161 0.260901 0)
(0.0185845 0.418884 0)
(0.0067509 0.378788 0)
(-0.0183294 0.28643 0)
(-0.0223969 0.257062 0)
(-0.0102639 0.293101 0)
(-0.00423683 0.278282 0)
(-0.00425766 0.246412 0)
(-0.00269328 0.241886 0)
(-0.000155638 0.241797 0)
(0.00263879 0.243142 0)
(0.00418877 0.246637 0)
(0.00348388 0.280008 0)
(0.00977548 0.294847 0)
(0.0225284 0.258103 0)
(0.0179593 0.287213 0)
(-0.00680433 0.379996 0)
(-0.0187716 0.415494 0)
(-0.0145182 0.259366 0)
(-0.0193526 0.217158 0)
(-0.00642938 0.197617 0)
(-0.000725886 0.129463 0)
(-0.000370834 0.124402 0)
(0.00563831 0.174331 0)
(0.0208646 0.203904 0)
(0.0111348 0.26044 0)
(0.0138628 0.421321 0)
(0.0112887 0.389245 0)
(0.000202731 0.294828 0)
(-0.0101722 0.233428 0)
(-0.0024333 0.251775 0)
(0.00483471 0.242561 0)
(0.00185927 0.22557 0)
(0.00026069 0.222923 0)
(-0.00015018 0.22276 0)
(-0.000687253 0.223656 0)
(-0.0023436 0.22587 0)
(-0.00531451 0.243805 0)
(0.00244788 0.253625 0)
(0.0100674 0.234487 0)
(-0.000706295 0.29628 0)
(-0.0114792 0.390335 0)
(-0.0139946 0.4183 0)
(-0.0118073 0.258645 0)
(-0.0212456 0.20469 0)
(-0.00626835 0.174953 0)
(-0.000125552 0.122272 0)
(0.00366354 0.120394 0)
(0.00875554 0.153549 0)
(0.0234842 0.210431 0)
(0.00749672 0.270686 0)
(0.0123162 0.413623 0)
(0.0209372 0.394467 0)
(0.0135738 0.326881 0)
(0.00173362 0.259104 0)
(0.00497213 0.266516 0)
(0.00513342 0.271311 0)
(0.00164482 0.256401 0)
(0.000413504 0.247155 0)
(-1.26136e-05 0.244264 0)
(-0.000814075 0.248964 0)
(-0.00191176 0.256644 0)
(-0.00543765 0.271848 0)
(-0.0047531 0.267754 0)
(-0.00167809 0.261574 0)
(-0.0137027 0.327812 0)
(-0.0202059 0.39481 0)
(-0.0122624 0.412329 0)
(-0.00801985 0.269326 0)
(-0.0238299 0.210847 0)
(-0.00911944 0.153592 0)
(-0.00392607 0.115444 0)
(0.00689421 0.0990294 0)
(0.00994025 0.136933 0)
(0.0184354 0.211581 0)
(-0.00142632 0.283016 0)
(0.00161924 0.387375 0)
(0.0166769 0.38718 0)
(0.0129546 0.330147 0)
(0.00907562 0.250369 0)
(0.00689147 0.251739 0)
(0.00789294 0.255426 0)
(0.00582979 0.237315 0)
(0.00240652 0.22911 0)
(-9.06655e-06 0.227584 0)
(-0.00263329 0.230239 0)
(-0.00577318 0.237385 0)
(-0.00774193 0.256031 0)
(-0.00658563 0.25312 0)
(-0.00877653 0.252164 0)
(-0.01237 0.330812 0)
(-0.0157384 0.387988 0)
(-0.00108454 0.387497 0)
(0.00156443 0.281341 0)
(-0.0182792 0.211887 0)
(-0.00941418 0.136803 0)
(-0.006689 0.0954181 0)
(0.00933393 0.0811838 0)
(0.00901453 0.134454 0)
(0.0131639 0.230438 0)
(-0.00404794 0.304285 0)
(-0.00144829 0.369005 0)
(0.0156559 0.367823 0)
(0.0167896 0.339255 0)
(0.0158663 0.271665 0)
(0.0109731 0.269702 0)
(0.00959198 0.2733 0)
(0.00656933 0.266888 0)
(0.00237855 0.259353 0)
(-4.35026e-07 0.255153 0)
(-0.00263 0.260755 0)
(-0.00645064 0.266234 0)
(-0.00937598 0.273513 0)
(-0.0105591 0.270746 0)
(-0.0155549 0.273635 0)
(-0.0163352 0.339166 0)
(-0.0150836 0.368319 0)
(0.0023265 0.368811 0)
(0.00438262 0.303957 0)
(-0.0127817 0.229823 0)
(-0.00840063 0.134301 0)
(-0.00907212 0.078173 0)
(0.0105351 0.0590856 0)
(0.0116697 0.137502 0)
(0.00519913 0.237885 0)
(-0.010009 0.312974 0)
(-0.00556297 0.346208 0)
(0.0043212 0.349368 0)
(0.00940024 0.329374 0)
(0.0119361 0.264559 0)
(0.00845989 0.266672 0)
(0.00679195 0.267812 0)
(0.00490613 0.254482 0)
(0.00274337 0.245806 0)
(-9.70186e-05 0.240464 0)
(-0.00254236 0.246654 0)
(-0.00458334 0.253463 0)
(-0.0065535 0.267896 0)
(-0.00800207 0.267644 0)
(-0.0115607 0.266324 0)
(-0.0087432 0.329147 0)
(-0.00342432 0.349276 0)
(0.00641423 0.34671 0)
(0.0106011 0.31206 0)
(-0.00452889 0.237591 0)
(-0.0108232 0.137509 0)
(-0.00973878 0.0576593 0)
(0.0126255 0.0335257 0)
(0.00887168 0.144382 0)
(-0.00350342 0.27212 0)
(-0.0142199 0.324431 0)
(-0.00790496 0.338252 0)
(-0.000187536 0.342347 0)
(0.00668876 0.321525 0)
(0.0108157 0.274938 0)
(0.00739821 0.279053 0)
(0.00720071 0.280074 0)
(0.00502439 0.273789 0)
(0.00272814 0.268097 0)
(-7.58874e-05 0.264782 0)
(-0.00255601 0.268542 0)
(-0.00494281 0.273203 0)
(-0.00718498 0.28007 0)
(-0.0072551 0.279698 0)
(-0.0105763 0.276462 0)
(-0.00635069 0.319059 0)
(0.000545447 0.342455 0)
(0.00802702 0.338754 0)
(0.0142719 0.324321 0)
(0.00358713 0.271086 0)
(-0.0081577 0.144236 0)
(-0.0121717 0.0333863 0)
(0.0104159 0.0188578 0)
(0.000400651 0.169263 0)
(-0.0156707 0.279775 0)
(-0.0159365 0.323817 0)
(-0.0125842 0.320565 0)
(-0.00315507 0.32707 0)
(0.000908036 0.307984 0)
(0.00589953 0.265975 0)
(0.00302386 0.274507 0)
(0.00351637 0.274386 0)
(0.00198789 0.265226 0)
(0.00149522 0.258022 0)
(7.68064e-05 0.25312 0)
(-0.00127239 0.258628 0)
(-0.00199192 0.264618 0)
(-0.00332168 0.274365 0)
(-0.00312744 0.274912 0)
(-0.00517271 0.267369 0)
(-0.00165784 0.307269 0)
(0.0021914 0.327895 0)
(0.0124409 0.321278 0)
(0.0154383 0.323835 0)
(0.0156612 0.278651 0)
(-0.000238004 0.16895 0)
(-0.0100734 0.0192434 0)
(0.00347676 0.0166635 0)
(-0.00251541 0.19368 0)
(-0.0151544 0.298553 0)
(-0.0126885 0.320287 0)
(-0.00903992 0.309876 0)
(-0.00208401 0.318713 0)
(0.00256178 0.303915 0)
(0.00501864 0.273187 0)
(0.00235612 0.28207 0)
(0.00386968 0.281613 0)
(0.00236507 0.276548 0)
(0.00184772 0.27082 0)
(5.47764e-05 0.268518 0)
(-0.00179227 0.271709 0)
(-0.0025863 0.276141 0)
(-0.00401202 0.281633 0)
(-0.00262058 0.282082 0)
(-0.00499038 0.275139 0)
(-0.00280814 0.309333 0)
(0.000779806 0.315546 0)
(0.00936911 0.308747 0)
(0.012492 0.319378 0)
(0.0152326 0.296863 0)
(0.00237447 0.193218 0)
(-0.00343964 0.0173421 0)
(-0.00109549 0.0233033 0)
(-0.00455615 0.209486 0)
(-0.0106946 0.298921 0)
(-0.00745403 0.312594 0)
(-0.00919959 0.301783 0)
(-0.00337035 0.30753 0)
(0.000223211 0.295316 0)
(0.00110395 0.268746 0)
(-0.000105569 0.277041 0)
(0.00110568 0.275696 0)
(0.000545714 0.270437 0)
(0.000639145 0.264331 0)
(-1.48934e-05 0.26177 0)
(-0.000719426 0.265609 0)
(-0.000628896 0.270296 0)
(-0.00146825 0.275753 0)
(0.000287617 0.277355 0)
(-0.00195769 0.270956 0)
(0.001312 0.298005 0)
(0.00493982 0.305589 0)
(0.00740598 0.300614 0)
(0.00726729 0.312275 0)
(0.0105508 0.297418 0)
(0.00426394 0.208705 0)
(0.000885536 0.0232924 0)
(-0.00239119 0.0324788 0)
(-0.00252934 0.212483 0)
(-0.00498395 0.301089 0)
(-0.00444749 0.321583 0)
(-0.00507783 0.299753 0)
(-0.00070222 0.299637 0)
(0.00185824 0.297982 0)
(0.00194581 0.274375 0)
(9.7826e-05 0.280827 0)
(0.00189021 0.279469 0)
(0.00107619 0.276218 0)
(0.00122058 0.271367 0)
(-0.000103388 0.26986 0)
(-0.0011633 0.272311 0)
(-0.00108414 0.276104 0)
(-0.00188583 0.279318 0)
(-9.51881e-05 0.281162 0)
(-0.00206762 0.27453 0)
(-0.00150406 0.290356 0)
(0.00241472 0.308625 0)
(0.00438183 0.305821 0)
(0.00453313 0.317323 0)
(0.00479157 0.300034 0)
(0.00253342 0.213445 0)
(0.00240069 0.032106 0)
(-0.00402077 0.0381182 0)
(-0.00285061 0.217209 0)
(-0.00431021 0.301856 0)
(-0.00485864 0.314987 0)
(-0.0019982 0.295468 0)
(-0.0035083 0.295269 0)
(0.00034924 0.290038 0)
(0.000142174 0.275124 0)
(-0.000998241 0.277578 0)
(0.000488884 0.275074 0)
(0.00015822 0.272432 0)
(0.000476057 0.268438 0)
(-0.000181153 0.267658 0)
(-0.000658933 0.268977 0)
(-0.000303111 0.272358 0)
(-0.00062183 0.275076 0)
(0.000820631 0.277926 0)
(0.000389375 0.27526 0)
(-0.00122368 0.288832 0)
(0.00140832 0.297379 0)
(0.00543165 0.296903 0)
(0.00574231 0.314836 0)
(0.00416612 0.300775 0)
(0.00350697 0.214283 0)
(0.00357503 0.0382548 0)
(-0.0034519 0.0501636 0)
(-0.0032143 0.215462 0)
(-0.000989289 0.307553 0)
(-0.0024057 0.31322 0)
(-0.0021977 0.299395 0)
(-0.0021284 0.298485 0)
(0.000494344 0.2873 0)
(0.000142199 0.277388 0)
(-0.000737926 0.279239 0)
(0.000419905 0.278054 0)
(0.000329666 0.275822 0)
(0.000414102 0.272025 0)
(-0.000257714 0.271728 0)
(-0.000745147 0.272709 0)
(-0.000569818 0.275376 0)
(-0.000761612 0.276841 0)
(0.00071119 0.278962 0)
(0.000217175 0.278521 0)
(-0.000670542 0.292612 0)
(0.00197007 0.291272 0)
(0.00263 0.293761 0)
(0.00346026 0.319761 0)
(0.00224128 0.307152 0)
(0.00315615 0.216366 0)
(0.00366437 0.0502601 0)
(-0.00332175 0.0571225 0)
(-0.00568502 0.212921 0)
(-0.00188996 0.300487 0)
(-0.001788 0.321004 0)
(-0.00280023 0.29618 0)
(-0.00184236 0.29163 0)
(0.00036211 0.287066 0)
(-0.00116247 0.277372 0)
(-0.00201118 0.278099 0)
(-0.000313849 0.273643 0)
(-0.00019305 0.273605 0)
(0.000565653 0.271529 0)
(-0.000193405 0.271783 0)
(-0.000428937 0.271689 0)
(1.98219e-05 0.273306 0)
(9.04537e-05 0.274633 0)
(0.00115712 0.27704 0)
(0.000131016 0.279229 0)
(-0.000706666 0.287401 0)
(0.00224314 0.291402 0)
(0.000917728 0.297385 0)
(0.00160001 0.315156 0)
(0.00263303 0.303204 0)
(0.00487011 0.215102 0)
(0.00412923 0.0574008 0)
(-0.00470677 0.0739325 0)
(-0.00479264 0.21671 0)
(-0.00443786 0.2961 0)
(-0.00238011 0.316444 0)
(-0.000984027 0.3003 0)
(-0.00211239 0.291959 0)
(0.000404364 0.288455 0)
(-0.00120438 0.283904 0)
(-0.00157312 0.277831 0)
(-0.000317285 0.274583 0)
(-0.000107705 0.273992 0)
(0.000559409 0.272468 0)
(0.000178449 0.273544 0)
(0.000188141 0.27255 0)
(0.000611164 0.275193 0)
(0.000794995 0.275619 0)
(0.0014765 0.279632 0)
(0.000961544 0.283271 0)
(0.000220574 0.285312 0)
(0.00174627 0.292517 0)
(0.00200645 0.29705 0)
(0.00157744 0.313712 0)
(0.001691 0.296946 0)
(0.00569909 0.214795 0)
(0.00350142 0.074138 0)
(-0.00371806 0.0823137 0)
(-0.0069517 0.217414 0)
(-0.00451934 0.300174 0)
(-0.00327422 0.310455 0)
(-0.00222964 0.296867 0)
(-0.0015706 0.291762 0)
(-0.000497602 0.28738 0)
(-0.000332606 0.284447 0)
(-0.00018777 0.277958 0)
(-3.65286e-05 0.275611 0)
(0.000188022 0.273672 0)
(6.99439e-05 0.272854 0)
(1.93757e-05 0.274087 0)
(-0.000191953 0.272319 0)
(-8.60103e-05 0.275157 0)
(0.000410789 0.275212 0)
(0.000920389 0.278419 0)
(0.00155301 0.283592 0)
(0.00127614 0.287224 0)
(0.00262361 0.292278 0)
(0.00275539 0.296909 0)
(0.00250132 0.319975 0)
(0.00491303 0.293224 0)
(0.00676289 0.216695 0)
(0.00382027 0.0820654 0)
(-0.00391538 0.101838 0)
(-0.00852695 0.222947 0)
(-0.00535744 0.291928 0)
(-0.00224999 0.31653 0)
(-0.00239943 0.296396 0)
(-0.00177333 0.292264 0)
(-0.00114346 0.287696 0)
(-0.000595031 0.285043 0)
(-1.9658e-05 0.280312 0)
(-0.000122455 0.27689 0)
(0.000130834 0.276999 0)
(-8.86914e-05 0.277153 0)
(-0.000138803 0.277858 0)
(-0.000352148 0.27673 0)
(-0.000497242 0.276834 0)
(-4.24361e-05 0.277754 0)
(-0.000121952 0.279136 0)
(0.000898915 0.285646 0)
(0.000707655 0.289145 0)
(0.00209151 0.292162 0)
(0.00121291 0.301382 0)
(0.00339453 0.311155 0)
(0.00766969 0.292352 0)
(0.00763353 0.223734 0)
(0.00486459 0.102069 0)
(-0.00434268 0.114556 0)
(-0.00800981 0.22711 0)
(-0.0080323 0.288817 0)
(-0.00310357 0.308547 0)
(-0.00119054 0.302063 0)
(-0.00121406 0.293586 0)
(-0.000286524 0.288605 0)
(-2.27467e-05 0.285626 0)
(0.00054373 0.281477 0)
(0.000160864 0.280214 0)
(0.000262749 0.279423 0)
(4.49073e-05 0.278238 0)
(8.21834e-05 0.278962 0)
(8.77488e-05 0.278845 0)
(-9.58784e-05 0.278634 0)
(-7.8699e-05 0.279516 0)
(-0.000341774 0.281991 0)
(-3.43979e-05 0.285772 0)
(0.000763739 0.288924 0)
(0.000872449 0.293545 0)
(0.00188256 0.298989 0)
(0.00392223 0.30543 0)
(0.00688675 0.292965 0)
(0.00819206 0.22779 0)
(0.00384094 0.114342 0)
(-0.00404646 0.133886 0)
(-0.00872941 0.238194 0)
(-0.00787727 0.290822 0)
(-0.00456085 0.303699 0)
(-0.00194146 0.298646 0)
(-0.000569222 0.294578 0)
(-0.000251935 0.291786 0)
(0.000482695 0.289606 0)
(0.000796911 0.286863 0)
(0.000429013 0.2853 0)
(0.000339088 0.284263 0)
(9.14467e-05 0.283887 0)
(5.62977e-05 0.284361 0)
(3.01623e-05 0.283883 0)
(-0.000217526 0.284266 0)
(-0.000298823 0.285055 0)
(-0.000591478 0.286776 0)
(-0.000357775 0.289703 0)
(0.000515257 0.291375 0)
(0.00113277 0.29523 0)
(0.00228415 0.298572 0)
(0.00394871 0.30976 0)
(0.00770125 0.289918 0)
(0.00892834 0.237259 0)
(0.00399709 0.133252 0)
(-0.00396353 0.147671 0)
(-0.00801777 0.243116 0)
(-0.00772511 0.290222 0)
(-0.00425997 0.306451 0)
(-0.00214082 0.298315 0)
(-0.00108168 0.29697 0)
(-0.000400383 0.293562 0)
(0.000104267 0.291817 0)
(0.000477765 0.288832 0)
(0.000283241 0.28706 0)
(0.000236883 0.286901 0)
(1.32017e-05 0.286158 0)
(-1.06311e-05 0.286293 0)
(-2.42088e-05 0.2861 0)
(-0.00026705 0.286616 0)
(-0.000381301 0.287126 0)
(-0.000680274 0.288493 0)
(-0.000406094 0.291261 0)
(-4.40116e-05 0.293394 0)
(0.000701842 0.296383 0)
(0.00145544 0.299764 0)
(0.00403142 0.302625 0)
(0.0083469 0.289773 0)
(0.00837938 0.243559 0)
(0.00410799 0.147779 0)
(-0.00375056 0.164966 0)
(-0.00796688 0.253832 0)
(-0.00815264 0.291016 0)
(-0.00459098 0.302231 0)
(-0.00224829 0.301319 0)
(-0.00120195 0.299694 0)
(-0.000229531 0.297315 0)
(0.000161604 0.296408 0)
(0.000437337 0.294375 0)
(0.000307961 0.293163 0)
(0.000249463 0.292723 0)
(3.85385e-05 0.29211 0)
(-1.35874e-05 0.292121 0)
(-7.36614e-05 0.292139 0)
(-0.000275203 0.292617 0)
(-0.000358321 0.293159 0)
(-0.00044891 0.294321 0)
(-0.000267069 0.296348 0)
(0.000193707 0.297172 0)
(0.000928882 0.299673 0)
(0.00252734 0.301212 0)
(0.00464983 0.300909 0)
(0.00770023 0.291195 0)
(0.0079529 0.25404 0)
(0.00366778 0.165447 0)
(-0.00347411 0.178458 0)
(-0.00702507 0.260454 0)
(-0.00721723 0.291411 0)
(-0.00491297 0.302002 0)
(-0.00300261 0.301297 0)
(-0.00179044 0.300395 0)
(-0.000922716 0.299192 0)
(-0.000345427 0.297357 0)
(-5.57849e-05 0.296308 0)
(1.08552e-06 0.295685 0)
(6.16802e-05 0.294816 0)
(-3.4689e-06 0.294554 0)
(6.55935e-06 0.294591 0)
(7.7112e-06 0.294469 0)
(-4.2199e-05 0.295083 0)
(3.44533e-05 0.295766 0)
(0.000144239 0.296474 0)
(0.00044769 0.297594 0)
(0.00106722 0.299505 0)
(0.00198875 0.300927 0)
(0.00322045 0.301299 0)
(0.00495481 0.303652 0)
(0.0070235 0.291924 0)
(0.00681245 0.260533 0)
(0.00342544 0.178343 0)
(-0.0032745 0.193059 0)
(-0.00643457 0.269311 0)
(-0.00677645 0.295648 0)
(-0.00492181 0.303958 0)
(-0.00331441 0.302644 0)
(-0.00208326 0.303495 0)
(-0.00123316 0.302705 0)
(-0.000684367 0.302082 0)
(-0.00032059 0.301302 0)
(-0.000180781 0.300562 0)
(-4.88976e-05 0.300233 0)
(-4.34211e-05 0.299939 0)
(-8.17671e-06 0.299938 0)
(3.68598e-05 0.299896 0)
(3.45625e-05 0.30019 0)
(0.00016034 0.300519 0)
(0.000278821 0.301196 0)
(0.000661666 0.302162 0)
(0.00121087 0.302871 0)
(0.00206508 0.303659 0)
(0.00321686 0.301594 0)
(0.0049495 0.304265 0)
(0.00686877 0.29465 0)
(0.00645441 0.269128 0)
(0.00330342 0.192955 0)
(-0.0030347 0.205014 0)
(-0.0058396 0.275449 0)
(-0.00601049 0.297549 0)
(-0.00470108 0.30379 0)
(-0.00367479 0.303471 0)
(-0.0026221 0.305224 0)
(-0.00179764 0.304437 0)
(-0.00121337 0.30433 0)
(-0.000716957 0.303588 0)
(-0.000474103 0.303219 0)
(-0.000261927 0.30298 0)
(-0.000120526 0.302523 0)
(7.14727e-06 0.302403 0)
(0.000146201 0.302599 0)
(0.000266118 0.302967 0)
(0.000485933 0.303204 0)
(0.000666736 0.303715 0)
(0.00120196 0.304189 0)
(0.00174411 0.30412 0)
(0.0025329 0.305152 0)
(0.00357327 0.304805 0)
(0.00476118 0.304739 0)
(0.00614793 0.298088 0)
(0.00585937 0.275558 0)
(0.00306909 0.205055 0)
(-0.00287622 0.217582 0)
(-0.00529271 0.282776 0)
(-0.00551457 0.301731 0)
(-0.00449224 0.306787 0)
(-0.0037422 0.306861 0)
(-0.00287623 0.308137 0)
(-0.00210808 0.307665 0)
(-0.00154445 0.307866 0)
(-0.0010499 0.307368 0)
(-0.000733304 0.307196 0)
(-0.000411196 0.307026 0)
(-0.000198374 0.306842 0)
(-2.41064e-06 0.306813 0)
(0.000195323 0.306832 0)
(0.000409355 0.307028 0)
(0.000725396 0.307206 0)
(0.001056 0.307374 0)
(0.00155704 0.307817 0)
(0.00209373 0.307864 0)
(0.00286766 0.308073 0)
(0.00372967 0.307058 0)
(0.00446284 0.306007 0)
(0.00548553 0.301971 0)
(0.00529422 0.282789 0)
(0.00285548 0.21759 0)
(-0.00269477 0.228257 0)
(-0.00486426 0.2883 0)
(-0.00496739 0.304214 0)
(-0.00420661 0.309224 0)
(-0.00361589 0.309453 0)
(-0.00286376 0.309709 0)
(-0.00228349 0.309922 0)
(-0.00176494 0.309828 0)
(-0.00127909 0.309876 0)
(-0.000919337 0.309737 0)
(-0.000549384 0.309659 0)
(-0.000285374 0.309545 0)
(6.70802e-06 0.309509 0)
(0.000267553 0.309538 0)
(0.000550443 0.309677 0)
(0.000922092 0.309732 0)
(0.00128888 0.309868 0)
(0.0017735 0.309839 0)
(0.00229682 0.309839 0)
(0.00298671 0.309885 0)
(0.00366906 0.308586 0)
(0.00417824 0.308928 0)
(0.00493967 0.303916 0)
(0.00483514 0.288294 0)
(0.0026985 0.228243 0)
(-0.00256428 0.239247 0)
(-0.00443143 0.294476 0)
(-0.00458609 0.308164 0)
(-0.00394939 0.312227 0)
(-0.00347386 0.312631 0)
(-0.0029546 0.312997 0)
(-0.00235399 0.312988 0)
(-0.00186157 0.313161 0)
(-0.00138454 0.313118 0)
(-0.00100317 0.313109 0)
(-0.000632021 0.313126 0)
(-0.0003039 0.313054 0)
(-1.47458e-05 0.313032 0)
(0.000297526 0.31308 0)
(0.000616353 0.313085 0)
(0.000991333 0.313117 0)
(0.00136384 0.313142 0)
(0.00184478 0.313137 0)
(0.00231512 0.312932 0)
(0.00290588 0.312914 0)
(0.00348598 0.312319 0)
(0.00395484 0.3121 0)
(0.00459609 0.307925 0)
(0.00445797 0.294473 0)
(0.00256612 0.23924 0)
(-0.00242799 0.248902 0)
(-0.0040957 0.299538 0)
(-0.00420128 0.310579 0)
(-0.00367984 0.314404 0)
(-0.00327112 0.313903 0)
(-0.00277973 0.315117 0)
(-0.0022841 0.315335 0)
(-0.00184676 0.31559 0)
(-0.00140302 0.315655 0)
(-0.00104376 0.315681 0)
(-0.000664413 0.315683 0)
(-0.000319221 0.315715 0)
(-6.93328e-06 0.315711 0)
(0.000327367 0.31567 0)
(0.000667181 0.315716 0)
(0.00103102 0.31568 0)
(0.00140223 0.315644 0)
(0.00183314 0.315615 0)
(0.00227199 0.315377 0)
(0.00275467 0.315152 0)
(0.00326271 0.314393 0)
(0.00369044 0.314595 0)
(0.00419227 0.310895 0)
(0.00409217 0.29955 0)
(0.00242572 0.248911 0)
(-0.00230557 0.258654 0)
(-0.00376531 0.304941 0)
(-0.00385281 0.314371 0)
(-0.00343473 0.317484 0)
(-0.00304483 0.317538 0)
(-0.00261582 0.318144 0)
(-0.00217409 0.318356 0)
(-0.00179089 0.318613 0)
(-0.00139189 0.318698 0)
(-0.00102728 0.31878 0)
(-0.000673714 0.31882 0)
(-0.000342912 0.318853 0)
(7.54666e-06 0.318859 0)
(0.000325528 0.318852 0)
(0.000659195 0.318821 0)
(0.00102741 0.318801 0)
(0.00136868 0.318725 0)
(0.00178098 0.318604 0)
(0.00217561 0.318341 0)
(0.00261725 0.318149 0)
(0.00302685 0.317472 0)
(0.00341637 0.317476 0)
(0.00385488 0.314379 0)
(0.00376953 0.304932 0)
(0.00230336 0.258649 0)
(-0.00218618 0.267451 0)
(-0.00346341 0.309563 0)
(-0.00352641 0.317385 0)
(-0.00315001 0.320077 0)
(-0.00280939 0.320034 0)
(-0.00244484 0.320708 0)
(-0.00206104 0.320902 0)
(-0.0017011 0.321212 0)
(-0.0013339 0.321305 0)
(-0.00100152 0.3214 0)
(-0.000667174 0.321472 0)
(-0.000332986 0.32148 0)
(-2.84287e-06 0.321506 0)
(0.000327157 0.321506 0)
(0.000649877 0.321463 0)
(0.000984813 0.321413 0)
(0.00133873 0.32131 0)
(0.00170493 0.321185 0)
(0.00206628 0.320917 0)
(0.00244069 0.320725 0)
(0.00280586 0.32014 0)
(0.00314679 0.320084 0)
(0.00352487 0.317395 0)
(0.00346539 0.309582 0)
(0.00218187 0.267453 0)
(-0.00207384 0.276145 0)
(-0.00318244 0.314323 0)
(-0.00323863 0.320725 0)
(-0.00289475 0.323035 0)
(-0.00258849 0.323097 0)
(-0.00228013 0.323643 0)
(-0.00193902 0.323843 0)
(-0.00162176 0.324096 0)
(-0.00126558 0.324251 0)
(-0.000960764 0.324376 0)
(-0.000622144 0.324414 0)
(-0.000318542 0.324441 0)
(-7.8003e-06 0.324462 0)
(0.000303035 0.32446 0)
(0.000619188 0.324441 0)
(0.000951011 0.324348 0)
(0.00126874 0.32423 0)
(0.0016141 0.324103 0)
(0.00192299 0.323849 0)
(0.00226146 0.323648 0)
(0.00258154 0.323077 0)
(0.00289385 0.323037 0)
(0.00322285 0.320731 0)
(0.00318168 0.314329 0)
(0.00207199 0.276143 0)
(-0.00196302 0.284151 0)
(-0.00292184 0.318585 0)
(-0.00295633 0.323787 0)
(-0.00266214 0.325722 0)
(-0.00237844 0.325822 0)
(-0.00210775 0.326336 0)
(-0.00180031 0.326528 0)
(-0.00152227 0.326774 0)
(-0.00120559 0.326897 0)
(-0.000899393 0.327006 0)
(-0.00059097 0.327091 0)
(-0.000304633 0.32715 0)
(-6.96347e-06 0.327165 0)
(0.000288093 0.327143 0)
(0.00058701 0.327066 0)
(0.00090329 0.327012 0)
(0.00118477 0.326905 0)
(0.00150274 0.326791 0)
(0.00179223 0.326557 0)
(0.00211447 0.326332 0)
(0.00237781 0.325823 0)
(0.00265438 0.325741 0)
(0.00294881 0.323794 0)
(0.00291519 0.318571 0)
(0.00196437 0.284146 0)
(-0.00185621 0.291942 0)
(-0.00267167 0.322833 0)
(-0.00269632 0.327015 0)
(-0.0024331 0.328637 0)
(-0.00219867 0.328746 0)
(-0.00194934 0.32922 0)
(-0.00166818 0.329431 0)
(-0.00139998 0.329646 0)
(-0.0011155 0.329748 0)
(-0.000848393 0.329871 0)
(-0.000570864 0.329959 0)
(-0.000288298 0.329995 0)
(-5.83886e-06 0.330003 0)
(0.000283303 0.329993 0)
(0.000558792 0.329945 0)
(0.00082765 0.329882 0)
(0.00110706 0.329779 0)
(0.00138917 0.329619 0)
(0.0016691 0.329375 0)
(0.00194628 0.329217 0)
(0.00219759 0.328767 0)
(0.00243409 0.328648 0)
(0.00269694 0.327012 0)
(0.00267666 0.322823 0)
(0.0018529 0.291929 0)
(-0.00175678 0.299182 0)
(-0.00243596 0.32673 0)
(-0.00245583 0.330054 0)
(-0.00222828 0.331416 0)
(-0.00202714 0.331554 0)
(-0.00180451 0.331937 0)
(-0.00155053 0.332115 0)
(-0.00129528 0.332334 0)
(-0.00102973 0.332483 0)
(-0.000792072 0.332586 0)
(-0.000518995 0.332643 0)
(-0.000269156 0.332679 0)
(-1.06651e-05 0.332689 0)
(0.000247886 0.332674 0)
(0.000507706 0.332657 0)
(0.000770992 0.332582 0)
(0.00102535 0.332462 0)
(0.00129589 0.332336 0)
(0.00152894 0.332138 0)
(0.00177856 0.331945 0)
(0.00200689 0.331544 0)
(0.00222014 0.331433 0)
(0.00244772 0.330054 0)
(0.00243474 0.326728 0)
(0.00175513 0.299183 0)
(-0.00165089 0.306148 0)
(-0.00220543 0.330536 0)
(-0.00221654 0.333178 0)
(-0.00202283 0.334296 0)
(-0.00183643 0.334431 0)
(-0.00163371 0.334771 0)
(-0.0014151 0.334938 0)
(-0.00120012 0.335109 0)
(-0.000962502 0.335259 0)
(-0.000721005 0.335351 0)
(-0.000475047 0.335423 0)
(-0.000242145 0.335486 0)
(-3.05575e-06 0.335482 0)
(0.000227124 0.335461 0)
(0.000472623 0.335406 0)
(0.000713135 0.335348 0)
(0.000948531 0.335246 0)
(0.00118388 0.335121 0)
(0.00140741 0.334941 0)
(0.00163787 0.334764 0)
(0.0018332 0.334413 0)
(0.00202705 0.334283 0)
(0.00222419 0.333164 0)
(0.00220985 0.330512 0)
(0.00164942 0.306129 0)
(-0.00155796 0.312644 0)
(-0.00201747 0.334089 0)
(-0.00201245 0.336177 0)
(-0.00184219 0.337084 0)
(-0.00167394 0.337221 0)
(-0.00149205 0.337523 0)
(-0.00129433 0.337702 0)
(-0.00109807 0.337866 0)
(-0.000891769 0.337961 0)
(-0.000670398 0.338037 0)
(-0.000460422 0.338122 0)
(-0.000232713 0.338162 0)
(-7.60499e-06 0.338188 0)
(0.000212487 0.338154 0)
(0.000433912 0.338123 0)
(0.000647267 0.338062 0)
(0.000863882 0.337967 0)
(0.00107331 0.337853 0)
(0.00127604 0.337678 0)
(0.00147639 0.337526 0)
(0.00165694 0.33722 0)
(0.0018252 0.337084 0)
(0.00199884 0.336184 0)
(0.0019977 0.334113 0)
(0.00155276 0.312654 0)
(-0.00144515 0.318822 0)
(-0.00176815 0.337439 0)
(-0.00181164 0.339075 0)
(-0.00164655 0.339815 0)
(-0.00151353 0.339943 0)
(-0.00134637 0.340203 0)
(-0.00117311 0.340359 0)
(-0.000983823 0.3405 0)
(-0.000791117 0.340609 0)
(-0.000604921 0.340686 0)
(-0.00041169 0.340745 0)
(-0.000210921 0.340767 0)
(-7.02577e-06 0.340783 0)
(0.000198699 0.34077 0)
(0.000389503 0.340735 0)
(0.000595419 0.340681 0)
(0.000782457 0.340596 0)