/*--------------------------------*- C++ -*----------------------------------*\
| =========                 |                                                 |
| \\      /  F ield         | OpenFOAM: The Open Source CFD Toolbox           |
|  \\    /   O peration     | Version:  2312                                  |
|   \\  /    A nd           | Website:  www.openfoam.com                      |
|    \\/     M anipulation  |                                                 |
\*---------------------------------------------------------------------------*/
FoamFile
{
    version     2.0;
    format      ascii;
    arch        "LSB;label=32;scalar=64";
    class       volScalarField;
    location    "1.1/water";
    object      alpha.gas;
}
// * * * * * * * * * * * * * * * * * * * * * * * * * * * * * * * * * * * * * //

dimensions      [0 0 0 0 0 0 0];

internalField   nonuniform List<scalar> 
23300
(
1e-15
1e-15
1e-15
1e-15
1e-15
1e-15
1e-15
1e-15
1e-15
1e-15
1e-15
1e-15
1e-15
1e-15
1e-15
1e-15
1e-15
1e-15
1e-15
1e-15
1e-15
1e-15
1e-15
1e-15
1e-15
1e-15
1e-15
1e-15
1e-15
1e-15
1e-15
1e-15
1e-15
1e-15
1e-15
1e-15
1e-15
1e-15
1e-15
1e-15
1e-15
1e-15
1e-15
1e-15
1e-15
1e-15
1e-15
1e-15
1e-15
1e-15
1e-15
1e-15
1e-15
1e-15
1e-15
1e-15
1e-15
1e-15
1e-15
1e-15
1e-15
1e-15
1e-15
1e-15
1e-15
1e-15
1e-15
1e-15
1e-15
1e-15
1e-15
1e-15
1e-15
1e-15
1e-15
1e-15
1e-15
1e-15
1e-15
1e-15
1e-15
1e-15
1e-15
1e-15
1e-15
1e-15
1e-15
1e-15
1e-15
1e-15
1e-15
1e-15
1e-15
1e-15
1e-15
1e-15
1e-15
1e-15
1e-15
1e-15
1e-15
1e-15
1e-15
1e-15
1e-15
1e-15
1e-15
1e-15
1e-15
1e-15
1e-15
1e-15
1e-15
1e-15
1e-15
1e-15
1e-15
1e-15
1e-15
1e-15
1e-15
1e-15
1e-15
1e-15
1e-15
1e-15
1e-15
1e-15
1e-15
1e-15
1e-15
1e-15
1e-15
1e-15
1e-15
1e-15
1e-15
1e-15
1e-15
1e-15
1e-15
1e-15
1e-15
1e-15
1e-15
1e-15
1e-15
1e-15
1e-15
1e-15
1e-15
1e-15
1e-15
1e-15
1e-15
1e-15
1e-15
1e-15
1e-15
1e-15
1e-15
1e-15
1e-15
1e-15
1e-15
1e-15
1e-15
1e-15
1e-15
1e-15
1e-15
1e-15
1e-15
1e-15
1e-15
1e-15
1e-15
1e-15
1e-15
1e-15
1e-15
1e-15
1e-15
1e-15
1e-15
1e-15
1e-15
1e-15
1e-15
1e-15
1e-15
1e-15
1e-15
1e-15
1e-15
1e-15
1e-15
1e-15
1e-15
1e-15
1e-15
1e-15
1e-15
1e-15
1e-15
1e-15
1e-15
1e-15
1e-15
1e-15
1e-15
1e-15
1e-15
1e-15
1e-15
1e-15
1e-15
1e-15
1e-15
1e-15
1e-15
1e-15
1e-15
1e-15
1e-15
1e-15
1e-15
1e-15
1e-15
1e-15
1e-15
1e-15
1e-15
1e-15
1e-15
1e-15
1e-15
1e-15
1e-15
1e-15
1e-15
1e-15
1e-15
1e-15
1e-15
1e-15
1e-15
1e-15
1e-15
1e-15
1e-15
1e-15
1e-15
1e-15
1e-15
1e-15
1e-15
1e-15
1e-15
1e-15
1e-15
1e-15
1e-15
1e-15
1e-15
1e-15
1e-15
1e-15
1e-15
1e-15
1e-15
1e-15
1e-15
1e-15
1e-15
1e-15
1e-15
1e-15
1e-15
1e-15
1e-15
1e-15
1e-15
1e-15
1e-15
1e-15
1e-15
1e-15
1e-15
1e-15
1e-15
1e-15
1e-15
1e-15
1e-15
1e-15
1e-15
1e-15
1e-15
1e-15
1e-15
1e-15
1e-15
1e-15
1e-15
1e-15
1e-15
1e-15
1e-15
1e-15
1e-15
1e-15
1e-15
1e-15
1e-15
1e-15
1e-15
1e-15
1e-15
1e-15
1e-15
1e-15
1e-15
1e-15
1e-15
1e-15
1e-15
1e-15
1e-15
1e-15
1e-15
1e-15
1e-15
1e-15
1e-15
1e-15
1e-15
1e-15
1e-15
1e-15
1e-15
1e-15
1e-15
1e-15
1e-15
1e-15
1e-15
1e-15
1e-15
1e-15
1e-15
1e-15
1e-15
1e-15
1e-15
1e-15
1e-15
1e-15
1e-15
1e-15
1e-15
1e-15
1e-15
1e-15
1e-15
1e-15
1e-15
1e-15
1e-15
1e-15
1e-15
1e-15
1e-15
1e-15
1e-15
1e-15
1e-15
1e-15
1e-15
1e-15
1e-15
1e-15
1e-15
1e-15
1e-15
1e-15
1e-15
1e-15
1e-15
1e-15
1e-15
1e-15
1e-15
1e-15
1e-15
1e-15
1e-15
1e-15
1e-15
1e-15
1e-15
1e-15
1e-15
1e-15
1e-15
1e-15
1e-15
1e-15
1e-15
1e-15
1e-15
1e-15
1e-15
1e-15
1e-15
1e-15
1e-15
1e-15
1e-15
1e-15
1e-15
1e-15
1e-15
1e-15
1e-15
1e-15
1e-15
1e-15
1e-15
1e-15
1e-15
1e-15
1e-15
1e-15
1e-15
1e-15
1e-15
1e-15
1e-15
1e-15
1e-15
1e-15
1e-15
1e-15
1e-15
1e-15
1e-15
1e-15
1e-15
1e-15
1e-15
1e-15
1e-15
1e-15
1e-15
1e-15
1e-15
1e-15
1e-15
1e-15
1e-15
1e-15
1e-15
1e-15
1e-15
1e-15
1e-15
1e-15
1e-15
1e-15
1e-15
1e-15
1e-15
1e-15
1e-15
1e-15
1e-15
1e-15
1e-15
1e-15
1e-15
1e-15
1e-15
1e-15
1e-15
1e-15
1e-15
1e-15
1e-15
1e-15
1e-15
1e-15
1e-15
1e-15
1e-15
1e-15
1e-15
1e-15
1e-15
1e-15
1e-15
1e-15
1e-15
1e-15
1e-15
1e-15
1e-15
1e-15
1e-15
1e-15
1e-15
1e-15
1e-15
1e-15
1e-15
1e-15
1e-15
1e-15
1e-15
1e-15
1e-15
1e-15
1e-15
1e-15
1e-15
1e-15
1e-15
1e-15
1e-15
1e-15
1e-15
1e-15
1e-15
1e-15
1e-15
1e-15
1e-15
1e-15
1e-15
1e-15
1e-15
1e-15
1e-15
1e-15
1e-15
1e-15
1e-15
1e-15
1e-15
1e-15
1e-15
1e-15
1e-15
1e-15
1e-15
1e-15
1e-15
1e-15
1e-15
1e-15
1e-15
1e-15
1e-15
1e-15
1e-15
1e-15
1e-15
1e-15
1e-15
1e-15
1e-15
1e-15
1e-15
1e-15
1e-15
1e-15
1e-15
1e-15
1e-15
1e-15
1e-15
1e-15
1e-15
1e-15
1e-15
1e-15
1e-15
1e-15
1e-15
1e-15
1e-15
1e-15
1e-15
1e-15
1e-15
1e-15
1e-15
1e-15
1e-15
1e-15
1e-15
1e-15
1e-15
1e-15
1e-15
1e-15
1e-15
1e-15
1e-15
1e-15
1e-15
1e-15
1e-15
1e-15
1e-15
1e-15
1e-15
1e-15
1e-15
1e-15
1e-15
1e-15
1e-15
1e-15
1e-15
1e-15
1e-15
1e-15
1e-15
1e-15
1e-15
1e-15
1e-15
1e-15
1e-15
1e-15
1e-15
1e-15
1e-15
1e-15
1e-15
1e-15
1e-15
1e-15
1e-15
1e-15
1e-15
1e-15
1e-15
1e-15
1e-15
1e-15
1e-15
1e-15
1e-15
1e-15
1e-15
1e-15
1e-15
1e-15
1e-15
1e-15
1e-15
1e-15
1e-15
1e-15
1e-15
1e-15
1e-15
1e-15
1e-15
1e-15
1e-15
1e-15
1e-15
1e-15
1e-15
1e-15
1e-15
1e-15
1e-15
1e-15
1e-15
1e-15
1e-15
1e-15
1e-15
1e-15
1e-15
1e-15
1e-15
1e-15
1.00672224662e-15
1.00631708664e-15
1.00726465635e-15
1.00631069916e-15
1.0073780099e-15
1e-15
1e-15
1e-15
1e-15
1e-15
1e-15
1e-15
1e-15
1e-15
1e-15
1e-15
1e-15
1e-15
1e-15
1e-15
1e-15
1e-15
1e-15
1e-15
1e-15
1e-15
1e-15
1e-15
1e-15
1e-15
1e-15
1e-15
1e-15
1e-15
1e-15
1e-15
1e-15
1e-15
1e-15
1e-15
1e-15
1e-15
1e-15
1e-15
1e-15
1e-15
1e-15
1e-15
1e-15
1e-15
1e-15
1e-15
1e-15
1e-15
1e-15
1e-15
1e-15
1e-15
1e-15
1e-15
1e-15
1e-15
1e-15
1e-15
1e-15
1e-15
1e-15
1e-15
1e-15
1e-15
1e-15
1e-15
1e-15
1e-15
1e-15
1e-15
1e-15
1e-15
1e-15
1e-15
1e-15
1e-15
1e-15
1e-15
1e-15
1e-15
1e-15
1e-15
1e-15
1e-15
1e-15
1e-15
1e-15
1e-15
1e-15
1e-15
1e-15
1e-15
1e-15
1e-15
1e-15
1e-15
1e-15
1e-15
1e-15
1e-15
1e-15
1e-15
1e-15
1e-15
1e-15
1e-15
1e-15
1e-15
1e-15
1e-15
1e-15
1e-15
1e-15
1e-15
1e-15
1e-15
1e-15
1e-15
1e-15
1e-15
1e-15
1e-15
1e-15
1e-15
1e-15
1e-15
1e-15
1e-15
1e-15
1e-15
1e-15
1e-15
1e-15
1e-15
1.00632395487e-15
1.00713385435e-15
1.00631708664e-15
1.00759849189e-15
1.00631069916e-15
1e-15
1e-15
1e-15
1e-15
1e-15
1e-15
1e-15
1e-15
1e-15
1e-15
1e-15
1e-15
1e-15
1e-15
1e-15
1e-15
1e-15
1e-15
1e-15
1e-15
1e-15
1e-15
1e-15
1e-15
1e-15
1e-15
1e-15
1e-15
1e-15
1e-15
1e-15
1e-15
1e-15
1e-15
1e-15
1e-15
1e-15
1e-15
1e-15
1e-15
1e-15
1e-15
1e-15
1.00000186746e-15
1.00000427657e-15
1.00022087147e-15
1.001264987e-15
1.00185020252e-15
1.00166070406e-15
1.00052919253e-15
1.00017078482e-15
1.00021607565e-15
1.0002302774e-15
1.00024187548e-15
1.00024706075e-15
1.00024744498e-15
1.00024267816e-15
1.00023130775e-15
1.00019233717e-15
1.00015312494e-15
1.00012717975e-15
1.00009875825e-15
1.00006143333e-15
1.00002222835e-15
1.00001035592e-15
1.00000478482e-15
1.00000160323e-15
1e-15
1e-15
1e-15
1e-15
1e-15
1e-15
1e-15
1e-15
1e-15
1e-15
1e-15
1e-15
1e-15
1e-15
1e-15
1e-15
1e-15
1e-15
1e-15
1e-15
1e-15
1e-15
1e-15
1e-15
1e-15
1e-15
1e-15
1e-15
1e-15
1e-15
1e-15
1e-15
1e-15
1e-15
1e-15
1.00000189403e-15
1.00000501275e-15
1.00000675624e-15
1.00001145985e-15
1.00001487358e-15
1.00001937536e-15
1.00002402255e-15
1.00004166935e-15
1.0000584848e-15
1.00007424856e-15
1.00008826037e-15
1.00010260845e-15
1.00011640981e-15
1.00012952291e-15
1.00014126471e-15
1.00015240318e-15
1.00016201355e-15
1.00017061413e-15
1.00017836779e-15
1.000185241e-15
1.00019119172e-15
1.00019653732e-15
1.00020110148e-15
1.00020510079e-15
1.00020847086e-15
1.00021144544e-15
1.00021392863e-15
1.00021613521e-15
1.00021800277e-15
1.00021968494e-15
1.00022440255e-15
1.00023207484e-15
1.00032996131e-15
1.00690744591e-15
1.00632395487e-15
1.00736446359e-15
1.00631708664e-15
1.00746506077e-15
1.00202482992e-15
1.00019973504e-15
1.0000759272e-15
1e-15
1e-15
1e-15
1e-15
1e-15
1e-15
1e-15
1e-15
1e-15
1e-15
1e-15
1e-15
1e-15
1e-15
1e-15
1e-15
1e-15
1e-15
1e-15
1e-15
1e-15
1e-15
1e-15
1e-15
1e-15
1e-15
1e-15
1e-15
1e-15
1e-15
1e-15
1e-15
1e-15
1e-15
1e-15
1e-15
1e-15
1e-15
1e-15
1e-15
1.00002432605e-15
1.00072453743e-15
1.0019973938e-15
1.00215701878e-15
1.00220194356e-15
1.00215701878e-15
1.00218702655e-15
1.00108908733e-15
1.00057201539e-15
1.00062217338e-15
1.00063548684e-15
1.00064115806e-15
1.00063920253e-15
1.00062219598e-15
1.00057169939e-15
1.0004571459e-15
1.00039159315e-15
1.00037353422e-15
1.00032848786e-15
1.00022956285e-15
1.00012216183e-15
1.00001411914e-15
1.00000335685e-15
1e-15
1e-15
1e-15
1e-15
1e-15
1e-15
1e-15
1e-15
1e-15
1e-15
1e-15
1e-15
1e-15
1e-15
1e-15
1e-15
1e-15
1e-15
1e-15
1e-15
1e-15
1e-15
1e-15
1e-15
1e-15
1e-15
1e-15
1e-15
1e-15
1e-15
1e-15
1e-15
1e-15
1e-15
1e-15
1.0000009881e-15
1.00000456266e-15
1.00000845034e-15
1.00001408379e-15
1.00002068782e-15
1.00005963711e-15
1.00009818609e-15
1.00013673888e-15
1.00017045034e-15
1.00020122591e-15
1.0002308023e-15
1.00025880024e-15
1.00028654232e-15
1.00031193102e-15
1.00033576248e-15
1.0003563878e-15
1.00037546668e-15
1.00039171449e-15
1.00040634341e-15
1.00041933658e-15
1.0004309568e-15
1.00044095566e-15
1.00045027089e-15
1.00045782231e-15
1.00046463254e-15
1.0004704699e-15
1.00047566638e-15
1.00047980085e-15
1.00048341011e-15
1.00048644244e-15
1.00048955312e-15
1.00049771178e-15
1.00050982595e-15
1.00072243607e-15
1.00633118679e-15
1.00710660692e-15
1.00632395487e-15
1.00759097296e-15
1.00631708664e-15
1.00640794216e-15
1.00047628864e-15
1.00024160779e-15
1e-15
1e-15
1e-15
1e-15
1e-15
1e-15
1e-15
1e-15
1e-15
1e-15
1e-15
1e-15
1e-15
1e-15
1e-15
1e-15
1e-15
1e-15
1e-15
1e-15
1e-15
1e-15
1e-15
1e-15
1e-15
1e-15
1e-15
1e-15
1e-15
1e-15
1e-15
1e-15
1e-15
1e-15
1e-15
1e-15
1e-15
1e-15
1.0000041649e-15
1.00010585965e-15
1.00061415544e-15
1.00214293812e-15
1.00215701878e-15
1.00219816995e-15
1.00215701878e-15
1.00219768685e-15
1.00215701878e-15
1.00219004219e-15
1.00121818485e-15
1.00103151864e-15
1.00104179825e-15
1.00103061185e-15
1.00100462356e-15
1.0009596173e-15
1.0008930372e-15
1.00078392266e-15
1.0006142915e-15
1.00045995203e-15
1.00028699548e-15
1.00011596472e-15
1.00000146774e-15
1e-15
1e-15
1e-15
1e-15
1e-15
1e-15
1e-15
1e-15
1e-15
1e-15
1e-15
1e-15
1e-15
1e-15
1e-15
1e-15
1e-15
1e-15
1e-15
1e-15
1e-15
1e-15
1e-15
1e-15
1e-15
1e-15
1e-15
1e-15
1e-15
1e-15
1e-15
1e-15
1e-15
1e-15
1e-15
1e-15
1e-15
1.00000272353e-15
1.00000740131e-15
1.00002046429e-15
1.00005385045e-15
1.00009293527e-15
1.00014837838e-15
1.00018963876e-15
1.00022591595e-15
1.00026609095e-15
1.00030730417e-15
1.0003494785e-15
1.00038851193e-15
1.00041757001e-15
1.00044330285e-15
1.0004677698e-15
1.00049013924e-15
1.00051087497e-15
1.00052899909e-15
1.00054524943e-15
1.00055955327e-15
1.00057259148e-15
1.00058410171e-15
1.00059451293e-15
1.00060310157e-15
1.00061067932e-15
1.00061778784e-15
1.00062356205e-15
1.00062814674e-15
1.00063184469e-15
1.000634999e-15
1.000639805e-15
1.00065096381e-15
1.00066122845e-15
1.00090516992e-15
1.00688212609e-15
1.00633118679e-15
1.00733869903e-15
1.00632395487e-15
1.00744165848e-15
1.00631708664e-15
1.00064137989e-15
1.00036805189e-15
1e-15
1e-15
1e-15
1e-15
1e-15
1e-15
1e-15
1e-15
1e-15
1e-15
1e-15
1e-15
1e-15
1e-15
1e-15
1e-15
1e-15
1e-15
1e-15
1e-15
1e-15
1e-15
1e-15
1e-15
1e-15
1e-15
1e-15
1e-15
1e-15
1e-15
1e-15
1e-15
1e-15
1e-15
1e-15
1e-15
1e-15
1.00010678082e-15
1.00029320072e-15
1.00069770738e-15
1.00190130029e-15
1.00215701878e-15
1.00219247475e-15
1.00215701878e-15
1.00219504226e-15
1.00215701878e-15
1.00219300741e-15
1.00215701878e-15
1.00217852444e-15
1.00140060884e-15
1.0014136924e-15
1.00143549788e-15
1.0014893038e-15
1.00143709958e-15
1.00111546333e-15
1.00070919294e-15
1.00036195525e-15
1.00004523149e-15
1e-15
1e-15
1e-15
1e-15
1e-15
1e-15
1e-15
1e-15
1e-15
1e-15
1e-15
1e-15
1e-15
1e-15
1e-15
1e-15
1e-15
1e-15
1e-15
1e-15
1e-15
1e-15
1e-15
1e-15
1e-15
1e-15
1e-15
1e-15
1e-15
1e-15
1e-15
1e-15
1e-15
1e-15
1e-15
1e-15
1e-15
1e-15
1e-15
1e-15
1e-15
1e-15
1.00000436672e-15
1.00003000466e-15
1.00009086577e-15
1.00015540127e-15
1.00022012974e-15
1.000275534e-15
1.00032740902e-15
1.00037373538e-15
1.00040943467e-15
1.00044584455e-15
1.00047717991e-15
1.00050619678e-15
1.00053392732e-15
1.00056288063e-15
1.00059027333e-15
1.00061483395e-15
1.00063684558e-15
1.00065538027e-15
1.00067296381e-15
1.00068832852e-15
1.00070157283e-15
1.00071318987e-15
1.00072283744e-15
1.00073213515e-15
1.00073924426e-15
1.00074486817e-15
1.00074952756e-15
1.00075318241e-15
1.00076036876e-15
1.00077209631e-15
1.00078150542e-15
1.00459933011e-15
1.00633878126e-15
1.00707830841e-15
1.00633118679e-15
1.00757088246e-15
1.00632395487e-15
1.00643182333e-15
1.00076406151e-15
1.00039136023e-15
1e-15
1e-15
1e-15
1e-15
1e-15
1e-15
1e-15
1e-15
1e-15
1e-15
1e-15
1e-15
1e-15
1e-15
1e-15
1e-15
1e-15
1e-15
1e-15
1e-15
1e-15
1e-15
1e-15
1e-15
1e-15
1e-15
1e-15
1e-15
1e-15
1e-15
1e-15
1e-15
1e-15
1e-15
1e-15
1e-15
1.00020833276e-15
1.00043967346e-15
1.00064093113e-15
1.00126092264e-15
1.00215701878e-15
1.00218435893e-15
1.00215701878e-15
1.00219218224e-15
1.00215701878e-15
1.00218842956e-15
1.00215701878e-15
1.00218291447e-15
1.00215701878e-15
1.00210311772e-15
1.00201855404e-15
1.00183597355e-15
1.00150374494e-15
1.00117679368e-15
1.00057750919e-15
1.00000001255e-15
1e-15
1e-15
1e-15
1e-15
1e-15
1e-15
1e-15
1e-15
1e-15
1e-15
1e-15
1e-15
1e-15
1e-15
1e-15
1e-15
1e-15
1e-15
1e-15
1e-15
1e-15
1e-15
1e-15
1e-15
1e-15
1e-15
1e-15
1e-15
1e-15
1e-15
1e-15
1e-15
1e-15
1e-15
1e-15
1e-15
1e-15
1e-15
1e-15
1e-15
1e-15
1e-15
1e-15
1e-15
1e-15
1e-15
1.00000861797e-15
1.00008936844e-15
1.000183524e-15
1.00026086449e-15
1.00032535972e-15
1.00038233918e-15
1.00043110633e-15
1.00047645282e-15
1.00052511809e-15
1.00056965823e-15
1.00061239438e-15
1.00065828336e-15
1.00070185869e-15
1.0007414112e-15
1.00077704975e-15
1.00080628154e-15
1.00083455127e-15
1.0008588237e-15
1.00087922321e-15
1.00089796315e-15
1.00091284176e-15
1.00092680174e-15
1.00093746681e-15
1.00094590539e-15
1.00095331856e-15
1.0009598562e-15
1.00096874135e-15
1.00097985797e-15
1.00102081335e-15
1.00634657007e-15
1.0068644466e-15
1.00633878126e-15
1.00731231381e-15
1.00633118679e-15
1.00742500452e-15
1.00632395487e-15
1.00096278342e-15
1.00038976666e-15
1e-15
1e-15
1e-15
1e-15
1e-15
1e-15
1e-15
1e-15
1e-15
1e-15
1e-15
1e-15
1e-15
1e-15
1e-15
1e-15
1e-15
1e-15
1e-15
1e-15
1e-15
1e-15
1e-15
1e-15
1e-15
1e-15
1e-15
1e-15
1e-15
1e-15
1e-15
1e-15
1e-15
1e-15
1e-15
1.00008694902e-15
1.00035047856e-15
1.00051925248e-15
1.00086289548e-15
1.00164968104e-15
1.002177901e-15
1.00215701878e-15
1.00217889684e-15
1.00215701878e-15
1.00217819041e-15
1.00215701878e-15
1.00216783227e-15
1.00215701878e-15
1.00216192645e-15
1.00206354876e-15
1.00169807617e-15
1.00131870211e-15
1.00072021655e-15
1.00007862895e-15
1e-15
1e-15
1e-15
1e-15
1e-15
1e-15
1e-15
1e-15
1e-15
1e-15
1e-15
1e-15
1e-15
1e-15
1e-15
1e-15
1e-15
1e-15
1e-15
1e-15
1e-15
1e-15
1e-15
1e-15
1e-15
1e-15
1e-15
1e-15
1e-15
1e-15
1e-15
1e-15
1e-15
1e-15
1e-15
1e-15
1e-15
1e-15
1e-15
1e-15
1e-15
1e-15
1e-15
1e-15
1e-15
1e-15
1e-15
1e-15
1e-15
1e-15
1.00001151607e-15
1.0001459566e-15
1.00026885025e-15
1.00036447837e-15
1.00045559502e-15
1.00053247858e-15
1.00061866e-15
1.00070072221e-15
1.00077504533e-15
1.0008494444e-15
1.00091756319e-15
1.00097847678e-15
1.00103290959e-15
1.00107785905e-15
1.00111997765e-15
1.00115570663e-15
1.00118573322e-15
1.00121313783e-15
1.00123493879e-15
1.00125446683e-15
1.00126980351e-15
1.0012819051e-15
1.00129299685e-15
1.00130293896e-15
1.00131144834e-15
1.00132400882e-15
1.00140205543e-15
1.00666307548e-15
1.00634657007e-15
1.00706048856e-15
1.00633878126e-15
1.00756170046e-15
1.00633118679e-15
1.00642296527e-15
1.00129603463e-15
1.00040518671e-15
1e-15
1e-15
1e-15
1e-15
1e-15
1e-15
1e-15
1e-15
1e-15
1e-15
1e-15
1e-15
1e-15
1e-15
1e-15
1e-15
1e-15
1e-15
1e-15
1e-15
1e-15
1e-15
1e-15
1e-15
1e-15
1e-15
1e-15
1e-15
1e-15
1e-15
1e-15
1e-15
1e-15
1e-15
1e-15
1.00015037682e-15
1.00033129891e-15
1.0005713804e-15
1.00118226157e-15
1.00214850895e-15
1.00215701878e-15
1.00217125717e-15
1.00215701878e-15
1.00216609086e-15
1.00215701878e-15
1.00215941483e-15
1.0020199552e-15
1.00180299381e-15
1.00162866232e-15
1.00140188816e-15
1.00072984426e-15
1.00020562244e-15
1.00000003984e-15
1e-15
1e-15
1e-15
1e-15
1e-15
1e-15
1e-15
1e-15
1e-15
1e-15
1e-15
1e-15
1e-15
1e-15
1e-15
1e-15
1e-15
1e-15
1e-15
1e-15
1e-15
1e-15
1e-15
1e-15
1e-15
1e-15
1e-15
1e-15
1e-15
1e-15
1e-15
1e-15
1e-15
1e-15
1e-15
1e-15
1e-15
1e-15
1e-15
1e-15
1e-15
1e-15
1e-15
1e-15
1e-15
1e-15
1e-15
1e-15
1e-15
1e-15
1e-15
1e-15
1e-15
1.00001490334e-15
1.00025144735e-15
1.00048257705e-15
1.00069062573e-15
1.00084281702e-15
1.00092617277e-15
1.00103265643e-15
1.00113194454e-15
1.00121376839e-15
1.00128719421e-15
1.00135156867e-15
1.00140643992e-15
1.00145475744e-15
1.00149553481e-15
1.00153019272e-15
1.00156062272e-15
1.00158548196e-15
1.0016066437e-15
1.001623527e-15
1.00163720175e-15
1.00164924656e-15
1.00165860293e-15
1.00166588297e-15
1.00168055908e-15
1.001787231e-15
1.00635424505e-15
1.00686219608e-15
1.00634657007e-15
1.00729657167e-15
1.0063387824e-15
1.00740823505e-15
1.00633118679e-15
1.00165855604e-15
1.00049636604e-15
1e-15
1e-15
1e-15
1e-15
1e-15
1e-15
1e-15
1e-15
1e-15
1e-15
1e-15
1e-15
1e-15
1e-15
1e-15
1e-15
1e-15
1e-15
1e-15
1e-15
1e-15
1e-15
1e-15
1e-15
1e-15
1e-15
1e-15
1e-15
1e-15
1e-15
1e-15
1e-15
1e-15
1e-15
1e-15
1.00011488128e-15
1.0003592761e-15
1.00073154245e-15
1.00155445615e-15
1.00215701878e-15
1.00216257913e-15
1.00215701878e-15
1.00211565258e-15
1.00193252402e-15
1.00172411568e-15
1.00156885605e-15
1.00136149645e-15
1.00104083213e-15
1.00077763749e-15
1.00042298368e-15
1.00000323095e-15
1.00000004729e-15
1.00000003721e-15
1e-15
1e-15
1e-15
1e-15
1e-15
1e-15
1e-15
1e-15
1e-15
1e-15
1e-15
1e-15
1e-15
1e-15
1e-15
1e-15
1e-15
1e-15
1e-15
1e-15
1e-15
1e-15
1e-15
1e-15
1e-15
1e-15
1e-15
1e-15
1e-15
1e-15
1e-15
1e-15
1e-15
1e-15
1e-15
1e-15
1e-15
1e-15
1e-15
1e-15
1e-15
1e-15
1e-15
1e-15
1e-15
1e-15
1e-15
1e-15
1e-15
1e-15
1e-15
1e-15
1e-15
1e-15
1e-15
1.0002632437e-15
1.00063375343e-15
1.00092222951e-15
1.00114822858e-15
1.00130165454e-15
1.00136889889e-15
1.00146368077e-15
1.00153729336e-15
1.00160160241e-15
1.00165893938e-15
1.00170670694e-15
1.00174706378e-15
1.00178165611e-15
1.00181101484e-15
1.00183541494e-15
1.00185532379e-15
1.00187159786e-15
1.00188432854e-15
1.00189387524e-15
1.00190059696e-15
1.00190817813e-15
1.00191972739e-15
1.00204194641e-15
1.00666636731e-15
1.00635424505e-15
1.00705937327e-15
1.00634657007e-15
1.0075598071e-15
1.0063387824e-15
1.00641546498e-15
1.00191262473e-15
1.00066275746e-15
1e-15
1e-15
1e-15
1e-15
1e-15
1e-15
1e-15
1e-15
1e-15
1e-15
1e-15
1e-15
1e-15
1e-15
1e-15
1e-15
1e-15
1e-15
1e-15
1e-15
1e-15
1e-15
1e-15
1e-15
1e-15
1e-15
1e-15
1e-15
1e-15
1e-15
1e-15
1e-15
1e-15
1e-15
1e-15
1.0001557244e-15
1.00056245002e-15
1.00118981601e-15
1.00189417496e-15
1.00206678798e-15
1.00189556618e-15
1.00169768023e-15
1.00149849836e-15
1.00116423796e-15
1.00076514123e-15
1.00048924154e-15
1.00028791252e-15
1.00005977532e-15
1.00000703775e-15
1.00000286679e-15
1.00000293673e-15
1.00000657062e-15
1.00000876638e-15
1.00001138406e-15
1.00000810185e-15
1.00001344454e-15
1.00001890628e-15
1.00001380447e-15
1.00001657479e-15
1.000013343e-15
1.00001294816e-15
1.00000879456e-15
1.00000597706e-15
1.00000346356e-15
1.00000095427e-15
1e-15
1e-15
1e-15
1e-15
1e-15
1e-15
1e-15
1e-15
1e-15
1e-15
1e-15
1e-15
1e-15
1e-15
1e-15
1e-15
1e-15
1e-15
1e-15
1e-15
1e-15
1e-15
1e-15
1e-15
1e-15
1e-15
1e-15
1e-15
1e-15
1e-15
1e-15
1e-15
1e-15
1e-15
1e-15
1e-15
1e-15
1e-15
1e-15
1e-15
1e-15
1e-15
1e-15
1e-15
1.00001441745e-15
1.00067679153e-15
1.00106414786e-15
1.00129896864e-15
1.0015144371e-15
1.00160455506e-15
1.00169149449e-15
1.00176504528e-15
1.00182471595e-15
1.00187444559e-15
1.00191627976e-15
1.00195160646e-15
1.00198098602e-15
1.0020054189e-15
1.00202512111e-15
1.00204056329e-15
1.00205191003e-15
1.00206027976e-15
1.00206603999e-15
1.00207313255e-15
1.00207827682e-15
1.00221650395e-15
1.00636179763e-15
1.00686332116e-15
1.00635424505e-15
1.00729726019e-15
1.0063465772e-15
1.00740126618e-15
1.0063387824e-15
1.00207848922e-15
1.00074034982e-15
1e-15
1e-15
1e-15
1e-15
1e-15
1e-15
1e-15
1e-15
1e-15
1e-15
1e-15
1e-15
1e-15
1e-15
1e-15
1e-15
1e-15
1e-15
1e-15
1e-15
1e-15
1e-15
1e-15
1e-15
1e-15
1e-15
1e-15
1e-15
1e-15
1e-15
1e-15
1e-15
1e-15
1e-15
1e-15
1.00017082748e-15
1.00052529606e-15
1.00107808707e-15
1.00152198438e-15
1.00145090649e-15
1.00099626286e-15
1.00044513107e-15
1.00005635393e-15
1e-15
1e-15
1e-15
1e-15
1e-15
1.00000248567e-15
1.000008265e-15
1.00001712028e-15
1.00004033762e-15
1.00007931142e-15
1.00013553277e-15
1.00017304279e-15
1.00019955023e-15
1.00019857859e-15
1.0001593373e-15
1.00013803392e-15
1.00010443846e-15
1.00006824333e-15
1.00002966576e-15
1.00001208146e-15
1.00000613273e-15
1.00000235286e-15
1.00000046753e-15
1e-15
1e-15
1e-15
1e-15
1e-15
1e-15
1e-15
1e-15
1e-15
1e-15
1e-15
1e-15
1e-15
1e-15
1e-15
1e-15
1e-15
1e-15
1e-15
1e-15
1e-15
1e-15
1e-15
1e-15
1e-15
1e-15
1e-15
1e-15
1e-15
1e-15
1e-15
1e-15
1e-15
1e-15
1e-15
1e-15
1e-15
1e-15
1e-15
1e-15
1e-15
1e-15
1e-15
1e-15
1e-15
1.00049073204e-15
1.00105150207e-15
1.00142532089e-15
1.00166620852e-15
1.00181965938e-15
1.0018853161e-15
1.00196386138e-15
1.00202207781e-15
1.00206869448e-15
1.00210802139e-15
1.00214056631e-15
1.00216696352e-15
1.00218786113e-15
1.00220358719e-15
1.00221505105e-15
1.00222334139e-15
1.00222922297e-15
1.00223451215e-15
1.00223321014e-15
1.00238522284e-15
1.00668371236e-15
1.00636179889e-15
1.0070613759e-15
1.00635424505e-15
1.00755496615e-15
1.0063465772e-15
1.00641200296e-15
1.00223103353e-15
1.00074005202e-15
1e-15
1e-15
1e-15
1e-15
1e-15
1e-15
1e-15
1e-15
1e-15
1e-15
1e-15
1e-15
1e-15
1e-15
1e-15
1e-15
1e-15
1e-15
1e-15
1e-15
1e-15
1e-15
1e-15
1e-15
1e-15
1e-15
1e-15
1e-15
1e-15
1e-15
1e-15
1e-15
1e-15
1e-15
1e-15
1e-15
1e-15
1e-15
1.0000693975e-15
1e-15
1e-15
1e-15
1e-15
1e-15
1e-15
1e-15
1e-15
1.000003447e-15
1.00002968111e-15
1.00012728317e-15
1.00022107993e-15
1.00027560343e-15
1.00033829616e-15
1.00039902455e-15
1.00042951224e-15
1.00044297359e-15
1.00041013472e-15
1.00033330376e-15
1.00028013248e-15
1.00021265962e-15
1.00014947156e-15
1.00008546179e-15
1.00002760985e-15
1.00000753917e-15
1.00000350595e-15
1.00000085773e-15
1e-15
1e-15
1e-15
1e-15
1e-15
1e-15
1e-15
1e-15
1e-15
1e-15
1e-15
1e-15
1e-15
1e-15
1e-15
1e-15
1e-15
1e-15
1e-15
1e-15
1e-15
1e-15
1e-15
1e-15
1e-15
1e-15
1e-15
1e-15
1e-15
1e-15
1e-15
1e-15
1e-15
1e-15
1e-15
1e-15
1e-15
1e-15
1e-15
1e-15
1e-15
1e-15
1e-15
1e-15
1e-15
1e-15
1.00008363626e-15
1.0009536228e-15
1.00147489356e-15
1.00178480841e-15
1.00204374019e-15
1.002113236e-15
1.00218365987e-15
1.00225117378e-15
1.00229694955e-15
1.00233477134e-15
1.00236456877e-15
1.00238790762e-15
1.00240530157e-15
1.00241804455e-15
1.00242702097e-15
1.00243309013e-15
1.00243527192e-15
1.00242918281e-15
1.00259528039e-15
1.00636894593e-15
1.00687945334e-15
1.00636179889e-15
1.00730046579e-15
1.0063542528e-15
1.0074090507e-15
1.0063465772e-15
1.00241888928e-15
1.00073229464e-15
1e-15
1e-15
1e-15
1e-15
1e-15
1e-15
1e-15
1e-15
1e-15
1e-15
1e-15
1e-15
1e-15
1e-15
1e-15
1e-15
1e-15
1e-15
1e-15
1e-15
1e-15
1e-15
1e-15
1e-15
1e-15
1e-15
1e-15
1e-15
1e-15
1e-15
1e-15
1e-15
1e-15
1e-15
1e-15
1e-15
1e-15
1e-15
1e-15
1e-15
1e-15
1e-15
1e-15
1e-15
1e-15
1e-15
1.00000180443e-15
1.00004893771e-15
1.00024982073e-15
1.00038691111e-15
1.00049545062e-15
1.00055612271e-15
1.00061011041e-15
1.00063829079e-15
1.00064573727e-15
1.00061525382e-15
1.00054892569e-15
1.00044691486e-15
1.00037296281e-15
1.00028397397e-15
1.00019818358e-15
1.00011770428e-15
1.00005036597e-15
1.00000793888e-15
1.00000371541e-15
1.00000048455e-15
1e-15
1e-15
1e-15
1e-15
1e-15
1e-15
1e-15
1e-15
1e-15
1e-15
1e-15
1e-15
1e-15
1e-15
1e-15
1e-15
1e-15
1e-15
1e-15
1e-15
1e-15
1e-15
1e-15
1e-15
1e-15
1e-15
1e-15
1e-15
1e-15
1e-15
1e-15
1e-15
1e-15
1e-15
1e-15
1e-15
1e-15
1e-15
1e-15
1e-15
1e-15
1e-15
1e-15
1e-15
1e-15
1e-15
1e-15
1.00001331405e-15
1.00090305478e-15
1.00146831002e-15
1.00192492634e-15
1.0022300531e-15
1.00244014634e-15
1.00245827811e-15
1.00252506929e-15
1.00257001003e-15
1.0026042251e-15
1.00263009781e-15
1.00264960956e-15
1.00266323631e-15
1.0026723774e-15
1.00267735885e-15
1.00267601528e-15
1.00266695026e-15
1.00283849685e-15
1.00669287575e-15
1.00636894729e-15
1.00707801408e-15
1.00636179889e-15
1.0075582426e-15
1.0063542528e-15
1.00641278663e-15
1.00265017764e-15
1.0007282561e-15
1e-15
1e-15
1e-15
1e-15
1e-15
1e-15
1e-15
1e-15
1e-15
1e-15
1e-15
1e-15
1e-15
1e-15
1e-15
1e-15
1e-15
1e-15
1e-15
1e-15
1e-15
1e-15
1e-15
1e-15
1e-15
1e-15
1e-15
1e-15
1e-15
1e-15
1e-15
1e-15
1e-15
1e-15
1e-15
1e-15
1e-15
1e-15
1e-15
1e-15
1e-15
1e-15
1e-15
1e-15
1e-15
1.00000513645e-15
1.00010089802e-15
1.00033675405e-15
1.00053279593e-15
1.0006640606e-15
1.00075669553e-15
1.00080665077e-15
1.00083401767e-15
1.00082772331e-15
1.00079981344e-15
1.00073226333e-15
1.00063394081e-15
1.00051049796e-15
1.00042292489e-15
1.00031842675e-15
1.0002156613e-15
1.000120884e-15
1.00004987416e-15
1.00000714174e-15
1.00000281246e-15
1e-15
1e-15
1e-15
1e-15
1e-15
1e-15
1e-15
1e-15
1e-15
1e-15
1e-15
1e-15
1e-15
1e-15
1e-15
1e-15
1e-15
1e-15
1e-15
1e-15
1e-15
1e-15
1e-15
1e-15
1e-15
1e-15
1e-15
1e-15
1e-15
1e-15
1e-15
1e-15
1e-15
1e-15
1e-15
1e-15
1e-15
1e-15
1e-15
1e-15
1e-15
1e-15
1e-15
1e-15
1e-15
1e-15
1e-15
1e-15
1e-15
1.00001784429e-15
1.0009314484e-15
1.00148421639e-15
1.00200416677e-15
1.0023922263e-15
1.00268128399e-15
1.00275489962e-15
1.00280762229e-15
1.00285104453e-15
1.00287742089e-15
1.00289780598e-15
1.00291079685e-15
1.00291828621e-15
1.00292005745e-15
1.00291521022e-15
1.00290433636e-15
1.00307644543e-15
1.00637590381e-15
1.00688622163e-15
1.00636894729e-15
1.00731777027e-15
1.00636180921e-15
1.00741807301e-15
1.0063542528e-15
1.00288525967e-15
1.00073753291e-15
1e-15
1e-15
1e-15
1e-15
1e-15
1e-15
1e-15
1e-15
1e-15
1e-15
1e-15
1e-15
1e-15
1e-15
1e-15
1e-15
1e-15
1e-15
1e-15
1e-15
1e-15
1e-15
1e-15
1e-15
1e-15
1e-15
1e-15
1e-15
1e-15
1e-15
1e-15
1e-15
1e-15
1e-15
1e-15
1e-15
1e-15
1e-15
1e-15
1e-15
1e-15
1e-15
1e-15
1e-15
1.00002784443e-15
1.00022143682e-15
1.00044973751e-15
1.00067934136e-15
1.00082314436e-15
1.00092862613e-15
1.00098713171e-15
1.00100784933e-15
1.00100793795e-15
1.00096650061e-15
1.00090942993e-15
1.00081735582e-15
1.00068529723e-15
1.00053615088e-15
1.00043556167e-15
1.0003206997e-15
1.00021264479e-15
1.00011334014e-15
1.00004047845e-15
1.00000552865e-15
1.00000126601e-15
1e-15
1e-15
1e-15
1e-15
1e-15
1e-15
1e-15
1e-15
1e-15
1e-15
1e-15
1e-15
1e-15
1e-15
1e-15
1e-15
1e-15
1e-15
1e-15
1e-15
1e-15
1e-15
1e-15
1e-15
1e-15
1e-15
1e-15
1e-15
1e-15
1e-15
1e-15
1e-15
1e-15
1e-15
1e-15
1e-15
1e-15
1e-15
1e-15
1e-15
1.00000001751e-15
1.00000048646e-15
1.00000160896e-15
1.00000328012e-15
1.00000223467e-15
1.00000205102e-15
1e-15
1e-15
1e-15
1e-15
1.00010519686e-15
1.00094810419e-15
1.00155123258e-15
1.0020499208e-15
1.0025447698e-15
1.00286107045e-15
1.0030377567e-15
1.00305316741e-15
1.00309229433e-15
1.00311215285e-15
1.00312131151e-15
1.00312559022e-15
1.00312330833e-15
1.00311475491e-15
1.00310273424e-15
1.00326769017e-15
1.00670157328e-15
1.00637590771e-15
1.00708476155e-15
1.00636894729e-15
1.00756585127e-15
1.00636180921e-15
1.00641412526e-15
1.00307381552e-15
1.00078353639e-15
1e-15
1e-15
1e-15
1e-15
1e-15
1e-15
1e-15
1e-15
1e-15
1e-15
1e-15
1e-15
1e-15
1e-15
1e-15
1e-15
1e-15
1e-15
1e-15
1e-15
1e-15
1e-15
1e-15
1e-15
1e-15
1e-15
1e-15
1e-15
1e-15
1e-15
1e-15
1e-15
1e-15
1e-15
1e-15
1e-15
1e-15
1e-15
1e-15
1e-15
1e-15
1e-15
1.00000252321e-15
1.00013688428e-15
1.00036274073e-15
1.00061689926e-15
1.00082971245e-15
1.00098931455e-15
1.00108241165e-15
1.00113641292e-15
1.00116612178e-15
1.00115720668e-15
1.00112203606e-15
1.00105315238e-15
1.00097636562e-15
1.00087135062e-15
1.0007057209e-15
1.0005374026e-15
1.00043148431e-15
1.00031033066e-15
1.00019600539e-15
1.00009287912e-15
1.00002370777e-15
1.00000413795e-15
1.00000013214e-15
1e-15
1e-15
1e-15
1e-15
1e-15
1e-15
1e-15
1e-15
1e-15
1e-15
1e-15
1e-15
1e-15
1e-15
1e-15
1e-15
1e-15
1e-15
1e-15
1e-15
1e-15
1e-15
1e-15
1e-15
1e-15
1e-15
1e-15
1e-15
1e-15
1e-15
1e-15
1e-15
1e-15
1e-15
1e-15
1e-15
1e-15
1e-15
1e-15
1e-15
1e-15
1.00000054514e-15
1.00000258625e-15
1.00000493857e-15
1.0000076934e-15
1.00001035518e-15
1.00001229285e-15
1.00000712164e-15
1.00001043572e-15
1.00001580757e-15
1.00003408647e-15
1.00037583202e-15
1.00098935703e-15
1.00160338967e-15
1.00216406158e-15
1.00265753556e-15
1.00298816417e-15
1.0032351173e-15
1.00325087341e-15
1.00328017829e-15
1.00329621542e-15
1.00329799079e-15
1.00329268288e-15
1.00328135296e-15
1.00326514347e-15
1.00342281569e-15
1.00638267856e-15
1.00689357574e-15
1.00637590771e-15
1.00732494003e-15
1.00636895244e-15
1.00743919778e-15
1.00636180921e-15
1.00321265724e-15
1.00083093621e-15
1e-15
1e-15
1e-15
1e-15
1e-15
1e-15
1e-15
1e-15
1e-15
1e-15
1e-15
1e-15
1e-15
1e-15
1e-15
1e-15
1e-15
1e-15
1e-15
1e-15
1e-15
1e-15
1e-15
1e-15
1e-15
1e-15
1e-15
1e-15
1e-15
1e-15
1e-15
1e-15
1e-15
1e-15
1e-15
1e-15
1e-15
1e-15
1e-15
1e-15
1e-15
1.00000765917e-15
1.0002366976e-15
1.0005232641e-15
1.00078299319e-15
1.00098923759e-15
1.00113288728e-15
1.00122071898e-15
1.00129137713e-15
1.0013245852e-15
1.00129908028e-15
1.00126843845e-15
1.00121393579e-15
1.0011138258e-15
1.00101197624e-15
1.00089585899e-15
1.00070411757e-15
1.00052611643e-15
1.00041112735e-15
1.0002824084e-15
1.00016638151e-15
1.00006562161e-15
1.00001018387e-15
1.0000027398e-15
1e-15
1e-15
1e-15
1e-15
1e-15
1e-15
1e-15
1e-15
1e-15
1e-15
1e-15
1e-15
1e-15
1e-15
1e-15
1e-15
1e-15
1e-15
1e-15
1e-15
1e-15
1e-15
1e-15
1e-15
1e-15
1e-15
1e-15
1e-15
1e-15
1e-15
1e-15
1e-15
1e-15
1e-15
1e-15
1e-15
1e-15
1e-15
1e-15
1e-15
1e-15
1e-15
1e-15
1.00000101296e-15
1.00000401248e-15
1.00000739235e-15
1.00001283834e-15
1.00001652562e-15
1.00002049504e-15
1.00002070547e-15
1.00003888415e-15
1.00009864505e-15
1.00022569869e-15
1.000571347e-15
1.00101832103e-15
1.00168199168e-15
1.00230963917e-15
1.00275809296e-15
1.00313982695e-15
1.0034267233e-15
1.00345879263e-15
1.00346719302e-15
1.00347059071e-15
1.00346135933e-15
1.00344894821e-15
1.00341965877e-15
1.00356687055e-15
1.00669215459e-15
1.00638267907e-15