/*--------------------------------*- C++ -*----------------------------------*\
| =========                 |                                                 |
| \\      /  F ield         | OpenFOAM: The Open Source CFD Toolbox           |
|  \\    /   O peration     | Version:  2312                                  |
|   \\  /    A nd           | Website:  www.openfoam.com                      |
|    \\/     M anipulation  |                                                 |
\*---------------------------------------------------------------------------*/
FoamFile
{
    version     2.0;
    format      ascii;
    arch        "LSB;label=32;scalar=64";
    class       volScalarField;
    location    "0.41/water";
    object      Tf.gasAndLiquid;
}
// * * * * * * * * * * * * * * * * * * * * * * * * * * * * * * * * * * * * * //

dimensions      [0 0 0 1 0 0 0];

internalField   nonuniform List<scalar> 
1497
(
300.423943711
300.352023365
300.286312435
300.221876131
300.159211535
300.103531679
300.060633238
300.032355362
300.015561716
300.006291089
300.002080316
300.000634821
300.000177512
325.947284647
310.266497731
303.714823314
301.558588739
300.867443819
300.617174801
300.494243871
300.410494656
300.340439602
300.274564475
300.21017622
300.149470922
300.09743583
300.058897475
300.033957694
300.018463037
300.008843302
300.003626976
300.001347865
300.000446812
320.558051331
308.880862293
303.527802914
301.537234724
300.852380805
300.601299965
300.480988796
300.39977036
300.330621392
300.265030333
300.201959103
300.143788603
300.095154464
300.060115063
300.037542836
300.0229185
300.012942267
300.006204924
300.002631218
300.000972943
317.711196896
307.850622741
303.329172775
301.521669502
300.8568775
300.60261026
300.479798001
300.397480658
300.327714367
300.262289997
300.200371276
300.144008996
300.097451084
300.06458832
300.043825833
300.02968438
300.018502846
300.009902069
300.004624883
300.001844545
316.911289018
307.71022111
303.519284793
301.728819672
300.987832036
300.670829633
300.513761769
300.415263947
300.338128875
300.26986795
300.207272532
300.151334804
300.106275283
300.07508588
300.054155162
300.038284025
300.025015586
300.01447367
300.007247206
300.003044196
318.585752683
309.326597395
304.783423199
302.507924156
301.406306722
300.881650238
300.618276154
300.468746797
300.368358936
300.290305032
300.224247468
300.168680612
300.125007429
300.092360291
300.06736595
300.047649366
300.031852152
300.01925345
300.010020991
300.004348758
325.504415363
312.940837175
306.536456932
303.348910393
301.838568108
301.112442123
300.744033435
300.53950358
300.411470255
300.320694981
300.250273532
300.193902607
300.14815721
300.110399691
300.079717975
300.056142411
300.037774875
300.023147961
300.012265416
300.005419878
339.215687547
315.805938966
307.276740234
303.605229398
301.952789946
301.183461479
300.793629996
300.576152625
300.439487116
300.34341399
300.270500326
300.211793966
300.162854624
300.121543693
300.087631748
300.06168283
300.041513701
300.025477421
300.013554019
300.006038752
347.869974964
317.327862454
307.240309656
303.348997555
301.77150898
301.082074426
300.744929493
300.556445043
300.433781615
300.344485727
300.274275121
300.216209108
300.166871857
300.124945373
300.09063537
300.064080445
300.043070464
300.026285028
300.013904723
300.006221532
351.867207168
316.840207322
306.202300469
302.644811301
301.39672892
300.890771283
300.648901636
300.508088285
300.409165683
300.330812332
300.26615553
300.211036486
300.163626387
300.123244297
300.090409967
300.064379468
300.04312357
300.026030767
300.013621316
300.006145692
350.477367004
313.638858571
304.433038752
301.855531293
301.036193787
300.719773902
300.562862037
300.461607669
300.382321093
300.313345618
300.253625875
300.202160542
300.157699525
300.119851209
300.089081843
300.063808691
300.042469857
300.025261752
300.013077307
300.006037958
344.80683243
311.073969901
303.285680183
301.376803546
300.821235545
300.615824799
300.507165188
300.428037308
300.35992179
300.297692305
300.241839133
300.193861236
300.152840756
300.117300646
300.088132333
300.063270073
300.041724989
300.024425371
300.012624922
300.006111943
340.520310953
310.259810022
302.835603853
301.157032496
300.716779958
300.563456663
300.476131173
300.405935292
300.343729449
300.285743919
300.233008038
300.188089942
300.150245404
300.116928976
300.088221829
300.063254147
300.041281773
300.023892452
300.012598361
300.00653208
335.884068729
310.439383591
302.895672653
301.109641083
300.677564898
300.539548345
300.45916315
300.392510591
300.332937192
300.277715615
300.227801049
300.185522743
300.150022801
300.118411691
300.089540442
300.064033001
300.041466531
300.024096244
300.013286391
300.007397073
328.327692544
310.096397974
303.193891977
301.202748711
300.682503693
300.531974254
300.451329302
300.385339903
300.326744866
300.273491361
300.226040749
300.185808702
300.151748746
300.121156456
300.092276503
300.065904712
300.042797846
300.025547292
300.014885045
300.0087612
322.308611307
309.101272211
303.293090136
301.290200824
300.705811206
300.534425952
300.450737861
300.384083696
300.325203897
300.273101877
300.227496478
300.188640248
300.155336596
300.12515473
300.096433854
300.069496082
300.046068089
300.028664123
300.01750945
300.010676993
318.786197788
307.944980509
303.120002578
301.297277485
300.719323835
300.541930121
300.456520981
300.388978708
300.329354954
300.277234042
300.232461445
300.194331854
300.161372763
300.131359838
300.102718919
300.075570561
300.051729724
300.033504113
300.02113941
300.013166428
317.221478852
307.328727811
303.010133498
301.325514393
300.757964297
300.565855928
300.472398817
300.401204781
300.339816043
300.286884207
300.2418576
300.203738756
300.170818282
300.140789874
300.112072076
300.084509711
300.059707742
300.039907628
300.025713463
300.016235323
317.461427294
307.899629556
303.474018242
301.639674957
300.944190384
300.659771266
300.517724082
300.427369404
300.35886695
300.302954521
300.256527785
300.217628465
300.184106595
300.153623329
300.124468006
300.096084192
300.06973135
300.047741545
300.031230679
300.019910126
321.222987454
310.280204705
304.893749576
302.459535501
301.402193289
300.900415069
300.637148547
300.487478086
300.394010557
300.328290707
300.277560678
300.236261723
300.201051405
300.169344336
300.139202801
300.109613897
300.08134018
300.056803865
300.037665589
300.024194698
331.092679112
313.237759712
306.320803976
303.301572079
301.89140168
301.179653091
300.792442897
300.573858862
300.44557026
300.363551565
300.304914954
300.259007891
300.220679841
300.186740212
300.154948566
300.123941255
300.093755323
300.066677935
300.044860684
300.029056959
342.192059104
315.894912969
307.115215418
303.572408772
302.006601534
301.253366914
300.856016877
300.629674576
300.491309731
300.400068281
300.334214736
300.28298467
300.240775654
300.204005514
300.170199939
300.137631068
300.105688664
300.076409681
300.052160897
300.034122408
348.307763862
316.522399906
306.681737446
303.17955071
301.784757813
301.154421986
300.830007409
300.640375456
300.515880203
300.426488252
300.358210182
300.303686116
300.258410243
300.219111088
300.183337479
300.149201779
300.115732753
300.084784103
300.058591036
300.038751492
349.945707447
314.308314967
305.191122921
302.447348612
301.453001985
301.012657604
300.77751099
300.629661014
300.523763109
300.441256937
300.374365247
300.318967369
300.272023271
300.230922472
300.193479346
300.157809321
300.122985028
300.090849006
300.063250875
300.042385036
346.926194362
312.320687858
304.044972837
301.8909518
301.193157971
300.89333092
300.72542038
300.610750009
300.521256349
300.446688262
300.383166046
300.328598821
300.281123703
300.238854819
300.199960695
300.162656872
300.126734382
300.093701162
300.065411126
300.04476195
343.582852042
311.482628912
303.525303574
301.601989865
301.040897463
300.815295576
300.686300115
300.592145358
300.513958845
300.445900835
300.385932373
300.332831629
300.285384792
300.242214124
300.201756456
300.162993307
300.126220069
300.09272433
300.065290237
300.045608038
338.443533467
310.89621166
303.386661124
301.505944095
300.971671295
300.771591745
300.659952482
300.576468191
300.505086606
300.441477567
300.384130431
300.332064739
300.284377275
300.240134716
300.198490279
300.158668413
300.121393829
300.088963059
300.063518388
300.044661771
329.146543438
309.750989471
303.29904929
301.476651329
300.939548379
300.745581341
300.641151521
300.563063667
300.495508004
300.434376644
300.3781982
300.326306651
300.27830948
300.233679837
300.191406863
300.150946911
300.114803922
300.084606466
300.060316423
300.04227238
321.912582267
308.522718169
303.198369445
301.454441194
300.915483357
300.726052725
300.62674743
300.55168872
300.48579694
300.42553111
300.36978785
300.318198522
300.270449406
300.226060763
300.184039509
300.144223195
300.109670793
300.080324659
300.056500541
300.039055437
318.028307647
307.547172285
303.063160355
301.425937746
300.897032631
300.714782564
300.619076539
300.545130561
300.47965711
300.419784766
300.364347716
300.313217103
300.266112784
300.222573501
300.181272237
300.141095254
300.106418492
300.076590118
300.052392678
300.03574617
317.165691971
307.804274613
303.417673499
301.608627192
300.971118109
300.744271068
300.631453943
300.55145962
300.483697824
300.423189888
300.367718014
300.31658817
300.269059628
300.224656164
300.182496491
300.140971516
300.104528297
300.073017929
300.048531449
300.034047345
320.930277745
310.740069256
305.155211428
302.478684681
301.367535433
300.910489734
300.698751658
300.581444973
300.502699724
300.4388078
300.381719338
300.328381539
300.278090802
300.230530771
300.185549837
300.142135608
300.10321038
300.070204184
300.046882633
300.034948242
335.417888328
315.422802642
307.277015736
303.624594554
301.985073463
301.223057256
300.848981703
300.652382326
300.538927993
300.463954979
300.402092576
300.344183249
300.289024974
300.237373271
300.189053992
300.143693981
300.103238661
300.07004844
300.048570163
300.038264394
352.179592113
319.003567259
308.555749032
304.293167145
302.383607492
301.468170376
301.000246753
300.743128832
300.591163723
300.494595029
300.423005607
300.359125623
300.298953028
300.243733963
300.192917844
300.146235143
300.105364768
300.07318987
300.053375929
300.04365934
360.06125691
320.587305276
308.92945617
304.441188312
302.49006278
301.562196176
301.0820008
300.807864699
300.636391003
300.523330089
300.440702469
300.370469412
300.306388495
300.248981325
300.197259385
300.150344542
300.11010211
300.079460435
300.060591866
300.050925465
363.110198384
320.992440779
308.789919818
304.297292396
302.42185977
301.548311682
301.096116233
300.831661971
300.659037577
300.540608397
300.451813856
300.377208437
300.311004486
300.253152211
300.202065044
300.156271997
300.117499324
300.088672412
300.070151214
300.059908504
364.776480811
320.746543892
308.27796511
303.948645703
302.246076226
301.472386113
301.069755554
300.827737387
300.663862294
300.546884965
300.456649797
300.380360627
300.313835815
300.256922983
300.207521542
300.163893854
300.127543264
300.100483915
300.08219291
300.070658547
365.531246808
320.001076949
307.408117543
303.407702731
301.979916747
301.353244929
301.018460015
300.807739787
300.658867176
300.54744184
300.458039258
300.381796342
300.316326786
300.261279515
300.214142478
300.173206139
300.139946313
300.11454848
300.096677582
300.083369174
300.000043743
300.000008569
300.000000744
300.000000369
300.000000415
300.000000513
300.000000571
300.000000597
300.000000605
300.000000594
300.000001196
300.000002646
300.000006167
300.000013368
300.000023466
300.000033892
300.000040722
300.000043743
300.000044203
300.000042007
300.000134923
300.0000373
300.00000844
300.00000112
300.000000613
300.000000608
300.000000573
300.000000528
300.000000476
300.000000429
300.000000452
300.000001291
300.000004286
300.000011182
300.000021898
300.000033264
300.000039366
300.000041916
300.00004244
300.000040398
300.000326441
300.000104298
300.000031218
300.000008386
300.000001883
300.0000006
300.000000476
300.000000355
300.000000256
300.000000179
300.000000071
300.000000281
300.000002322
300.000008583
300.000020486
300.000032274
300.000037892
300.000040184
300.000040675
300.000039018
300.000656997
300.000224548
300.000076126
300.000025972
300.000009131
300.000003004
300.000000435
300.000000184
300.000000014
300
300
300.000000056
300.000001827
300.000008525
300.000021443
300.000031842
300.000036522
300.000038514
300.000038965
300.000037585
300.001125869
300.000399004
300.000144886
300.000056237
300.000024137
300.000010833
300.000003136
300.000000142
300
300
300
300
300.000001277
300.000008191
300.000023177
300.000031715
300.000035391
300.000037008
300.000037415
300.000036213
300.001649736
300.000602169
300.000231138
300.000098584
300.000047448
300.000024175
300.000009637
300.000000558
300
300
300
300
300.000000853
300.000007843
300.000023795
300.000031078
300.000034295
300.000035725
300.000036135
300.000035096
300.002096576
300.000793155
300.000324978
300.000151148
300.000078724
300.000042459
300.000018994
300.000003003
300
300
300
300
300.00000086
300.000009259
300.000024044
300.000030569
300.000033632
300.000035019
300.000035474
300.000034562
300.002387741
300.000951122
300.000422523
300.000213147
300.000117168
300.000064615
300.000030241
300.000006918
300
300
300
300
300.000001267
300.000013438
300.000025789
300.000031384
300.000034186
300.000035492
300.000035943
300.000035027
300.002541584
300.001088793
300.000529087
300.000285504
300.000161969
300.000089652
300.000043024
300.00001222
300.00000032
300
300
300
300.000001434
300.000018072
300.000028765
300.000033846
300.000036463
300.000037667
300.000038056
300.000037039
300.002644158
300.001239604
300.000654352
300.000370271
300.000213081
300.000117744
300.000057983
300.000020457
300.000005109
300
300
300
300.000001133
300.000022266
300.00003299
300.000038262
300.000040907
300.000042039
300.000042342
300.000041141
300.002798356
300.001438937
300.000808541
300.000471307
300.000272933
300.00015155
300.000077385
300.000035292
300.000014923
300.000003749
300
300
300.000003025
300.000027425
300.000039253
300.00004531
300.000048099
300.000049177
300.000049381
300.000047919
300.003090368
300.001714992
300.001004633
300.000596758
300.000348506
300.000197183
300.000107881
300.00005926
300.00003094
300.000012937
300.000000119
300
300.000008843
300.000035499
300.000049409
300.000056094
300.000058913
300.000059887
300.000059938
300.0000581
300.003576654
300.002092351
300.001260956
300.000760813
300.000451948
300.000265414
300.000157329
300.000094177
300.000055415
300.000027367
300.000004342
300.000000128
300.000018801
300.000049026
300.000064658
300.000071621
300.000074341
300.000075128
300.00007492
300.000072552
300.004294352
300.00260063
300.001600706
300.000983582
300.000600501
300.000368878
300.000229716
300.000145654
300.000091893
300.000048172
300.000012544
300.000002662
300.000034649
300.00006929
300.000085905
300.000092888
300.000095379
300.000095845
300.000095225
300.000092081
300.005284132
300.00327666
300.002054026
300.001288536
300.000810866
300.000516598
300.000334809
300.000223606
300.000145045
300.000076665
300.000024822
300.000012003
300.000058928
300.000097209
300.000114371
300.000120905
300.000122714
300.000122519
300.000121224
300.00011678
300.006599585
300.004167959
300.002659004
300.001702024
300.001100167
300.000722666
300.00048716
300.000337887
300.000218738
300.000114709
300.000042833
300.000031287
300.000093534
300.000135237
300.000151587
300.000156316
300.000156438
300.000154875
300.000152372
300.000145875
300.00829042
300.005322173
300.003450346
300.002250662
300.001490944
300.001007281
300.000703164
300.000498457
300.000317371
300.000165578
300.000067378
300.000064716
300.000143067
300.000186275
300.000198788
300.000199211
300.000196048
300.000192318
300.000187701
300.000178858
300.010381773
300.006767124
300.00445744
300.002970502
300.002011442
300.001397625
300.001004856
300.000713216
300.000447191
300.000234357
300.000104196
300.000118059
300.000212667
300.000253757
300.000257299
300.000249287
300.00024022
300.000232863
300.000226245
300.000214005
300.012890715
300.0085347
300.005738439
300.003898571
300.002696456
300.001924122
300.001413714
300.000993209
300.000619302
300.000325617
300.000161955
300.000197701
300.00030959
300.000343488
300.000330263
300.000307214
300.000288321
300.000275495
300.000266104
300.000250337
300.01582732
300.010687996
300.007324168
300.005066386
300.0035785
300.002610939
300.001943263
300.001358344
300.000848281
300.000446549
300.000249359
300.000312053
300.000445426
300.000467517
300.000424791
300.000376326
300.000342346
300.000321514
300.000307601
300.000289562
300.019220394
300.013191025
300.00919841
300.00648218
300.004672815
300.003473931
300.002603262
300.001824237
300.001143998
300.000608644
300.000377761
300.00047405
300.000638373
300.000644215
300.000550102
300.000463845
300.000409361
300.000375766
300.000355013
300.000335193
300.022830098
300.015910747
300.011293856
300.008111791
300.005960277
300.004501763
300.003396947
300.002398829
300.001508343
300.000818236
300.00056167
300.000705138
300.000910457
300.000894635
300.000721831
300.000588821
300.000505149
300.000448514
300.000414457
300.000393642
300.026319174
300.018650411
300.013479487
300.009865653
300.007380317
300.005651581
300.004306864
300.003065954
300.001928367
300.001078491
300.000822961
300.001038986
300.001295131
300.001242088
300.000975419
300.000781631
300.000645645
300.000550421
300.000493448
300.000470051
300.029344908
300.021151237
300.015544193
300.011586943
300.008823521
300.00684717
300.005277692
300.00377621
300.002370795
300.001384703
300.001200759
300.00153628
300.001845788
300.001754647
300.00139064
300.001071238
300.000837292
300.000682206
300.000591459
300.000545845
300.031564996
300.023062885
300.017199843
300.013060001
300.010136684
300.007976574
300.006196785
300.004440328
300.0027631
300.001748868
300.001787231
300.002320576
300.002659879
300.002545609
300.002027279
300.001448643
300.001071553
300.000826969
300.000690307
300.000632859
300.032527236
300.024002211
300.018149277
300.0140697
300.011158616
300.008878781
300.006864441
300.004861551
300.003026389
300.002277745
300.002819629
300.003530998
300.003876851
300.003680006
300.00281932
300.001918648
300.001348361
300.000986296
300.000803459
300.000723751
300.032005409
300.023778686
300.018278968
300.014559038
300.01175604
300.009243644
300.006882848
300.004777889
300.00333719
300.003344528
300.004522105
300.005333562
300.005504073
300.004997676
300.003825217
300.002553809
300.001700528
300.001171182
300.000922578
300.000812572
300.030259859
300.02269792
300.018017711
300.014802166
300.011759421
300.008562643
300.005958571
300.004496513
300.004625758
300.005553818
300.007188828
300.00752084
300.007153846
300.006390674
300.004955254
300.003304972
300.002151658
300.00135669
300.001028584
300.000891205
300.028008309
300.021824291
300.018219254
300.015065755
300.010782693
300.007188607
300.005469715
300.005376662
300.007695019
300.009080087
300.009689583
300.00940978
300.008763372
300.007735429
300.00603692
300.00407791
300.002635102
300.001517982
300.001107426
300.000945549
300.026712928
300.022250751
300.019346107
300.015239235
300.010551622
300.007821332
300.006687843
300.007256565
300.010694948
300.011752344
300.011770094
300.011250918
300.01035511
300.009033991
300.007040472
300.004823142
300.002934791
300.001611855
300.001159289
300.000966883
300.027372394
300.024179589
300.02165272
300.017070838
300.01271913
300.010183177
300.009129514
300.009894728
300.013603968
300.014115679
300.013891698
300.013120566
300.011934019
300.010268672
300.007946877
300.00552765
300.002992925
300.001676925
300.001174773
300.000971152
300.029867377
300.027639456
300.025418297
300.020667075
300.016382306
300.013730862
300.01261104
300.013322205
300.016677029
300.016596937
300.016061285
300.014973318
300.013421484
300.011376694
300.008735457
300.005900712
300.003018561
300.001798681
300.001137343
300.000970582
300.03404004
300.03202167
300.029461999
300.025100981
300.020850628
300.018123111
300.0168284
300.017406622
300.01973046
300.019175499
300.018173013
300.016672257
300.014711844
300.012289222
300.009405901
300.005778448
300.003048527
300.001812731
300.001114294
300.00096288
300.039397921
300.036501709
300.033663923
300.029821347
300.025769562
300.022930279
300.02154144
300.021746892
300.022638508
300.021584247
300.020034854
300.018067914
300.015686622
300.01292357
300.009839405
300.005575459
300.003021659
300.001774721
300.001084038
300.000939562
300.045382752
300.041131134
300.037961542
300.034563347
300.030740557
300.027912517
300.026296585
300.025870831
300.025324355
300.023579184
300.02146934
300.019009939
300.016220213
300.013192613
300.009684
300.005357831
300.002904689
300.001689888
300.001028615
300.000896922
300.052283331
300.046337154
300.042439217
300.039200356
300.035666365
300.032727954
300.030731704
300.029295256
300.027613745
300.025049817
300.022354437
300.019373205
300.016212347
300.013061473
300.00888348
300.005001317
300.002688669
300.001558849
300.000953409
300.000834468
300.060549449
300.052511905
300.04734251
300.043711394
300.040325933
300.037136089
300.03443519
300.031956983
300.029288583
300.025978899
300.022621878
300.019091572
300.015643179
300.012179693
300.007963153
300.004485427
300.002398585
300.001395984
300.000864981
300.000759797
300.070540638
300.059876077
300.052896112
300.048282514
)
;

boundaryField
{
    emptyPatch
    {
        type            empty;
    }
    minY
    {
        type            calculated;
        value           nonuniform List<scalar> 0();
    }
    maxY
    {
        type            calculated;
        value           nonuniform List<scalar> 0();
    }
    water_to_cooler
    {
        type            calculated;
        value           nonuniform List<scalar> 
37
(
300.000007489
300.000007813
300.000007283
300.000006758
300.000006252
300.000005773
300.000005393
300.000005188
300.000005185
300.000005363
300.000005718
300.000006268
300.000007038
300.000008104
300.000009482
300.000011077
300.000012758
300.000014362
300.000015799
300.000017159
300.000018743
300.000020672
300.000023011
300.000025923
300.000029391
300.000033267
300.000037604
300.000042821
300.000046482
300.00004961
300.000057653
300.000057567
300.000067769
300.000073087
300.000028303
300.00002389
300.00002016
)
;
    }
    water_to_heater
    {
        type            calculated;
        value           nonuniform List<scalar> 
60
(
793.968636468
794.025749569
794.010545705
794.072479263
794.071789145
794.12993512
794.129104702
794.185502877
794.198772148
794.242532694
794.307027111
794.326305652
794.366951896
794.364696962
794.367478719
794.344925012
794.34149626
794.318444421
794.315617471
794.29743539
794.278843261
794.274490783
794.211820191
794.21471321
794.211349599
794.259797879
794.259527643
794.305557858
794.304469134
794.348761751
794.352219923
794.435168017
794.506304746
794.525188738
794.533784329
794.548141334
794.548622769
794.575393125
794.573178423
794.612253711
794.59578791
794.636928257
794.566954985
794.609602595
794.57895216
794.61858244
794.618850809
794.662652828
794.662219311
794.704160025
794.768831133
794.787816545
794.903380411
794.881014577
794.906773218
794.866000079
794.867354736
794.824740201
794.824173931
794.772838948
)
;
    }
    procBoundary1to0
    {
        type            processor;
        value           nonuniform List<scalar> 
41
(
364.983323819
318.751735073
306.364460925
302.80482868
301.681710292
301.216209288
300.956126049
300.78076536
300.649615177
300.545583971
300.458249022
300.383139312
300.319579039
300.266883204
300.222206051
300.184203071
300.154130947
300.130536541
300.113016058
300.097863843
300.044489728
300.040827881
300.037267144
300.034074734
300.030342738
300.026364456
300.022275645
300.018206866
300.014524912
300.01054374
300.007052589
300.003890747
300.002082014
300.001222576
300.000771721
300.000679248
300.082146534
300.068340589
300.059114575
300.044489728
300.052994258
)
;
    }
    procBoundary1to3
    {
        type            processor;
        value           nonuniform List<scalar> 
41
(
300.437169474
300.363436817
300.297119237
300.233635272
300.1704423
300.111882085
300.064668562
300.032561358
300.013988867
300.004818942
300.001274664
300.000294562
300.000062441
334.177461442
310.925144928
303.564387673
301.498929213
300.872679572
300.635311471
300.510712015
300.510712015
300.000010353
300.000001002
300.000000147
300.000000035
300.000000124
300.00000029
300.000000461
300.000000648
300.000001549
300.000001781
300.000002455
300.000004651
300.000008561
300.000015392
300.000024531
300.000034573
300.000042367
300.000045718
300.000046027
300.000043612
)
;
    }
}


// ************************************************************************* //
