/*--------------------------------*- C++ -*----------------------------------*\
| =========                 |                                                 |
| \\      /  F ield         | OpenFOAM: The Open Source CFD Toolbox           |
|  \\    /   O peration     | Version:  2312                                  |
|   \\  /    A nd           | Website:  www.openfoam.com                      |
|    \\/     M anipulation  |                                                 |
\*---------------------------------------------------------------------------*/
FoamFile
{
    version     2.0;
    format      ascii;
    arch        "LSB;label=32;scalar=64";
    class       volScalarField;
    location    "0.35/water";
    object      d.gas;
}
// * * * * * * * * * * * * * * * * * * * * * * * * * * * * * * * * * * * * * //

dimensions      [0 1 0 0 0 0 0];

internalField   nonuniform List<scalar> 
1496
(
0.00499636215802
0.00499636216886
0.00499636217404
0.00499636216069
0.00499636213576
0.0049963621101
0.00499636206284
0.00499636161967
0.00499634480335
0.00499626972489
0.00499617218806
0.0049961013928
0.00499606696911
0.00499605068085
0.00499603741476
0.00499602519099
0.00499601394109
0.00499599774036
0.00499595835544
0.00499588056464
0.0049963849818
0.00499638503968
0.00499638512528
0.00499638523668
0.00499638538031
0.00499638556757
0.00499638580287
0.00499638588944
0.0049963806488
0.00499633005263
0.00499623761129
0.00499615806359
0.00499611563183
0.00499609945424
0.00499609218495
0.00499608425169
0.00499607668516
0.00499606358636
0.00499603207628
0.00499596778593
0.00499640787539
0.00499640791153
0.00499640800122
0.00499640815774
0.00499640838827
0.00499640870458
0.00499640911331
0.00499640954722
0.00499640943893
0.0049963849653
0.00499630725112
0.00499622205987
0.00499616569987
0.0049961434511
0.00499613671952
0.00499613239719
0.00499612671889
0.00499611582444
0.00499609154795
0.00499604161033
0.00499642902476
0.00499642908813
0.00499642920992
0.00499642940494
0.00499642968484
0.00499643006696
0.00499643058094
0.00499643127007
0.00499643206659
0.00499642476596
0.00499637475381
0.00499629677862
0.00499622781786
0.00499619198631
0.0049961800273
0.00499617532675
0.00499617017102
0.00499616142234
0.00499614398496
0.00499610792634
0.0049964482975
0.00499644831794
0.00499644837563
0.00499644849104
0.00499644866937
0.00499644891237
0.0049964492241
0.00499644961079
0.00499645005
0.00499645034588
0.00499642928489
0.00499637392168
0.00499630776416
0.00499625559401
0.00499623210779
0.00499622266838
0.00499621554674
0.00499620766754
0.00499619494466
0.00499616988146
0.00499646568592
0.00499646572212
0.00499646578964
0.0049964659123
0.00499646610649
0.00499646638355
0.00499646676394
0.00499646727877
0.00499646795734
0.00499646966382
0.00499646675936
0.00499643506537
0.00499639054702
0.00499633809397
0.00499630017886
0.00499628181867
0.00499627047786
0.00499626116112
0.00499624984332
0.00499623174913
0.00499648168971
0.00499648169966
0.00499648172894
0.00499648181363
0.00499648197721
0.00499648222774
0.00499648257934
0.00499648305066
0.00499648366178
0.00499648440561
0.00499648697085
0.00499647551442
0.00499644831483
0.00499641414445
0.00499637709266
0.00499635002993
0.00499633382959
0.00499632177399
0.004996310101
0.00499629555887
0.00499649616089
0.00499649617756
0.00499649619575
0.00499649624681
0.00499649635951
0.00499649653893
0.0049964967928
0.00499649712896
0.00499649754045
0.00499649803609
0.00499649936549
0.00499650017177
0.00499648823601
0.00499646958311
0.0049964448326
0.00499641895544
0.00499639986799
0.00499638563849
0.00499637309762
0.0049963602424
0.00499650986271
0.0049965098606
0.0049965098552
0.00499650987687
0.00499650995918
0.00499651011322
0.00499651035604
0.00499651071098
0.00499651119973
0.004996511882
0.00499651275463
0.00499651591421
0.00499651321041
0.00499650527434
0.00499649333795
0.00499647659781
0.0049964612421
0.00499644774756
0.00499643564132
0.0049964244031
0.00499652274932
0.00499652275687
0.00499652275103
0.0049965227491
0.00499652277848
0.00499652284895
0.00499652297182
0.00499652315996
0.00499652342182
0.0049965237637
0.00499652421132
0.00499652613816
0.00499652682083
0.00499652555713
0.00499652194602
0.00499651656551
0.00499650955974
0.00499650157225
0.00499649340876
0.004996484995
0.00499653529254
0.00499653528259
0.00499653525139
0.00499653521146
0.00499653517976
0.00499653516575
0.00499653518206
0.00499653524891
0.00499653539508
0.00499653564811
0.00499653604606
0.00499653572386
0.00499653681639
0.00499653820363
0.00499653950493
0.00499654209592
0.00499654427364
0.0049965445654
0.00499654267745
0.00499653929923
0.00499654758011
0.00499654757523
0.00499654754262
0.00499654748995
0.00499654742068
0.00499654734006
0.00499654725913
0.00499654719974
0.00499654719543
0.0049965472673
0.00499654738779
0.00499654617427
0.00499654747019
0.00499654984842
0.00499655388124
0.00499656148409
0.00499657199447
0.00499658041216
0.00499658526601
0.00499658793508
0.00499656013521
0.00499656011593
0.00499656007208
0.00499656000585
0.00499655991037
0.00499655978576
0.0049965596424
0.00499655951212
0.0049965594563
0.00499655954551
0.00499655910349
0.00499655784176
0.00499655947079
0.00499656312956
0.00499657022323
0.00499658310563
0.00499660070643
0.0049966161593
0.00499662727067
0.00499663592463
0.00499657318514
0.00499657316019
0.00499657311511
0.00499657303882
0.00499657291432
0.00499657272364
0.00499657244868
0.00499657207771
0.00499657159198
0.00499657139554
0.00499657025554
0.00499657126697
0.00499657427166
0.00499657994394
0.00499659021329
0.00499660862407
0.0049966336033
0.00499665598718
0.00499667333067
0.00499668822263
0.00499658726339
0.00499658724324
0.00499658722782
0.00499658721144
0.00499658718783
0.0049965871494
0.00499658709586
0.0049965870711
0.00499658677799
0.00499658681466
0.00499658781812
0.00499658957043
0.00499659374571
0.00499660158807
0.00499661626892
0.00499664241071
0.00499667558833
0.00499670446098
0.00499672815164
0.00499674941092
0.00499660213511
0.00499660210395
0.00499660207737
0.0049966020563
0.00499660202922
0.00499660197106
0.00499660185038
0.0049966015919
0.00499660146847
0.00499660297331
0.00499660582477
0.00499661011973
0.0049966173455
0.0049966307789
0.00499665609923
0.00499669510653
0.00499673494599
0.00499676800181
0.00499679707898
0.00499682439975
0.00499661770515
0.00499661768089
0.00499661767648
0.00499661770344
0.00499661777508
0.00499661788507
0.00499661804445
0.00499661870238
0.00499662141395
0.00499662563554
0.00499663082318
0.00499663896712
0.00499665514735
0.00499668575421
0.00499673035004
0.00499677677166
0.00499681626485
0.00499685155379
0.00499688403464
0.00499691635225
0.00499663382779
0.00499663376531
0.00499663367025
0.00499663355792
0.00499663344241
0.00499663331331
0.00499663311261
0.00499663492988
0.00499664320808
0.00499665263319
0.00499666503216
0.00499668899662
0.00499673268102
0.00499678462292
0.00499683266797
0.0049968724814
0.00499691214023
0.0049969509359
0.00499698715706
0.00499702440423
0.00499665193756
0.00499665181502
0.00499665146082
0.00499665076113
0.00499665029836
0.00499665018413
0.00499665309449
0.00499666263947
0.00499667583571
0.00499669304185
0.00499672416119
0.00499678071192
0.00499683892284
0.00499688770084
0.0049969286192
0.00499697174099
0.00499701776775
0.00499706160035
0.00499710391199
0.00499714696535
0.00499667953794
0.00499667910939
0.00499667897664
0.0049966791633
0.00499668273645
0.00499668903587
0.00499669832775
0.00499671221185
0.00499673042035
0.0049967605086
0.00499682063147
0.0049968859288
0.00499693920759
0.00499698428327
0.00499703347979
0.00499708352831
0.00499713365287
0.00499718630557
0.0049972357331
0.00499728506777
0.00499672960776
0.00499672454137
0.00499671432615
0.00499671787447
0.0049967273168
0.00499674047376
0.0049967581032
0.00499677890437
0.00499680867839
0.0049968674947
0.00499694002108
0.00499700117157
0.00499705025612
0.00499710483077
0.00499715928783
0.0049972143597
0.00499727372437
0.00499733012242
0.00499738753091
0.00499744276463
0.00499680045889
0.00499679986123
0.00499676967344
0.00499677575717
0.00499679351046
0.00499681698527
0.00499684576362
0.00499688440261
0.00499694932416
0.00499702812339
0.00499709670975
0.00499714818659
0.00499720555312
0.00499726155955
0.00499731951393
0.00499738104861
0.00499744195948
0.00499750782335
0.00499756530127
0.00499762679172
0.00499694696476
0.00499699822851
0.00499695292249
0.00499695300644
0.00499697114851
0.00499699923187
0.00499704449111
0.0049971174501
0.00499719722415
0.00499726435424
0.00499731217505
0.00499736537616
0.00499741652096
0.00499747048059
0.00499753412162
0.00499759406014
0.00499766261712
0.00499771599964
0.00499777640868
0.00499784380715
0.00499722981029
0.0049973576102
0.00499731169789
0.00499730369625
0.00499731669622
0.0049973478468
0.00499741041731
0.00499748343034
0.00499754046007
0.00499757860265
0.00499762098447
0.00499766065297
0.004997702393
0.00499776859713
0.00499782224739
0.00499787217564
0.00499791354992
0.0049979645431
0.0049980273783
0.00499809480742
0.00499775554851
0.00499792434868
0.00499788313827
0.00499786648519
0.0049978616174
0.00499787723778
0.00499791800393
0.00499795862582
0.00499798207932
0.00499800596974
0.00499803316206
0.00499806049396
0.00499811341724
0.00499814731404
0.00499816333782
0.0049981803744
0.00499821248514
0.00499825879946
0.00499831296263
0.00499837070385
0.00499867672853
0.00499881745091
0.00499875868355
0.00499871901132
0.00499868838851
0.00499866660553
0.00499865644282
0.00499864831303
0.00499864101481
0.00499864003542
0.0049986334627
0.00499863408963
0.00499861541446
0.00499858387249
0.00499855800318
0.00499855339148
0.00499856534562
0.00499858761792
0.00499861548071
0.00499865089362
0.0049995992717
0.00499966742013
0.00499961430513
0.004999586527
0.00499957027727
0.00499955584792
0.00499953426185
0.00499950378937
0.00499946667769
0.00499941221158
0.00499933349193
0.00499923801167
0.00499914585714
0.00499906499127
0.00499900517178
0.00499896272993
0.00499893395044
0.00499891543821
0.00499890651392
0.00499890918518
0.00499975951218
0.00499976066253
0.00499976132964
0.00499976201141
0.00499976364233
0.00499976937572
0.00499977349953
0.00499976923142
0.00499975488517
0.00499973127779
0.00499969073082
0.00499962062448
0.0049995360038
0.00499945191811
0.00499937323608
0.00499930209592
0.00499924046607
0.00499918986238
0.00499915016591
0.00499912300585
0.00499977582919
0.00499977601167
0.00499977612064
0.00499977638636
0.00499977679969
0.00499977725477
0.00499977763745
0.00499977788755
0.00499977798309
0.00499977793956
0.00499977773584
0.00499975815149
0.00499971306039
0.00499965504717
0.00499958792582
0.00499951591319
0.00499944570551
0.00499938239624
0.00499932762933
0.00499928146545
0.0049997862826
0.0049997863584
0.00499978637673
0.00499978640401
0.00499978645076
0.00499978650025
0.00499978653828
0.00499978656439
0.00499978657497
0.00499978656834
0.00499978653289
0.00499977966773
0.00499975918066
0.00499972625351
0.00499968156762
0.00499962612275
0.00499956470078
0.00499950378514
0.00499944574812
0.00499939254719
0.00499979620347
0.00499979625518
0.00499979624907
0.00499979622077
0.0049997961935
0.00499979616423
0.00499979612868
0.00499979608854
0.0049997960494
0.00499979602232
0.00499979602361
0.00499979193028
0.00499977865623
0.0049997560531
0.00499972396968
0.00499968195063
0.00499963257614
0.00499957965094
0.00499952592524
0.00499947375387
0.00499980641652
0.00499980643953
0.0049998063872
0.00499980628953
0.00499980617334
0.00499980604846
0.00499980592453
0.00499980580588
0.00499980570302
0.00499980563682
0.00499980564401
0.00499980244296
0.0049997925256
0.00499977510549
0.00499974990119
0.00499971671455
0.00499967753439
0.0049996341556
0.00499958685644
0.00499954065632
0.00499981739941
0.00499981737349
0.00499981720905
0.00499981692142
0.00499981655712
0.00499981616211
0.00499981577876
0.00499981543221
0.00499981512945
0.00499981487199
0.00499981465997
0.00499981162702
0.00499980419167
0.00499979070076
0.00499977078203
0.00499974472894
0.00499971454541
0.00499968001498
0.00499964208249
0.00499960512279
0.00499983111178
0.00499983098526
0.00499983060399
0.00499982994386
0.00499982891806
0.00499982745572
0.00499982627223
0.00499982540259
0.00499982484013
0.0049998246141
0.00499982356133
0.00499982110137
0.00499981478246
0.00499980383572
0.00499978770258
0.00499976802738
0.00499974838076
0.00499972690372
0.00499970232744
0.0049996713448
0.00499985550072
0.00499985524149
0.00499985451743
0.00499985292275
0.00499985152557
0.0049998502259
0.00499984965671
0.00499984979517
0.00499985004645
0.0049998488271
0.00499984503947
0.00499984001703
0.00499983250033
0.0049998214544
0.00499980727804
0.00499979553664
0.00499979072014
0.00499978406355
0.00499977347919
0.00499974833553
0.00499990219691
0.00499990245909
0.00499990266878
0.00499989992928
0.00499990070797
0.00499990190102
0.00499989775672
0.00499989247695
0.00499988623127
0.00499987911979
0.00499987289817
0.00499986579839
0.0049998565767
0.00499984574969
0.00499983777181
0.00499984255837
0.00499985397355
0.00499986249749
0.00499986352291
0.00499984203181
0.00499996420228
0.00499996481362
0.00499996534532
0.00499995756509
0.00499996573257
0.00499997994482
0.00499998558882
0.00499998452069
0.00499997963093
0.0049999722801
0.00499996276924
0.0049999512113
0.00499993829544
0.00499992825604
0.00499992689999
0.00499993529108
0.00499994534761
0.00499995723374
0.00499995304118
0.00499994069029
0.00499533095032
0.00499526108371
0.00499518434776
0.00499511347351
0.00499505681489
0.00499501691128
0.00499499875022
0.00499499662372
0.00499499646935
0.00499499639965
0.00499499641613
0.00499499648863
0.00499499656829
0.00499499663579
0.00499499667514
0.00499502454814
0.00499577522726
0.00499567774848
0.00499559795013
0.00499553169856
0.00499547633594
0.00499540292312
0.00499530174791
0.00499519838384
0.00499510812863
0.00499504495908
0.00499501069206
0.0049950006874
0.00499500015706
0.00499500000584
0.00499500005159
0.00499500013522
0.00499500022822
0.0049950003098
0.00499500035679
0.00499502950205
0.00499587678854
0.00499578949123
0.0049957168735
0.00499565387726
0.00499560457303
0.00499554604858
0.00499543602825
0.00499531896974
0.00499521192137
0.0049951285365
0.00499507188929
0.00499503826069
0.00499501849223
0.00499500788469
0.00499500506301
0.00499500489098
0.00499500490977
0.004995004984
0.00499500503635
0.00499503447089
0.0049959673941
0.00499589234279
0.00499582891144
0.0049957723965
0.00499572359103
0.00499568654942
0.00499561114611
0.00499549461968
0.00499538195307
0.00499528134499
0.00499520303634
0.00499514344278
0.00499509872294
0.00499506503299
0.00499503886286
0.00499501952096
0.00499501240975
0.00499501218642
0.00499501216036
0.00499503403134
0.00499605180583
0.00499599106597
0.00499593852611
0.00499589197496
0.0049958489024
0.00499581458841
0.00499578331053
0.00499570972802
0.00499561189866
0.00499551864169
0.00499543157534
0.0049953580814
0.00499529959131
0.00499524899619
0.00499520493927
0.0049951692423
0.00499514650276
0.00499513683388
0.00499513882125
0.00499515381464
0.00499613053013
0.00499608504814
0.00499604372309
0.00499600788845
0.00499597437282
0.00499594369926
0.00499592075111
0.00499589761101
0.00499584545619
0.00499577626413
0.00499570989751
0.00499564148915
0.00499557995345
0.00499552793418
0.00499548022586
0.00499543738334
0.00499540203184
0.00499538103992
0.00499537986099
0.00499539298051
0.00499620491243
0.00499617285531
0.00499614167967
0.00499611458641
0.00499609014316
0.0049960676381
0.00499604757572
0.00499603337495
0.00499601982517
0.00499599315433
0.00499595665881
0.00499591794864
0.00499587388771
0.00499583136155
0.00499579324069
0.00499575799511
0.00499572504448
0.00499569878229
0.00499568988617
0.00499569759659
0.0049962766855
0.00499625436778
0.00499623144319
0.00499621059422
0.00499619231202
0.0049961759054
0.00499616151296
0.0049961498447
0.00499614270379
0.00499613655863
0.00499612694614
0.00499611551996
0.00499610095226
0.00499607714708
0.0049960534566
0.00499603259836
0.00499601305002
0.00499599572066
0.00499598542624
0.00499598475224
0.00499634616934
0.00499632998457
0.00499631296438
0.00499629644923
0.0049962814642
0.00499626846004
0.00499625790102
0.00499625028524
0.00499624498379
0.00499624219489
0.00499624011379
0.00499623888878
0.00499623726661
0.00499622899164
0.00499621659152
0.00499620562531
0.00499619605998
0.0049961877468
0.00499618175575
0.00499617948713
0.00499641312942
0.00499640069055
0.00499638746819
0.00499637386842
0.00499636123276
0.00499635058023
0.00499634248673
0.00499633713325
0.00499633343583
0.0049963311937
0.00499633006976
0.0049963293033
0.00499632668487
0.00499632161402
0.00499631613588
0.00499631155499
0.00499630793864
0.00499630451155
0.00499630163691
0.0049963003756
0.00499647633875
0.00499646682439
0.00499645641833
0.00499644558788
0.00499643573678
0.00499642789095
0.00499642234649
0.00499641805209
0.00499641472358
0.00499641271379
0.00499641120208
0.00499640874105
0.0049964042119
0.00499639885433
0.00499639603071
0.00499639476276
0.0049963939741
0.00499639287464
0.00499639157196
0.0049963910586
0.00499653451922
0.00499652852152
0.00499652140219
0.00499651418082
0.00499650827628
0.00499650404579
0.00499650065686
0.0049964970048
0.00499649418451
0.00499649289231
0.0049964919878
0.00499648808142
0.00499648122782
0.00499647587092
0.00499647451478
0.00499647475772
0.00499647500778
0.00499647483136
0.00499647427383
0.00499647407449
0.00499658850013
0.00499658732241
0.0049965849991
0.00499658266078
0.00499658112692
0.0049965799969
0.00499657853251
0.00499657570068
0.00499657389639
0.00499657412319
0.00499657460817
0.00499657023295
0.00499656103984
0.00499655646094
0.0049965566226
0.00499655746962
0.00499655806003
0.0049965582356
0.00499655799482
0.00499655788769
0.00499664246923
0.00499664726773
0.00499665075663
0.00499665354655
0.00499665569119
0.00499665730254
0.00499665724198
0.0049966549394
0.0049966546322
0.00499665688804
0.00499665888172
0.00499665455357
0.00499664553524
0.00499664337926
0.00499664444434
0.00499664535846
0.00499664603914
0.00499664628683
0.00499664616178
0.00499664611048
0.00499670134136
0.00499671278391
0.00499672213627
0.00499672917513
0.00499673447709
0.00499673848231
0.00499673936763
0.00499673831559
0.00499673996629
0.00499674452347
0.00499674841883
0.0049967448976
0.00499673650373
0.00499673620406
0.00499673758301
0.0049967389008
0.00499673994488
0.00499674035503
0.00499674019209
0.00499674016177
0.00499676945092
0.00499678744916
0.00499680170362
0.00499681247396
0.00499682089796
0.00499682689843
0.00499682930103
0.0049968301658
0.00499683390815
0.00499684064944
0.00499684652938
0.00499684493691
0.00499683568385
0.00499683553905
0.00499683759004
0.00499683968772
0.00499684134232
0.00499684215221
0.00499684223222
0.00499684229933
0.00499685091532
0.00499687430799
0.00499689286911
0.00499690712815
0.00499691824475
0.00499692641235
0.00499693101133
0.00499693442399
0.00499694072966
0.00499694954824
0.00499695710039
0.00499695763266
0.00499694539791
0.00499694488778
0.00499694772874
0.00499695062008
0.00499695289979
0.00499695427326
0.00499695478038
0.0049969550257
0.00499694822876
0.00499697612935
0.00499699836336
0.00499701579505
0.00499702990496
0.0049970408916
0.00499704908723
0.0049970563973
0.00499706580604
0.00499707696782
0.00499708609755
0.00499709062921
0.00499707259934
0.00499706963842
0.00499707264224
0.00499707581821
0.00499707834064
0.00499707996204
0.00499708075139
0.00499708107625
0.00499706120967
0.00499709326199
0.00499711912704
0.00499714018283
0.00499715788704
0.00499717292916
0.00499718644936
0.00499719845259
0.00499721100961
0.00499722471943
0.00499723526136
0.00499724404283
0.00499722367567
0.00499721408372
0.0049972162032
0.00499721874468
0.00499722077838
0.00499722250828
0.00499722422865
0.00499722503108
0.00499718900711
0.00499722555182
0.00499725549526
0.00499728070358
0.00499730282192
0.00499732300119
0.00499734192658
0.00499735811814
0.00499737377446
0.00499739018543
0.00499740187983
0.00499741057466
0.00499739625627
0.00499737939389
0.00499738099472
0.00499738334437
0.00499738525086
0.00499738749545
0.0049973900263
0.00499739121591
0.00499733275795
0.00499737432609
0.0049974092387
0.00499743955346
0.00499746676155
0.00499749180068
0.00499751457393
0.00499753382591
0.004997552325
0.00499757147982
0.00499758404599
0.00499759156882
0.00499758392555
0.00499756413947
0.0049975671437
0.00499757119389
0.00499757424644
0.00499757721131
0.00499757965242
0.00499758085504
0.00499749665603
0.00499754436821
0.00499758576948
0.00499762241246
0.00499765536799
0.00499768492747
0.00499771116333
0.00499773404407
0.00499775606484
0.00499777860443
0.00499779275463
0.0049978015111
0.00499779713972
0.0049977726821
0.00499777729015
0.00499778352628
0.00499778800921
0.00499779137865
0.00499779343062
0.00499779458681
0.00499768729557
0.00499774218895
0.00499779134534
0.00499783564546
0.00499787560457
0.0049979112908
0.0049979436221
0.00499797315011
0.004998000158
0.00499802571511
0.00499804127566
0.00499805271321
0.00499805144938
0.00499801185098
0.00499801611503
0.00499802347021
0.00499802876482
0.00499803231317
0.0049980343385
0.00499803551464
0.00499790971491
0.00499797175296
0.00499802943209
0.0049980831141
0.00499813280745
0.00499817862377
0.00499822107145
0.00499826187048
0.00499829598909
0.00499832134414
0.00499833659977
0.00499834969311
0.0049983667681
0.00499830123842
0.00499829081197
0.00499829778698
0.00499830304941
0.00499830685703
0.00499830944892
0.00499831094618
0.00499816270828
0.00499823043668
0.00499829741728
0.0049983639294
0.00499842982921
0.00499849453124
0.00499856008136
0.00499862025631
0.00499865627907
0.00499867643299
0.00499869492324
0.0049987172724
0.00499874517217
0.00499870793148
0.00499862803616
0.00499862695161
0.00499862713754
0.00499862747096
0.00499862815674
0.00499862877757
0.00499843339703
0.00499850158964
0.00499857499402
0.00499865460125
0.00499874146879
0.0049988352256
0.00499891655017
0.00499896381452
0.0049989917607
0.00499901830403
0.00499905132828
0.00499908170767
0.00499909280951
0.00499910008146
0.00499905110543
0.00499899932547
0.00499897289593
0.00499895551158
0.00499894496882
0.00499893993805
0.00499869642277
0.00499875244745
0.00499881886577
0.00499889864016
0.00499898899155
0.00499905878514
0.00499908941389
0.00499910428233
0.00499911660279
0.00499912636981
0.00499913159702
0.00499913078873
0.00499912949121
0.0049991373181
0.00499912934838
0.0049991069626
0.0049990966119
0.00499908950077
0.00499908460163
0.00499908120511
0.00499892640364
0.00499895732905
0.00499900343075
0.0049990626049
0.00499911088627
0.00499913231982
0.00499914279425
0.00499914893708
0.00499915267663
0.0049991533141
0.0049991520576
0.00499915052738
0.00499914908746
0.00499915872362
0.00499915554565
0.00499914279265
0.00499913799935
0.00499913609085
0.0049991356745
0.00499913400962
0.00499910995892
0.00499911293276
0.00499913065832
0.00499914950718
0.00499915854763
0.00499916539589
0.00499917002353
0.0049991723183
0.00499917247687
0.00499917141657
0.00499917087308
0.00499917053179
0.00499916941383
0.00499917768702
0.00499917265753
0.00499916426261
0.00499916233658
0.00499916184824
0.00499916241237
0.00499916078662
0.00499924711975
0.00499922682752
0.00499921406347
0.00499920223791
0.00499919499317
0.00499919254955
0.00499919184532
0.00499919114231
0.00499919037204
0.00499919029889
0.00499918933562
0.00499918769598
0.00499919656932
0.00499920222087
0.00499919183432
0.00499918769112
0.00499918703454
0.00499918663595
0.0049991864051
0.00499918508044
0.00499934794703
0.00499931178873
0.004999279356
0.00499925250339
0.00499923342684
0.00499922242641
0.00499921733187
0.00499921491714
0.00499921456132
0.00499921636698
0.00499921651225
0.0049992263587
0.004999230922
0.00499922240721
0.00499921410972
0.00499921263768
0.00499921235967
0.00499921226037
0.00499921139064
0.00499921414876
0.00499942665374
0.00499938215754
0.00499934139649
0.00499930629275
0.0049992770582
0.00499925737132
0.0049992471278
0.00499924188415
0.00499923925027
0.00499924129257
0.00499924196007
0.004999269617
0.00499926141557
0.00499924385837
0.00499923926689
0.00499923866462
0.00499923844836
0.00499923862882
0.00499923964102
0.00499924371424
0.00499949521254
0.00499944769546
0.00499940470222
0.00499936488883
0.00499932778227
0.00499929916018
0.00499928297526
0.00499927439312
0.00499926991144
0.00499927133976
0.00499927341233
0.00499931822516
0.00499929875819
0.00499927589594
0.00499926995896
0.00499926832144
0.00499926741449
0.00499926724053
0.00499926863192
0.00499926977113
0.00499955953575
0.0049995135604
0.00499946975854
0.00499942707432
0.00499938371641
0.00499934565083
0.00499932116311
0.00499930748723
0.00499929971051
0.00499929862743
0.00499930271013
0.00499935276185
0.00499933485569
0.00499930599483
0.00499929845267
0.00499929701649
0.00499929641697
0.00499929679896
0.00499929934413
0.00499930093229
0.00499962899474
0.00499958685549
0.00499954331596
0.00499949820311
0.004999449007
0.00499940003538
0.00499936260054
0.0049993393915
0.00499932573645
0.00499932087012
0.0049993260969
0.0049993686528
0.00499936502655
0.00499933392951
0.00499932692744
0.00499932839429
0.00499933027589
0.00499933292751
0.00499933893379
0.00499933956093
0.00499971397024
0.00499967762894
0.00499963821169
0.00499959400487
0.004999542844
0.00499948557972
0.00499943179284
0.00499939093247
0.0049993644003
0.00499934945633
0.00499935094791
0.00499939578142
0.00499940639349
0.00499938034344
0.00499938035552
0.00499938903681
0.00499939627074
0.00499940275979
0.00499941167841
0.0049994160831
0.00499981752314
0.00499979259141
0.00499976448897
0.0049997302079
0.00499968922705
0.00499963974672
0.00499958764319
0.00499954357765
0.00499951653905
0.00499950846718
0.0049995150398
0.00499956830662
0.00499956663034
0.00499952575134
0.00499952515541
0.0049995361489
0.00499954567802
0.00499955369525
0.00499957056014
0.00499957669582
0.00499993375054
0.00499992845071
0.00499992054356
0.00499990803384
0.00499989133551
0.00499987039644
0.00499984528675
0.00499982064018
0.00499980295287
0.0049997988714
0.00499980516162
0.00499984274038
0.00499983874415
0.004999773118
0.00499976734794
0.00499977638486
0.00499978574826
0.00499979449321
0.00499982088634
0.0049998160869
)
;

boundaryField
{
    emptyPatch
    {
        type            empty;
    }
    minY
    {
        type            calculated;
        value           nonuniform List<scalar> 0();
    }
    maxY
    {
        type            calculated;
        value           uniform 0.005;
    }
    water_to_cooler
    {
        type            calculated;
        value           nonuniform List<scalar> 
38
(
0.00499502454814
0.00499502950205
0.00499503447089
0.00499503403134
0.00499515381464
0.00499539298051
0.00499569759659
0.00499598475224
0.00499617948713
0.0049963003756
0.0049963910586
0.00499647407449
0.00499655788769
0.00499664611048
0.00499674016177
0.00499684229933
0.0049969550257
0.00499708107625
0.00499722503108
0.00499739121591
0.00499758085504
0.00499779458681
0.00499803551464
0.00499831094618
0.00499862877757
0.00499893993806
0.00499908120514
0.0049991340097
0.00499916078687
0.00499918508196
0.00499921415426
0.00499924372173
0.00499926977871
0.00499930093921
0.00499933956681
0.00499941609012
0.00499957673408
0.00499981628675
)
;
    }
    water_to_heater
    {
        type            calculated;
        value           nonuniform List<scalar> 
59
(
0.00499635704454
0.00499636915034
0.00499638293767
0.00499640585127
0.00499641818527
0.00499642994305
0.0049964402352
0.00499645234184
0.00499646073181
0.00499647253218
0.004996479699
0.00499649417235
0.00499649880555
0.0049965109038
0.00499651481288
0.00499652670619
0.00499653026936
0.00499654237673
0.00499654556435
0.00499655808284
0.00499656208146
0.00499657408875
0.00499657908371
0.00499659119127
0.00499659696664
0.00499660904805
0.00499661547623
0.0049966313344
0.00499663614856
0.00499665315408
0.00499666556681
0.00499668641553
0.00499671879431
0.00499674530963
0.00499679582273
0.00499694213796
0.00499719127088
0.00499723618989
0.00499772640804
0.00499777507178
0.00499865950731
0.00499870902774
0.0049995941984
0.00499975460648
0.00499975750392
0.00499977722986
0.0049997745819
0.00499979213837
0.00499978902858
0.00499980652702
0.00499980357153
0.00499981429026
0.00499981432751
0.00499983188597
0.00499984225139
0.00499986080082
0.00499989207101
0.00499991499145
0.00499995920685
)
;
    }
    procBoundary0to1
    {
        type            processor;
        value           nonuniform List<scalar> 
41
(
0.00499634076665
0.00499634080241
0.00499634080283
0.00499634075863
0.00499634069422
0.00499634063784
0.00499634055946
0.00499633996458
0.00499630216129
0.00499620276878
0.00499610256785
0.00499603803078
0.00499600490199
0.00499598281611
0.00499596304528
0.00499594464802
0.00499592863543
0.00499590867957
0.00499586035205
0.00499576969991
0.00499515116302
0.00499509062922
0.00499504171973
0.00499501403298
0.00499500856083
0.00499500423124
0.00499499377389
0.00499499356287
0.00499499338234
0.00499499325868
0.00499499319442
0.00499499316986
0.0049949931572
0.00499499315668
0.0049949931637
0.00499500873004
0.00499565213546
0.004995545521
0.00499545964287
0.00499539160818
0.00499539160818
)
;
    }
}


// ************************************************************************* //
