/*--------------------------------*- C++ -*----------------------------------*\
| =========                 |                                                 |
| \\      /  F ield         | OpenFOAM: The Open Source CFD Toolbox           |
|  \\    /   O peration     | Version:  2312                                  |
|   \\  /    A nd           | Website:  www.openfoam.com                      |
|    \\/     M anipulation  |                                                 |
\*---------------------------------------------------------------------------*/
FoamFile
{
    version     2.0;
    format      ascii;
    arch        "LSB;label=32;scalar=64";
    class       volScalarField;
    location    "0.705/water";
    object      km;
}
// * * * * * * * * * * * * * * * * * * * * * * * * * * * * * * * * * * * * * //

dimensions      [0 2 -2 0 0 0 0];

internalField   nonuniform List<scalar> 
6000
(
0.0349671452562
0.0081210179317
0.00151472109141
0.00030603736756
0.000148027439777
0.000138472296737
0.000140065543442
0.000141224640376
0.000141706785667
0.000141665517974
0.000141274022943
0.000140709771515
0.000140108580607
0.000139553552913
0.00013908453091
0.000138711998
0.000138429756429
0.000138224335179
0.000138080968854
0.000137986818109
0.484256208016
0.150656879755
0.0412572031033
0.00945399610106
0.00174898849475
0.000345804980235
0.000154671099858
0.000140971050053
0.00014234503519
0.00014299341609
0.000142916335842
0.000142457429544
0.000141801967601
0.000141073590868
0.00014036221201
0.000139726504002
0.000139196331331
0.000138779305481
0.00013846928683
0.000138254107218
0.677191229242
0.254279928602
0.091061976392
0.02917634731
0.0075287307864
0.00149025127307
0.000307627320798
0.000152167466339
0.000142487637366
0.000143494670201
0.000143927382674
0.000143764389862
0.000143271926829
0.000142591112133
0.000141822175555
0.000141048634579
0.000140335434788
0.000139724762539
0.000139236804206
0.000138875190553
0.828972275845
0.330315579114
0.130998284672
0.0499566717789
0.0167622964398
0.00438230945036
0.000869619277779
0.000219070650054
0.000146856540873
0.000143665022686
0.000144379632845
0.000144561998073
0.000144315566881
0.000143803586333
0.000143122294893
0.000142351966006
0.000141568767764
0.000140838941655
0.000140210961606
0.000139712903017
0.902744522481
0.377967139429
0.159222957249
0.0665305539299
0.0260295328351
0.0086348578587
0.00212516426927
0.000430727413293
0.000167951084315
0.000144882914374
0.000144512766542
0.000144944570606
0.000144949385242
0.000144642018429
0.000144115654818
0.000143438589285
0.000142679938659
0.000141912034262
0.000141201348759
0.000140598946505
0.910374474876
0.40098076834
0.177727627462
0.0787683849159
0.0337873270421
0.0130962491047
0.00405894713795
0.000911567461031
0.000234185178543
0.000150658075588
0.000144808158818
0.000145067414374
0.000145266878689
0.000145155138609
0.000144799954739
0.000144256386966
0.000143579498682
0.000142834946375
0.000142094666229
0.000141425253502
0.908622123491
0.412963369594
0.188683203219
0.0866762043034
0.0394143293844
0.0169691180917
0.00627285801737
0.00173631100674
0.000397149121853
0.000170007872122
0.00014636176187
0.00014516301088
0.000145394280706
0.000145439830969
0.000145246159356
0.000144845101875
0.000144275424396
0.000143590216516
0.000142857796454
0.000142151980148
0.933735891173
0.42327899589
0.195242355696
0.0918504565782
0.0435747429574
0.0201677041681
0.00849320643873
0.0028778244437
0.000730114722222
0.000225127964615
0.000152331396524
0.000145693601855
0.000145502895057
0.00014561915086
0.000145557413513
0.000145287281668
0.000144825959788
0.000144211850246
0.000143504916676
0.000142779600303
0.969578791302
0.432977538038
0.200075389036
0.0958227154187
0.0469002792388
0.0228942899687
0.0105928021161
0.00423528014798
0.00130830194693
0.000361217753536
0.000172884239346
0.000147901073876
0.000145863260489
0.000145836209678
0.000145845054389
0.000145674892251
0.000145302682837
0.000144749685475
0.000144065808184
0.00014332372724
0.989898776389
0.440367534778
0.204676842623
0.0993056435466
0.0497141412441
0.0252362650069
0.0125379833077
0.00570224436736
0.00212596902496
0.000639606190468
0.000234167562112
0.000155837401859
0.000147019378811
0.000146262179566
0.000146214478678
0.000146088746271
0.00014576748422
0.000145246899415
0.000144566593096
0.000143797629981
0.994531712439
0.444650539152
0.208267030875
0.102168770096
0.0521070427961
0.027298988479
0.0143592652049
0.00719254355725
0.00313676170996
0.00109244132452
0.000375854301391
0.000182111892718
0.000150337130694
0.00014712454912
0.00014675674803
0.000146586429443
0.000146260026835
0.000145728470853
0.000145021054287
0.000144205311958
0.98955591007
0.445165271294
0.210147656679
0.104200024818
0.0540358332233
0.0290927248993
0.0159812875101
0.00861501570155
0.00421243284943
0.00168759933948
0.000618126352872
0.000252963097795
0.000159761706302
0.000148785494206
0.000147538701787
0.000147193726188
0.000146792457563
0.000146198868027
0.000145428001576
0.000144542600957
0.982904588702
0.443504156303
0.210704380265
0.105326260338
0.055355854444
0.0305020346959
0.0173490047091
0.00985361951869
0.00520830637838
0.00231449008913
0.000914202832827
0.000388042184832
0.000184208847959
0.000151893745844
0.000148589400908
0.000147901176538
0.000147351823457
0.000146647156016
0.000145778827433
0.00014480428185
0.981193908029
0.442872453761
0.210525319024
0.10570608162
0.0561394166286
0.0315223502297
0.0184124120274
0.0108174417511
0.00603150998808
0.0028783135604
0.00120764500072
0.000562499586945
0.000236311161328
0.000157838648753
0.000149931983056
0.000148682149504
0.000147919228726
0.00014706382115
0.000146072327165
0.000144995986732
0.987819613974
0.444604874209
0.210786902811
0.105870757114
0.0566262725152
0.0322486061701
0.0191875817602
0.0115244694878
0.00666663450106
0.00335839199266
0.00147080643118
0.000730802000407
0.000322472577756
0.000168949106158
0.000151677003754
0.00014952464086
0.000148488843135
0.000147456949338
0.000146327967193
0.000145143471331
1.00263497294
0.449995576024
0.212679675529
0.106775876758
0.0573484778697
0.032897809244
0.0197559991553
0.0120409603173
0.0071654941713
0.00380547171881
0.00173635055696
0.000887608188673
0.000434824485848
0.000192933927806
0.00015464400907
0.000150503957251
0.000149083701898
0.000147860564794
0.000146589693864
0.000145293188081
1.02622885156
0.459125929032
0.216836981174
0.10910193828
0.0587218970079
0.0336613501886
0.0202295067705
0.0124687798565
0.00763786171467
0.00430106648493
0.00206824655469
0.00105950400844
0.000569268125046
0.000248198329236
0.000161162608171
0.000151912265969
0.000149782458627
0.000148335621912
0.000146919083165
0.000145503464636
1.05772188151
0.473068837621
0.224677608694
0.113634864536
0.060948882948
0.0345345045054
0.0206013008757
0.0128320489506
0.00812668804225
0.00489094057194
0.00249614857984
0.0012637730781
0.000737383971003
0.000357465981875
0.000180111273158
0.000154727814371
0.000150776356204
0.000148968168018
0.000147382084874
0.000145830677401
1.08836881929
0.496085254719
0.239088422548
0.120778303188
0.0635404480885
0.0351579660201
0.0207613851559
0.0131240022403
0.00864234131778
0.00549455582896
0.00298321115463
0.00150587166334
0.000945310390521
0.000540042596923
0.00023772042917
0.000161376623566
0.000152401238393
0.000149856768754
0.000148033407044
0.000146316285626
1.14018905633
0.536313343503
0.259484568817
0.128103452021
0.0653398125597
0.0353881105173
0.0209284031931
0.0134576291183
0.00909742608695
0.00604249583201
0.00343840977537
0.00174154750099
0.00115730940525
0.000787417574377
0.00037521554584
0.000179000437388
0.000155227509464
0.000151079101647
0.00014889710554
0.000146977394132
1.25359863555
0.587046757786
0.277333007871
0.133385936769
0.0671841690131
0.0363413346005
0.0215256882481
0.0138917984381
0.00952242182968
0.00653335619087
0.00386856260104
0.00189646785907
0.00129246114973
0.00102663478987
0.000601729795311
0.000226986292755
0.000160531111644
0.000152694445518
0.000149962655325
0.000147806678828
1.39561585061
0.623095216087
0.28870100138
0.138991944475
0.0706189729725
0.0384295099122
0.0226549507888
0.0145240209982
0.00999263777015
0.00701412910605
0.00429069474723
0.00204915109678
0.00132273049409
0.00117380130165
0.000843615271326
0.000330877117042
0.000171116619775
0.000154777186215
0.000151186547931
0.000148771422394
1.45017222948
0.641944328846
0.29782239578
0.144900143689
0.074427685187
0.0406840292888
0.0238975378073
0.0152216257729
0.010491930578
0.00749737606469
0.00469804739838
0.00221361301377
0.00134598680604
0.00122344007815
0.00101374407853
0.000484354928748
0.000191613147759
0.000157455452273
0.000152498716373
0.00014981027551
1.4715863512
0.652190584885
0.303543722179
0.149030024062
0.0771989200263
0.0424210167915
0.0249173118196
0.0158465211125
0.0110141040914
0.00798737068324
0.00507241457256
0.0023777630699
0.00138333323349
0.00124737284509
0.00110554923857
0.000639584589313
0.000226374014771
0.000161019392356
0.000153823533029
0.000150835003856
1.48404224391
0.658058962193
0.307117341948
0.151425081373
0.0788263864449
0.0435338121838
0.0256592947315
0.0164259776655
0.0115849309143
0.00846597633445
0.00542465080245
0.00256367698929
0.00144248920259
0.00129264161365
0.00117459959413
0.00076804403954
0.000277979974958
0.000166016799645
0.000155103788236
0.000151741786778
1.4913385935
0.662835876419
0.310187060482
0.152992882927
0.0797791751568
0.0442582764898
0.0262798344814
0.0170616652977
0.0121903896959
0.0089108789016
0.00577333711229
0.00279088070987
0.00153895524544
0.00137619071859
0.00126271038392
0.000884304338175
0.00035278231153
0.000173562945197
0.000156346304839
0.000152446139786
1.50050932714
0.66793227131
0.313313280129
0.154429269894
0.0806448361828
0.0449545640377
0.0269573874995
0.0177780770099
0.0127782224664
0.00932113183955
0.00611690136404
0.00305268870305
0.00167821446684
0.00150036113485
0.001389409938
0.00101780235706
0.000461879944935
0.000187214159288
0.000157831524516
0.00015295886561
1.51573542834
0.673801048542
0.31621455789
0.155993692423
0.0816453262533
0.0457193064479
0.027688069371
0.0184813258061
0.0132789072593
0.00967636235475
0.00642879056363
0.00331434902658
0.00183794612046
0.00164054765053
0.00153402239471
0.00118453805202
0.000614305319833
0.00021700790096
0.000160327392631
0.00015342009779
1.54248037221
0.683132196613
0.319987725042
0.157796697152
0.0826696200178
0.0464520457745
0.0283712940915
0.0190540651674
0.0136463510679
0.00994453842008
0.0066739966364
0.0035380477874
0.00198195981989
0.00175672710121
0.0016691898755
0.0013780800431
0.000806625897124
0.000280387142767
0.000165039594178
0.000154046513556
1.56907380887
0.693768201713
0.324034830254
0.159388365201
0.0834579640924
0.0470140057018
0.0288974079285
0.0194213738198
0.013860225785
0.0100975572474
0.00682622557978
0.0037016708059
0.00208105347305
0.00183711642594
0.00178241592763
0.00156298307365
0.00101328414417
0.000390943157639
0.000174176731119
0.000155120988083
1.59480465036
0.703296345527
0.327565355876
0.160674379039
0.0840657265711
0.0474517134994
0.0292492953411
0.0195851530228
0.0139243363872
0.0101256402162
0.00688115058524
0.00380008802734
0.00213347909083
0.00189205134194
0.00186684480381
0.00166443396962
0.00119861112585
0.000540636464801
0.000193137311483
0.000157062482146
1.61385019091
0.70961149881
0.329495398672
0.161467669614
0.0845586668025
0.047824161439
0.0294337925051
0.0195853568512
0.0138519505009
0.0100311849076
0.00684229454167
0.00383562892241
0.00217011361328
0.00193205256665
0.00192341937173
0.00173665599643
0.00134435842469
0.000705028530011
0.000232270896099
0.000160428533542
1.63156210659
0.711695790925
0.329661515653
0.161848677962
0.0850411855105
0.0481325307124
0.0294478164457
0.0194254247559
0.0136264482752
0.00979715116734
0.00667837765657
0.00381933079749
0.00221526866831
0.0019544052351
0.00195627410553
0.0017994572465
0.00146224835956
0.000870021325276
0.000303946059625
0.000166036562909
1.64085463802
0.710350203404
0.328555604028
0.162300570796
0.0857980022189
0.0484769828428
0.0293306402807
0.0190771201708
0.0132104795354
0.00939695393718
0.0064143958643
0.00382551106235
0.00226746641739
0.00195700620212
0.00197317281579
0.00187166385473
0.00158470301587
0.00103697004901
0.00041345588103
0.000176060409046
1.61833567884
0.698924855023
0.326671974171
0.163668593084
0.0871433473151
0.0488329590687
0.0289313147373
0.0184214405132
0.0125993795192
0.00895040236708
0.00623090575678
0.00388593909062
0.00232090164633
0.00194431713365
0.00198535304797
0.00196229128276
0.00172859557186
0.00121190694342
0.000555572888898
0.000196288115066
1.54119775087
0.681207400231
0.326717558619
0.167073633283
0.0890057077232
0.0486622984206
0.0280628202869
0.0176889806401
0.0120823154902
0.0086523357485
0.00617021262735
0.00397964882727
0.00237576972505
0.00192028527199
0.00199212275435
0.00204480644705
0.00185197645453
0.00138445108119
0.000722021780246
0.000238277041993
1.46960299287
0.672148484183
0.332012539872
0.172647103219
0.0904285574808
0.0482649727134
0.0275676639106
0.0172567867692
0.0117684604026
0.00849786924559
0.00616750664201
0.00405864953436
0.00241513390605
0.00188204203737
0.00197425772551
0.00207856796602
0.00192690440791
0.00152942447
0.00090009182402
0.000316551352064
1.45246591115
0.679509510793
0.342885503272
0.178909140436
0.0923146342936
0.0489563913291
0.0276172231255
0.0171029344231
0.0115925375763
0.00841489571621
0.00616570313151
0.00410685506468
0.00241736626102
0.00182880011679
0.00192296994859
0.00206014206944
0.00194797836685
0.00159422831625
0.00106067405399
0.000434957923502
1.45699921358
0.699891901449
0.357569619838
0.185604110533
0.0960177035746
0.0503272828479
0.0279499708536
0.0170667164751
0.0114766490428
0.00834781065337
0.00616259759119
0.00413441153992
0.00240707257593
0.0017612184307
0.00184641679086
0.0020056483023
0.00192532064345
0.00161649961198
0.00117295447065
0.000574801512103
1.48342322711
0.735953760607
0.376937741416
0.193245249972
0.100010425638
0.0514836973579
0.0281364859638
0.0169886493434
0.0113706569632
0.00829667350367
0.0061584202903
0.00414881245744
0.00239484571786
0.00169165768782
0.00175234815144
0.00192359791633
0.00186846705459
0.00161373829282
0.00123271659517
0.000707685992902
1.60818878299
0.810541766373
0.402028557692
0.204542909912
0.10340267237
0.0518206325639
0.0279628783205
0.0168143123154
0.0112740709693
0.00826183808615
0.00615652731556
0.00416136417543
0.00239172689082
0.0016272104498
0.00164400567223
0.00181559942863
0.00178642535416
0.00159109286915
0.00126297482749
0.00081841312213
1.90939486992
0.954092251775
0.448609452084
0.218285814012
0.10584685737
0.0517553497382
0.0278340618565
0.0167647570571
0.0112713302247
0.00827192364664
0.0061768803692
0.00419629839158
0.00241332378442
0.00157267418133
0.00152403035538
0.00168057011622
0.00168406392187
0.00154853947413
0.00126666069285
0.000907273179024
2.6776753624
1.19305614648
0.50225660285
0.233731829777
0.111434523717
0.0545072373161
0.0293641619332
0.0175275851927
0.0116117312399
0.00844189241244
0.00629250474576
0.00430968336808
0.00249331034558
0.00154344826594
0.00140373955081
0.00152727041705
0.00156739771851
0.00149446140734
0.00126751678126
0.000978123697165
4.17092233011
1.55358195431
0.626784419561
0.283857908021
0.13422588987
0.0657211108189
0.0348760080526
0.0201129005703
0.0127605203267
0.00898044412672
0.00662083862617
0.00457419307972
0.00267998353465
0.00157009560582
0.00130628500442
0.00138004505271
0.001452331437
0.00144105008447
0.00127474279787
0.00103502421567
5.15757133831
1.94694328906
0.840659490569
0.389043088266
0.181352576929
0.0877319088019
0.0453745888343
0.0251077236942
0.0150537739698
0.0100548927374
0.00722778749051
0.0050189975467
0.00299732559105
0.00168015579133
0.00125457621913
0.00126538848174
0.00136017760297
0.00140305253563
0.00128980530838
0.00108179516259
5.20218887814
2.14669228552
0.9853823099
0.487665540379
0.246645665573
0.11939490669
0.0602172786354
0.0322803270729
0.0185173149989
0.0117087977447
0.00811270404816
0.00561376468565
0.00342528027956
0.00187881614101
0.00126176564352
0.00119843101256
0.00130673140121
0.0013914578417
0.00131714238805
0.00111268880415
4.873408826
2.1189446845
1.01094151727
0.519157513162
0.276438191104
0.142177214603
0.0737782467041
0.0399196510244
0.0226317593636
0.0138191438799
0.00922037822459
0.0062917863469
0.00391109962578
0.00214762973945
0.00133155166758
0.00118034097281
0.00129476283299
0.00141125672901
0.0013627003382
0.00115687936618
4.47144313926
1.98805758759
0.969904025599
0.511016331151
0.281986187879
0.151622316303
0.0818826868613
0.0455620164001
0.0261660203465
0.0158626593121
0.0103422008428
0.00694807327013
0.00435792627789
0.00242369717962
0.00144520301922
0.00120244639449
0.00131857750951
0.00146016441126
0.00142913961876
0.0012212741932
4.14448122427
1.84042569436
0.902011498174
0.479734634552
0.269191795678
0.149641446108
0.0841481823004
0.0483886280757
0.0284437853884
0.0174120618848
0.0112730463002
0.00748918600663
0.00470707567387
0.00265342534244
0.0015672284626
0.00125821222115
0.00136615482108
0.00153111101161
0.0015162020705
0.00131050413872
3.94779363881
1.71898019427
0.82670136118
0.435294859842
0.243759352312
0.140205407842
0.0818772663968
0.0485708109144
0.0293160116109
0.0182820404997
0.0118734539864
0.00783583029065
0.00492036399851
0.00281105348772
0.00167848805161
0.00133628502519
0.00143881988127
0.00161706164504
0.0016202934776
0.00142838350326
3.95356657542
1.64430712573
0.763288652398
0.393805451796
0.221594000964
0.129589248244
0.0772683677852
0.0469098046146
0.0290594573713
0.0185061156996
0.0120874265738
0.00794368665246
0.00498139375659
0.00288968229835
0.00176911591528
0.00142549857835
0.00152932382897
0.00171087235124
0.0017370283934
0.00157469733832
4.13782312346
1.63064524636
0.737578824554
0.377559266227
0.209291004854
0.120856460194
0.0721851431199
0.0444439558928
0.0281452210066
0.0182027643518
0.0119134842831
0.00780913925671
0.00489852465094
0.00289714567436
0.00183824597809
0.00151654845339
0.00162765282797
0.00180357748066
0.00186120600667
0.00173262525459
4.4562132874
1.67836306336
0.755603658623
0.379140663316
0.203231315909
0.114569469634
0.0677731039054
0.0419927845659
0.0268867659643
0.0174241897735
0.011393168693
0.00747669675914
0.0047080105809
0.00285006775323
0.0018893411642
0.00160285997957
0.00171198306571
0.00188890524681
0.00198308135968
0.00188860202516
4.78213863602
1.76318161594
0.789483442843
0.385685077833
0.201148006944
0.110788792011
0.0646472829731
0.039837764989
0.0252747692619
0.0162290917079
0.01065177717
0.0070376978884
0.00447260254162
0.00277855213515
0.00192373529157
0.00167410377771
0.00176946604197
0.00196907782182
0.0021039922277
0.00204383125756
4.79626185546
1.79955824635
0.804643620527
0.388563067626
0.199668493723
0.108344843563
0.0621530173114
0.0373898260664
0.0231731556911
0.0148362932446
0.00985809382442
0.00659446831952
0.00425275142803
0.00271629041755
0.00194634333865
0.00171930715863
0.00180698303135
0.00204218723841
0.00222593456273
0.00220536249628
4.51675783382
1.72897614866
0.784266530012
0.379467859139
0.194454705179
0.104410025765
0.0583920179904
0.0341047273516
0.0209009128403
0.0135297778157
0.00916274673446
0.00622999855567
0.00409221118827
0.00268296543073
0.00196392886516
0.00174084865021
0.00182734714986
0.00209898819349
0.0023440348702
0.00237293533968
4.07378653847
1.58258351658
0.725638182069
0.354232022397
0.181983181899
0.0966349160205
0.0531371462205
0.0307323624362
0.0189478546085
0.0125141774963
0.00865844929851
0.00599279073957
0.0040147070775
0.00268849141182
0.00198181124696
0.00174303878817
0.00183274095396
0.00212367083833
0.00244026164401
0.00253152620296
3.47174712613
1.35555660021
0.632072102657
0.316095656206
0.164491452626
0.0880133779984
0.048470280609
0.0280961777044
0.0175840337334
0.0118747826022
0.00837405356648
0.00589566726581
0.00403016128858
0.00274004275103
0.00200834322199
0.00172976133599
0.00180973972382
0.00209991032161
0.0024830496477
0.00266249270376
2.72370132585
1.11709353024
0.547905694749
0.285536901202
0.153256939559
0.0829042694589
0.0456432561573
0.0266468723761
0.0169373961985
0.0116179588648
0.00829020423331
0.0059124183053
0.00410799784356
0.00281747961958
0.00204068412764
0.00170743251377
0.00172660183046
0.0020193113439
0.00243750484525
0.00274310174779
2.18054795455
0.997257590548
0.522507676798
0.283458606296
0.154245218147
0.0830697333065
0.0452366353061
0.0263214309848
0.0168255296574
0.0115986340755
0.00831048087247
0.00596970637663
0.00419172515874
0.00288488648281
0.00205974652282
0.00167568760939
0.00161704387403
0.00186523093598
0.00228371332288
0.00272603144339
2.02330863292
1.053639868
0.575548497452
0.315668191655
0.168283026363
0.0876249950358
0.0467475569396
0.0270518519837
0.0172483163896
0.0118283427438
0.00843093351674
0.00605204915316
0.00425537846604
0.00291079660709
0.00203471424103
0.00160949136239
0.00149595461083
0.00162943183122
0.00203994046292
0.00256778574404
2.41209926056
1.31304522601
0.704817682393
0.368455973962
0.187569321104
0.095744396915
0.0511510069845
0.0296036383851
0.0186841933407
0.0125772384033
0.0088040441812
0.00624292903623
0.00434570379756
0.00291178297603
0.00196239588973
0.00149481780593
0.00135215540792
0.00140678341561
0.00172680087362
0.00228577227304
3.25694986612
1.70414343065
0.818561572684
0.399098458717
0.200749574569
0.105831135142
0.0586358403013
0.0342766780752
0.0214209582972
0.0140997903419
0.00961063999915
0.00667709451352
0.00456962590206
0.00296657829398
0.00189015123705
0.00136152220009
0.00119466743669
0.00121968436924
0.00142254742539
0.00196587190376
4.18422987361
1.89555677634
0.859750256003
0.41521257364
0.215958329338
0.119822406727
0.0685217194639
0.0402092038446
0.0249095121828
0.0161682007361
0.0108473461338
0.00742320667731
0.00502035460341
0.0031705131783
0.00189880084976
0.00127103708241
0.00106712453616
0.00107353523264
0.00122515620787
0.00167810878059
4.62705632546
1.95968765804
0.904019009992
0.448943798046
0.242135339197
0.139978438302
0.0805775198367
0.0470335704622
0.0288385127866
0.018500272353
0.0123127566193
0.0084103116532
0.00568969182212
0.00355601633563
0.00204378820359
0.00127428400934
0.00100809738452
0.000987215721604
0.00110760832245
0.00145115992113
4.69221145679
2.02171444204
0.970034812462
0.503050956247
0.281163794309
0.165939825485
0.0956619114243
0.0557611045372
0.0338253392553
0.0213663350934
0.014038496591
0.00956081667595
0.00649070982183
0.00407220707612
0.00231911435173
0.00138120112616
0.00102631445065
0.000963738313034
0.00105256109492
0.00132349049906
4.27822680078
1.98548020201
1.02350156821
0.563215955494
0.327369221712
0.19603740488
0.113799243497
0.0665255405028
0.0400618217609
0.0249390214754
0.0161343890538
0.0108635535423
0.00733534565809
0.00463056616788
0.00267277778224
0.00156865996336
0.00110837463264
0.000991615274322
0.00104679749986
0.0012648360135
3.37340799529
1.75997947218
0.998107566036
0.591495589467
0.362254572821
0.22370587947
0.1327384671
0.0784830621272
0.0472693449374
0.0291753453173
0.0186162250471
0.01231183262
0.00817348542207
0.00515728726197
0.00302826596874
0.00178536405346
0.00122501248413
0.00105155548366
0.00107368614128
0.00125256406608
2.67394654256
1.49233623815
0.899576877951
0.568014890676
0.369053724083
0.238727466384
0.147222290235
0.0893316895436
0.0545450348936
0.0337838395902
0.0214126224541
0.0138922509907
0.00901442232469
0.00566314391891
0.00337711849156
0.00201390285249
0.00136041287742
0.00113021626155
0.00111974453768
0.00126665443603
2.33175952366
1.27850543474
0.780428729345
0.513517726656
0.350888003591
0.237502981766
0.15323602729
0.0964570602957
0.0604324062141
0.0380242737165
0.0241741809483
0.0154796609489
0.00986818459395
0.00618233376634
0.00374011223901
0.00225972929624
0.0015125245828
0.00122293059771
0.0011784220505
0.00129592251491
2.20766837076
1.1581373887
0.685526039195
0.454422856968
0.319475451512
0.223985916578
0.150847510533
0.0987487008206
0.0638364073977
0.0410956779548
0.0264352612719
0.0169065085636
0.0107156421082
0.00673300757305
0.00413539251127
0.00253219416301
0.00168471987682
0.00132978943124
0.00124780850427
0.00133389823411
2.27672346553
1.13594598176
0.634417054019
0.406610434775
0.285560854091
0.204086396623
0.142284394097
0.0965524973729
0.0643889620589
0.0425127292547
0.027851225267
0.0180022122431
0.0114865479957
0.00729457469668
0.00455903523354
0.0028313316611
0.00187752835017
0.00145119272619
0.00132690171375
0.00137595665356
2.25550304058
1.06702612698
0.574085056118
0.35688670913
0.249242930605
0.180783697132
0.129559752474
0.0906361980527
0.0621796287449
0.0421187876448
0.0282279873176
0.0185977156922
0.0120653934331
0.00780166241186
0.00497636375592
0.00313927273236
0.00208253589865
0.00158278990048
0.00141164643406
0.00141618307885
2.20743730106
1.00951806853
0.524672498268
0.313947969187
0.214911058891
0.156585617046
0.114428925231
0.0820632794789
0.0577473812124
0.0401452975391
0.02760277263
0.0186125368617
0.0123481060832
0.00817307733623
0.00533452350859
0.0034247340384
0.00228163124978
0.00171426138499
0.0014867160301
0.00144989486784
2.30226142768
0.983113045163
0.484994374991
0.275998115623
0.183841499415
0.133661037471
0.0989844126237
0.0724372140717
0.0521960129174
0.0372662563045
0.0262817720255
0.0181088064457
0.0123070020608
0.00836104557977
0.0055929219624
0.00365822251337
0.00245498085767
0.0018236911469
0.00154130675551
0.00147340759646
2.57994480271
1.01649991601
0.466934374751
0.248343290054
0.159275941178
0.11474567226
0.0856414340551
0.0637319889743
0.046981137533
0.0343589536794
0.0246678806687
0.0172643931346
0.012019649952
0.00838365965877
0.00574466473453
0.00382542108692
0.002580059944
0.00189616775462
0.00158088450664
0.00148482462988
2.92007407242
1.0989307892
0.476929053486
0.236846752351
0.145040323908
0.102723821396
0.0767503912132
0.0577871216479
0.0433231692086
0.0320412687428
0.0230812729825
0.016362169058
0.0116468470611
0.00830805819851
0.0058057091561
0.00391843622216
0.00265417768454
0.00195133764737
0.00160491651787
0.00147999294198
3.08068311565
1.1744847548
0.499722160273
0.241013588623
0.142668007791
0.0989734420718
0.0734070254564
0.0553695649946
0.0415465029526
0.0305083362769
0.0219425488136
0.0157162157195
0.0113377890375
0.0081929614792
0.00580718968397
0.00397698143562
0.00271472231735
0.00198889622543
0.00160455192922
0.00144877239223
2.92880021909
1.19782220228
0.522324966861
0.256389375406
0.150872093158
0.102860371227
0.0752420518177
0.0561672158643
0.0416165309298
0.0302452599797
0.0216598215138
0.0155093048255
0.0112246847499
0.00816983907823
0.00586339252549
0.00406586758907
0.00276443147827
0.00199352091605
0.00156814492701
0.00138385893235
2.72458509207
1.20468630565
0.553498973102
0.283340440359
0.167639949774
0.113061763469
0.0817016930101
0.0602751732789
0.0440164879593
0.0314731723612
0.0222742963646
0.0158762414961
0.0114802046991
0.00837471474979
0.00604028775475
0.00420898067249
0.00281646416137
0.00195993456945
0.00149324593046
0.00128900802451
2.714700901
1.26164473251
0.612952238619
0.324179971377
0.191871167204
0.127238307935
0.0906913817141
0.0661778729764
0.0477685711424
0.0337977117733
0.0238294865505
0.0169656304113
0.0122070389864
0.00883257799353
0.00633687033573
0.00439312671607
0.00288998273399
0.00191273027179
0.00139878033007
0.00118595260308
2.75858867637
1.34744110042
0.686012259007
0.364841045471
0.212581574465
0.138675539145
0.0978599778564
0.0710595127198
0.0516955148638
0.0368807586995
0.026143816072
0.0185814143071
0.0132560757737
0.00947523620228
0.00673963059366
0.00463289975524
0.00298087940774
0.00188797699674
0.00132215607985
0.00110957309199
2.62307737227
1.27472002245
0.641053724694
0.343714266438
0.204555609681
0.13651809639
0.0987615172007
0.0740008508563
0.0551670507746
0.0397834087688
0.0282906218207
0.020053017728
0.0142076196916
0.0100912805443
0.00713960680352
0.00487719157154
0.00307736559281
0.00188684537662
0.00128424158772
0.00108251577268
2.40267626692
1.1161629383
0.555819291012
0.300470272884
0.183268458669
0.126867322101
0.0955700767564
0.074496874511
0.0574100277373
0.0417804109297
0.0295830016746
0.0208929782707
0.0147579012383
0.0104769553605
0.00742664471952
0.00505948054966
0.00315105950446
0.00190007406843
0.00128563780089
0.00110586289924
2.3094251352
1.04698091335
0.500761246955
0.262054801868
0.160406461075
0.114836183279
0.090070435164
0.0725786883828
0.0571469451544
0.0416927631804
0.0295648261549
0.0209253170722
0.0148343136999
0.0105963011362
0.00756340829653
0.00515335018073
0.00319276907355
0.00193150212573
0.0013315293788
0.0011780454789
2.44997220972
1.03407067645
0.45388234286
0.22226683066
0.135253207638
0.100329111905
0.0817374853825
0.0675350027163
0.053695653813
0.0392935191095
0.0281876651906
0.0201792971646
0.0144890374369
0.0104995703044
0.00758007898772
0.00518021782354
0.0032299215187
0.00200541506778
0.00142813922364
0.00129790368371
2.87996433011
1.08052030067
0.427134590769
0.19324333142
0.114603465094
0.0859366266067
0.071520276738
0.0595331731634
0.0473311965601
0.0352956228978
0.0259025430424
0.0189599713322
0.0139341996141
0.0103317825526
0.00757205362097
0.00520534405092
0.00331449810994
0.00214782699343
0.00158142933763
0.00145242182392
3.61174571758
1.32191058056
0.505816507367
0.209996384635
0.110799207217
0.0766297547221
0.0616891588853
0.0505518176178
0.0402463623833
0.0308655645566
0.0233818247767
0.0176775325057
0.0134274283588
0.0102398242742
0.0076145860385
0.00528021699287
0.00348596909179
0.00237231862767
0.00179489138943
0.00163160055603
4.09693233896
1.66065227762
0.667478230181
0.273213812413
0.129234363476
0.0772067740375
0.055654547011
0.0435277206385
0.0345627902747
0.027183599518
0.0213132383938
0.0167365894523
0.0131914957594
0.0103093618008
0.00772255331038
0.00543615748417
0.00376226505603
0.00268097471279
0.00206441355808
0.00182874318124
4.16536693192
1.87123056097
0.848747495324
0.366281529787
0.164620416085
0.0877375139934
0.0559386873198
0.0405778900939
0.0313685541876
0.024944462666