/*--------------------------------*- C++ -*----------------------------------*\
| =========                 |                                                 |
| \\      /  F ield         | OpenFOAM: The Open Source CFD Toolbox           |
|  \\    /   O peration     | Version:  2312                                  |
|   \\  /    A nd           | Website:  www.openfoam.com                      |
|    \\/     M anipulation  |                                                 |
\*---------------------------------------------------------------------------*/
FoamFile
{
    version     2.0;
    format      ascii;
    arch        "LSB;label=32;scalar=64";
    class       volScalarField;
    location    "0.37/water";
    object      Tf.gasAndLiquid;
}
// * * * * * * * * * * * * * * * * * * * * * * * * * * * * * * * * * * * * * //

dimensions      [0 0 0 1 0 0 0];

internalField   nonuniform List<scalar> 
6000
(
314.442940311
306.197448242
302.688332974
301.101526992
300.467275712
300.087924189
300.003381446
300.000018247
300.000000014
300
300
300
300
300
300
300
300
300
300
300
320.24474151
308.334310614
303.041588601
301.121406912
300.407694228
300.147667335
300.045890895
300.004897472
300.000068136
300.000000067
300
300
300
300
300
300
300
300
300
300
320.411489528
307.92695711
302.731531943
300.921832055
300.306097061
300.100790487
300.03271775
300.007987353
300.000541714
300.000005588
300.000000001
300
300
300
300
300
300
300
300
300
319.559968131
307.930731362
302.849165097
300.961043451
300.313680952
300.09925619
300.03008618
300.008743336
300.001399776
300.000051027
300.000000476
300
300
300
300
300
300
300
300
300
318.744856679
307.790753225
302.968544617
301.048537072
300.355151965
300.117001782
300.036229374
300.01031265
300.002793815
300.000247447
300.000005786
300.000000001
300
300
300
300
300
300
300
300
317.887740659
307.522959518
302.988537126
301.111874065
300.39531754
300.138139334
300.046166726
300.013735165
300.00373204
300.000715195
300.000031943
300.000000539
300
300
300
300
300
300
300
300
317.271588803
307.20224011
302.903046455
301.123461862
300.418411642
300.154304956
300.055652561
300.01790598
300.004919366
300.001327883
300.000140559
300.000003399
300
300
300
300
300
300
300
300
317.011196873
306.931007169
302.771711502
301.088487947
300.421362889
300.163246213
300.062813136
300.02185345
300.006165248
300.001581844
300.000362231
300.000015401
300.00000001
300
300
300
300
300
300
300
316.768033907
306.758608925
302.687976691
301.061944213
300.421265083
300.170097187
300.069114902
300.025683052
300.007512642
300.001793795
300.000479901
300.0000529
300.000000236
300
300
300
300
300
300
300
316.365241173
306.569728006
302.602026771
301.032763163
300.416662035
300.174058011
300.07435431
300.029700083
300.009261418
300.002085284
300.000482567
300.00011117
300.000002343
300.000000001
300
300
300
300
300
300
315.927867652
306.360803545
302.508168636
300.996326188
300.407742082
300.175777552
300.0788149
300.033752703
300.011532889
300.002636619
300.000517109
300.00013369
300.000009885
300.000000029
300
300
300
300
300
300
315.875756672
306.298481274
302.449667106
300.969750543
300.402994788
300.179854281
300.084708035
300.038641102
300.014464447
300.003539891
300.000616497
300.000128569
300.000024839
300.000000411
300
300
300
300
300
300
316.730884205
306.62039834
302.525213742
300.988541621
300.416051402
300.191739257
300.094045131
300.045069574
300.018197748
300.004873758
300.000805962
300.000138856
300.000032733
300.000002658
300.000000008
300
300
300
300
300
317.68161966
307.111086087
302.744970375
301.075245376
300.453846884
300.212227086
300.106575322
300.052778074
300.022523776
300.006577538
300.001102083
300.000165516
300.000033773
300.000009252
300.000000209
300
300
300
300
300
317.925984697
307.355895042
302.90893993
301.158377685
300.492790818
300.233007014
300.119151338
300.060385593
300.026781946
300.008390645
300.001477029
300.000205347
300.000037939
300.000010885
300.000001288
300.000000005
300
300
300
300
318.028652332
307.432280725
302.970962321
301.200676556
300.517822495
300.248650625
300.129625646
300.06700563
300.030413107
300.010027871
300.001873612
300.000253728
300.0000437
300.00001131
300.000003551
300.000000093
300
300
300
300
318.130045502
307.391449074
302.943801658
301.198377161
300.525181904
300.257466003
300.137078756
300.072237409
300.033219517
300.01134674
300.002248726
300.000306396
300.000050006
300.000011798
300.000003687
300.000000364
300.000000001
300
300
300
318.16799518
307.226226459
302.817106164
301.144317054
300.510943469
300.257738885
300.140668704
300.07534675
300.035062273
300.012330555
300.002586137
300.000358304
300.000055638
300.000012057
300.000003375
300.000000697
300.000000006
300
300
300
318.14250764
307.095384026
302.708603935
301.086345307
300.489719554
300.253344504
300.141389004
300.076587519
300.036117959
300.013096698
300.002907889
300.000408738
300.000059599
300.000011997
300.000003008
300.000000851
300.000000017
300
300
300
318.040675382
307.026253922
302.648085237
301.051127061
300.474679702
300.249135991
300.140943406
300.076860107
300.037069887
300.013904819
300.003278219
300.000466153
300.000062055
300.000011649
300.00000262
300.000000785
300.000000024
300
300
300
317.930117473
307.014738019
302.640713406
301.046558428
300.472231128
300.248349005
300.14078519
300.077628297
300.038467641
300.015037944
300.003832912
300.000552353
300.000064905
300.000011222
300.000002223
300.00000056
300.000000022
300
300
300
317.821522605
307.024385546
302.654505588
301.056403704
300.477390798
300.250338717
300.141902323
300.079521895
300.040435657
300.016750592
300.004662545
300.000690824
300.000071943
300.000010961
300.000001838
300.000000339
300.000000005
300
300
300
317.611296695
306.957036076
302.630236832
301.052006876
300.47775399
300.251034897
300.143596718
300.082067595
300.043210643
300.019050772
300.005788895
300.000890943
300.000082782
300.000011
300.000001526
300.000000162
300
300
300
300
316.894109146
306.795324522
302.618403162
301.046994536
300.472270571
300.249267249
300.145401588
300.085657104
300.04709579
300.022039243
300.007238576
300.001164995
300.000096927
300.000011291
300.000001352
300.000000059
300
300
300
300
316.114689653
306.5871957
302.58319832
301.03127315
300.461753591
300.247632374
300.149846219
300.091990716
300.052901444
300.026126236
300.009138559
300.001539253
300.000118931
300.000012152
300.000001416
300.000000028
300
300
300
300
315.94117765
306.510909496
302.570937991
301.031319762
300.464838503
300.255755158
300.160809662
300.102518382
300.061250495
300.031632876
300.011676301
300.00207079
300.00015766
300.000015216
300.000001762
300.000000053
300
300
300
300
316.569508942
306.740622876
302.667529429
301.084967392
300.50006404
300.279771582
300.179166004
300.117055227
300.072093579
300.038710621
300.015013436
300.002842066
300.000225519
300.000022177
300.00000276
300.000000153
300
300
300
300
317.951299248
307.228239031
302.842913209
301.179579247
300.558536382
300.314918632
300.202139418
300.133876263
300.084571346
300.047098146
300.019237619
300.003943723
300.000342026
300.000034829
300.000004763
300.000000394
300
300
300
300
318.740558292
307.707013393
303.091141876
301.30253238
300.624305538
300.352069795
300.225556483
300.150754247
300.097371942
300.056195873
300.024240539
300.00544011
300.000527858
300.000056518
300.000008303
300.000000892
300
300
300
300
318.955246959
307.979911091
303.274123945
301.400244908
300.67690528
300.382707544
300.245690377
300.165731273
300.109129747
300.065074127
300.029685855
300.007291783
300.000788624
300.00008904
300.000013814
300.000001691
300.000000002
300
300
300
319.075770557
308.104491567
303.379298972
301.461732341
300.711898113
300.404888186
300.26127047
300.177813189
300.118773827
300.072150025
300.034455981
300.009376728
300.00109867
300.000128891
300.000020601
300.000002723
300.000000157
300
300
300
319.161927021
308.132756392
303.406132374
301.485445046
300.729945166
300.418908594
300.272248211
300.18665666
300.125699611
300.076797963
300.037463891
300.011052762
300.001429146
300.000166064
300.00002728
300.000003781
300.000000324
300
300
300
319.220454814
308.012193962
303.323146439
301.458603264
300.727637026
300.423919888
300.278325869
300.191902761
300.12938799
300.07866902
300.038518127
300.011783025
300.001670863
300.000192066
300.000031503
300.000004422
300.000000417
300
300
300
319.178739727
307.911588634
303.240068078
301.420276198
300.715472224
300.422521207
300.280003026
300.193477962
300.129620695
300.077822558
300.037779228
300.011636531
300.001731752
300.000201544
300.000032514
300.000004541
300.000000371
300
300
300
319.156158726
307.838062989
303.174379609
301.384695189
300.699763608
300.417002781
300.27796222
300.191555472
300.126562862
300.074726281
300.035736583
300.010933788
300.001667903
300.000199533
300.000031713
300.000004479
300.000000276
300
300
300
319.096103994
307.786618124
303.124838845
301.356264742
300.685031792
300.409755081
300.273242911
300.186549679
300.120944876
300.070190084
300.033096041
300.010109895
300.001599997
300.000194553
300.000031133
300.000004359
300.000000157
300
300
300
319.071661964
307.705579684
303.058850767
301.322935952
300.669476114
300.401272483
300.266325086
300.178904577
300.11386392
300.065240725
300.030636056
300.009579133
300.001634901
300.00019852
300.000031304
300.000004317
300.000000044
300
300
300
318.979062561
307.536049922
302.936015483
301.265845152
300.646048156
300.389164455
300.256312855
300.169355246
300.106445655
300.060819693
300.028987038
300.009641978
300.001835003
300.000222605
300.000032651
300.0000044
300
300
300
300
318.920325431
307.516057137
302.900389855
301.233196948
300.625543964
300.375288123
300.244056232
300.159521212
300.100089283
300.057914474
300.028699781
300.010450952
300.002229319
300.000274902
300.000034269
300.000004378
300
300
300
300
318.905799106
307.636673418
302.942880177
301.23205955
300.612642085
300.361342625
300.23230355
300.151583808
300.096385445
300.057478324
300.030102241
300.011980824
300.002860913
300.000352618
300.000034016
300.000003845
300
300
300
300
318.315688481
307.534187325
302.922802718
301.219780164
300.597260504
300.347290466
300.223350654
300.147996264
300.096461646
300.059834505
300.033222175
300.014365872
300.003796906
300.000468196
300.000032355
300.000002813
300
300
300
300
316.886063248
307.012824423
302.772994639
301.168050338
300.569883305
300.33337303
300.219238586
300.149506768
300.101095686
300.065597814
300.038504687
300.017851667
300.005137643
300.000648339
300.000033509
300.000001846
300
300
300
300
315.649335718
306.508602464
302.6077724
301.10792553
300.544527961
300.325926561
300.223072009
300.158510659
300.11132833
300.075181818
300.046156338
300.022763632
300.007113703
300.000959759
300.000043709
300.000001437
300
300
300
300
315.20286108
306.37932713
302.612215952
301.128864831
300.560709897
300.341709284
300.240822441
300.176811434
300.127688974
300.088696554
300.056497578
300.029534109
300.010078787
300.001513933
300.000073522
300.000001722
300.000000139
300
300
300
315.426102781
306.487092269
302.727343451
301.215779561
300.628136278
300.388962779
300.274305955
300.203082816
300.148760562
300.105267265
300.06910489
300.038070321
300.014168593
300.002431493
300.000141549
300.000003324
300.000000484
300
300
300
316.229710742
306.751089034
302.843746238
301.304837136
300.704699449
300.447913554
300.316358401
300.23312979
300.171569549
300.122906385
300.082602398
300.047583393
300.019142793
300.003752609
300.000273927
300.000008737
300.000001063
300.000000019
300
300
317.370596321
307.130506429
302.981411768
301.380766118
300.757446014
300.490806183
300.351124214
300.259742557
300.192217416
300.139114317
300.09525849
300.056919963
300.024532813
300.005464876
300.000495571
300.000022693
300.000002494
300.000000124
300
300
318.375610783
307.484536816
303.109466568
301.434474596
300.789079105
300.514724742
300.372155753
300.277860679
300.207352465
300.151654351
300.105509483
300.064933138
300.029632351
300.007372826
300.000806144
300.00004984
300.000005554
300.000000407
300
300
318.691308
307.752692741
303.234439619
301.483895592
300.80940855
300.52731965
300.382876062
300.28807046
300.216731702
300.160059652
300.11286765
300.070945131
300.033853152
300.009256732
300.001183241
300.000089045
300.000010351
300.000000932
300
300
318.831998725
307.903798183
303.326203452
301.518351436
300.821111722
300.531970928
300.386640526
300.292462665
300.221646342
300.165555112
300.117888707
300.074857752
300.036550571
300.010749204
300.001586961
300.000136144
300.000016029
300.000001637
300
300
318.920324511
308.000974375
303.389125496
301.544176324
300.826060584
300.531319985
300.385635608
300.292797334
300.224036616
300.168911368
300.120957126
300.076964189
300.037824728
300.011565363
300.001888145
300.000185152
300.000021396
300.000002389
300
300
319.014558109
308.032665796
303.425963463
301.558658527
300.826517793
300.526926342
300.381544474
300.290987649
300.224742221
300.170619365
300.122397743
300.077501975
300.037909594
300.01178268
300.002039143
300.000220194
300.000025569
300.000003035
300
300
319.054031878
307.94406801
303.376387683
301.542831191
300.81659179
300.518722235
300.375518925
300.288083331
300.224253372
300.170939678
300.122340507
300.076623543
300.037021736
300.011524266
300.002050726
300.000235971
300.000028218
300.000003483
300
300
319.042865792
307.853732924
303.29846514
301.505772341
300.797971285
300.507377673
300.368597515
300.284634942
300.222815402
300.169980611
300.120851242
300.074466565
300.035342636
300.010897353
300.001948309
300.000235425
300.000029332
300.000003679
300
300
318.986963743
307.76146743
303.191035489
301.440637081
300.766470969
300.492254804
300.361125614
300.280772889
300.220523105
300.167839902
300.118004534
300.071173064
300.033029626
300.009975722
300.001771516
300.000226632
300.000028618
300.000003603
300
300
318.751403915
307.610293341
303.061098868
301.351653426
300.722585221
300.473512585
300.35312336
300.276631438
300.217653433
300.164774744
300.113977555
300.067000195
300.030271082
300.008871798
300.001591906
300.000219631
300.000026491
300.000003252
300
300
318.162347698
307.301859334
302.884410794
301.246025844
300.671089822
300.452740496
300.345273254
300.272868274
300.21481862
300.161238036
300.10916255
300.062418187
300.027330836
300.007873507
300.001495243
300.00022099
300.000024084
300.000002827
300
300
317.313166021
306.809980528
302.632588747
301.123148847
300.617340579
300.432819347
300.338925536
300.270659636
300.212744176
300.157769277
300.10427857
300.057912809
300.024699429
300.007399097
300.001532051
300.000231226
300.00002228
300.000002513
300
300
316.423154536
306.393254218
302.400369619
301.007313145
300.571284571
300.418359815
300.335848328
300.271171861
300.212112499
300.155213198
300.100401065
300.054260341
300.023243611
300.007531907
300.001681091
300.000248716
300.000021624
300.000002433
300
300
315.841028672
306.089140093
302.144113489
300.88491505
300.534912754
300.412005937
300.337636086
300.274440396
300.213790144
300.154742092
300.098645998
300.052803377
300.023314226
300.007987861
300.001891038
300.000276161
300.000022702
300.000002624
300
300
315.995101213
305.884339695
301.849270622
300.808703389
300.52488402
300.417331224
300.345494904
300.280900718
300.218206962
300.157174309
300.100048985
300.053870679
300.02431628
300.008617286
300.002134306
300.000318513
300.000026305
300.000003322
300
300
317.643634378
306.232585145
301.95162655
300.858721258
300.556252497
300.438263157
300.359957191
300.290956129
300.225143645
300.161924948
300.104001014
300.056669009
300.025906387
300.009358227
300.002409257
300.000376038
300.000032443
300.000004515
300.000000011
300
319.725802475
307.138069555
302.523741492
301.084962011
300.649904353
300.479003108
300.381046245
300.303984061
300.233429431
300.167126281
300.108207637
300.060231052
300.027935725
300.010210896
300.002689193
300.000442691
300.000041783
300.000006065
300.00000012
300
320.700530034
307.492963098
303.095191211
301.410949627
300.793133066
300.539373399
300.408955243
300.318899516
300.241355228
300.171318388
300.111510157
300.063559264
300.030076846
300.01111706
300.002953599
300.000517066
300.000055698
300.000008092
300.000000343
300
320.700244743
307.709375256
303.54422151
301.725485334
300.953500694
300.612833241
300.442742083
300.334735986
300.24784485
300.174198006
300.114046431
300.066521804
300.032307717
300.012073606
300.003250521
300.00060626
300.000075398
300.000010628
300.00000068
300
320.290147998
308.420835018
303.969365456
302.002340643
301.107144898
300.689525144
300.478518659
300.348691672
300.25213088
300.17591839
300.116123087
300.069297905
300.034711895
300.013351982
300.003674748
300.000731603
300.000104099
300.000013677
300.000001124
300
320.152414499
308.869411059
304.249164377
302.184842998
301.216527075
300.748432805
300.504633164
300.355888389
300.253132067
300.176538342
300.118051535
300.072172483
300.037438943
300.015077127
300.00434838
300.000925451
300.000147325
300.000017396
300.000001691
300
320.286342098
309.048893787
304.307049189
302.221763096
301.245558943
300.765381244
300.506434057
300.352673769
300.250294719
300.176411624
300.12031815
300.075706125
300.040914535
300.01745682
300.005429114
300.001244895
300.000218979
300.000025433
300.000002485
300
320.527832747
309.331146665
304.368864143
302.210317582
301.224722452
300.741911608
300.486640809
300.341050641
300.24550916
300.176847003
300.123977902
300.080832016
300.045929597
300.021005072
300.007164827
300.001815891
300.000358077
300.00004931
300.000003873
300
320.50817019
309.656371446
304.492089691
302.211273587
301.175138723
300.691488054
300.457558866
300.327089236
300.241905742
300.179740334
300.130370676
300.08873572
300.053535841
300.02660193
300.010106168
300.002901597
300.00066122
300.000116293
300.000012626
300.000000562
319.355073484
309.406247757
304.410048415
302.119523556
301.076531449
300.631143156
300.426953179
300.315741135
300.242367421
300.186792274
300.140929869
300.100704291
300.064994556
300.035480532
300.015237032
300.005036745
300.001348617
300.000299632
300.000052453
300.000005918
317.259719436
308.431658803
303.950474656
301.877568149
300.953537017
300.574581673
300.405275927
300.313021965
300.24978572
300.200115719
300.157271303
300.118190369
300.081677126
300.049140951
300.024010197
300.009198301
300.002878973
300.000779462
300.000192824
300.000041651
315.592632825
307.607447984
303.608589582
301.75536634
300.930689408
300.576751761
300.415018685
300.327359147
300.268627936
300.222281613
300.181368391
300.142505298
300.104613893
300.068623944
300.037786639
300.016667581
300.006076884
300.002007645
300.000610318
300.000169563
315.816971055
308.374345531
304.578621542
302.483720143
301.340774637
300.765811135
300.498146241
300.372488632
300.303392371
300.254910229
300.213221989
300.17303008
300.132822811
300.093170675
300.056603528
300.028568154
300.012175516
300.004578673
300.001562298
300.000490065
321.94749403
312.901089713
307.378539451
303.940244322
302.034410819
301.086465843
300.650681099
300.45446742
300.356957083
300.29652428
300.249088279
300.205283185
300.161975779
300.11921915
300.078627357
300.044381543
300.021123852
300.008677424
300.00318284
300.001067922
343.043925164
317.912121841
308.734730591
304.396041332
302.26889186
301.245895754
300.76491976
300.535093525
300.414132892
300.338790302
300.282309404
300.233284562
300.18701177
300.142144235
300.098985304
300.060158036
300.030878706
300.013498254
300.00518994
300.00180857
358.455259799
320.39550436
308.838198873
304.221084712
302.186858236
301.250392781
300.80475137
300.578665177
300.450836708
300.367710807
300.305262374
300.252184151
300.203504609
300.157316832
300.113011173
300.071728266
300.038521531
300.01748528
300.006903252
300.002447229
364.730655385
320.745817341
308.281312707
303.782202428
301.968942288
301.169816962
300.78756197
300.584053377
300.461492667
300.377998965
300.313877801
300.259403943
300.209985867
300.163571939
300.119122618
300.077003999
300.042104089
300.019370227
300.007697536
300.002726122
367.05099557
319.671105358
307.119343555
303.112173371
301.654010398
301.035103723
300.733099354
300.562887625
300.453247106
300.374166247
300.311081573
300.256948891
300.208008292
300.162215571
300.118214625
300.076210371
300.041416782
300.018887471
300.007410528
300.002576472
365.001868946
317.045970574
305.60796029
302.371381152
301.309136615
300.878606549
300.661100751
300.527980584
300.434157143
300.361247867
300.300744654
300.248038298
300.200307069
300.155529045
300.112090808
300.070738827
300.037471323
300.016619879
300.006325976
300.002125976
356.932869006
314.026436761
304.372225888
301.801659569
301.048500236
300.751878126
300.596365217
300.491876031
300.411091065
300.344243678
300.2867463
300.235903985
300.189555271
300.145559991
300.102367208
300.062391355
300.031796553
300.013525969
300.00492878
300.001585285
350.297460109
312.37050843
303.638949971
301.426028385
300.865328621
300.658554186
300.544221235
300.459564136
300.388788931
300.326900219
300.272055555
300.22285559
300.177343366
300.133331903
300.090681911
300.053193779
300.025983075
300.010554717
300.00367563
300.001161884
340.978877721
311.261066187
303.061897058
301.165509325
300.744509341
300.596197428
300.506632385
300.434225565
300.369706524
300.311082777
300.258001103
300.209530104
300.163871453
300.120046876
300.079318515
300.04513565
300.021371651
300.008430331
300.00293478
300.000990383
337.05902466
310.900103131
302.678899989
301.003902571
300.674059633
300.559048694
300.482143657
300.415565829
300.354058592
300.296890192
300.244215837
300.19560325
300.150332786
300.108267466
300.070541655
300.039790412
300.018918372
300.007671797
300.00286169
300.001086742
337.267033331
310.882749897
302.530736239
300.927453769
300.639394365
300.540254019
300.467385895
300.401800289
300.340477303
300.283413956
300.231039061
300.183338014
300.139882283
300.100458616
300.065732769
300.037901939
300.018788228
300.008116006
300.003314958
300.001419921
335.912880095
313.92714332
303.581220428
301.084512664
300.648184856
300.534791691
300.458386604
300.390858162
300.329263292
300.272619617
300.221368682
300.175447921
300.134366021
300.097456192
300.065346403
300.039360198
300.020684962
300.009633049
300.004319091
300.00205841
329.713489886
313.728519008
304.662716942
301.51243451
300.72717455
300.541961766
300.453898572
300.384237201
300.322486096
300.266742645
300.216974747
300.17320433
300.134351461
300.099652306
300.069514721
300.044045
300.024663059
300.012400211
300.006069114
300.003165922
322.991242635
311.339924114
304.537565979
301.694328667
300.792821855
300.552186913
300.453892728
300.382890701
300.321422938
300.266588061
300.218636699
300.176816399
300.139998005
300.107383327
300.078037731
300.052015524
300.030997684
300.016814966
300.008921936
300.005007095
318.168607726
309.003054114
303.93891147
301.626718635
300.806973713
300.562305899
300.460610951
300.388581211
300.327013672
300.273271984
300.226795686
300.186943733
300.152028027
300.120419366
300.090907217
300.063526523
300.040200742
300.023361247
300.013266214
300.007889657
315.736814661
307.74959148
303.624984707
301.679192305
300.900163213
300.61523097
300.488679492
300.407356193
300.343130005
300.289371415
300.243932989
300.205286625
300.170993972
300.138970507
300.108241674
300.07882961
300.052528606
300.032350424
300.019424701
300.012101477
315.813466012
308.187488079
304.435634641
302.429117456
301.363101395
300.835095768
300.582217162
300.453213978
300.375199147
300.318992164
300.273140733
300.23346733
300.197080249
300.162760327
300.129771775
300.097703668
300.067910135
300.043834064
300.027505199
300.017787991
320.391274925
311.566852049
306.717939085
303.838249718
302.158315959
301.230636305
300.760278456
300.538902538
300.430243543
300.366173659
300.315601273
300.270530933
300.229051554
300.190632032
300.154331648
300.119145661
300.08563774
300.057395673
300.037347668
300.024895597
332.820453673
315.301088541
307.977374975
304.375112607
302.481844739
301.448729652
300.904823675
300.637422541
300.504679761
300.425714222
300.364952971
300.311677234
300.26360967
300.220046409
300.179817294
300.141398422
300.104451543
300.072285448
300.048534129
300.033194568
344.677828147
317.067371856
307.839570364
304.06747783
302.318039377
301.418766741
300.943856389
300.696723723
300.561660296
300.475028639
300.407533277
300.348427378
300.295296472
300.247440101
300.203808486
300.162680446
300.12303151
300.08770216
300.060651122
300.042418417
348.691155483
316.333711752
306.745897286
303.383316376
301.985038284
301.293949337
300.922471298
300.716528388
300.592392356
300.506054415
300.436812686
300.37541926
300.320003702
300.270012966
300.224417896
300.181507126
300.140136275
300.102784323
300.07325443
300.052325232
344.627120201
313.134098303
304.939999455
302.519300308
301.605829777
301.142382806
300.876392323
300.714828399
300.606621939
300.524960624
300.456334803
300.394707718
300.338866075
300.288249896
300.241736213
300.197575212
300.154924258
300.116473274
300.085461779
300.06247383
338.925985354
310.856933054
303.678607697
301.900903754
301.315999913
301.01925475
300.834136164
300.708742156
300.614413315
300.537064574
300.469578191
300.408792806
300.353624698
300.303289748
300.256411729
300.211185668
300.167671539
300.128730508
300.096782417
300.072186257
336.59663342
310.39877426
303.219657396
301.605015503
301.151674442
300.942352063
300.806130287
300.703220285
300.618384297
300.544692349
300.478927386
300.41951535
300.365527007
300.315795772
300.268482229
300.222325706
300.178560612
300.139538395
300.106805919
300.080980693
330.755957118
311.880317079
303.928745694
301.708984547
301.118166318
300.910028541
300.790463949
300.69877086
300.620035498
300.549474032
300.485574273
300.427657109
300.374814825
300.325288642
300.277240738
300.230775236
300.187258406
300.148207678
300.114675395
300.088573633
324.390836991
311.121883587
304.404375514
301.949258097
301.17237538
300.910955529
300.784383109
300.694933251
300.619263341
300.551234944
300.489244029
300.432646932
300.38038679
300.330489247
300.282121622
300.235829987
300.192519767
300.153317522
300.120166696
300.09512823
319.938011538
309.317968284
304.126421003
301.978427901
301.197941747
300.913610378
300.779333738
300.689355563
300.615372588
300.549442136
300.489163654
300.43349736
300.381330424
300.331169296
300.28273501
300.236472347
300.193362534
300.155248062
300.124329721
300.09957232
317.251237888
307.785754906
303.57826924
301.820851852
301.153388364
300.895600764
300.76748897
300.679923174
300.607948692
300.543933529
300.485059131
300.42996774
300.377618372
300.327278522
300.278915521
300.233178362
300.191587301
300.156170685
300.126107021
300.100130802
315.889477365
306.809295766
302.974533089
301.537007637
301.049405001
300.858503922
300.751324108
300.670192206
300.600100636
300.53703199
300.478549102
300.423225844
300.370434067
300.320308462
300.27301899
300.229313019
300.190163557
300.155128365
300.123950554
300.096264377
315.461760923
306.431123229
302.351355504
301.271936672
300.968726183
300.835823299
300.74525825
300.668754431
300.599911498
300.53634158
300.47654467
300.419685444
300.365223539
300.315672826
300.269808651
300.227087949
300.187568206
300.151213066
300.118074667
300.088280819
318.423150649
307.011073656
302.325537109
301.249882805
300.968294855
300.849726987
300.763486427
300.686864332
300.6163113
300.550081159
300.486830059
300.426140459
300.368075539
300.316687669
300.2693341
300.22491863
300.183220223
300.144269114
300.108305534
300.075930054
329.560423643
309.777781372
303.839165679
301.800904086
301.136850261
300.919258937
300.806893417
300.721721964
300.646448472
300.575894316
300.507427674
300.440345982
300.377265928
300.321096652
300.269462625
300.221252709
300.17584957
300.133057702
300.093556752
300.059493871
340.479143787
313.620632325
305.701152351
302.779693037
301.627846759
301.134655303
300.900467195
300.768948321
300.679034962
300.60237757
300.528855009
300.456405869
300.387787023
300.325112071
300.267450062
300.21390889
300.163615318
300.116611534
300.074990579
300.042418081
346.228748664
316.485561939
307.264709882
303.644943011
302.077300237
301.363877593
301.020275696
300.83321637
300.710994306
300.621728573
300.543683495
300.468057335
300.394512379
300.325128477
300.260836454
300.201565471
300.146680299
300.096954069
300.056093708
300.027947631
349.341287427
318.038098038
308.126760608
304.131988099
302.344425237
301.501491205
301.084990287
300.862439927
300.72649828
300.628212411
300.546011623
300.468416636
300.392096957
300.318152919
300.248595083
300.184701293
300.126562956
300.076392353
300.039280958
300.017294894
348.718824203
318.378044853
308.409236831
304.305479332
302.436513962
301.54210772
301.096972385
300.860889903
300.720787883
300.620104943
300.536364858
300.457800999
300.380151762
300.303758992
300.230868508
300.163908913
300.104377213
300.056668211
300.025866682
300.010343985
342.283426075
317.508221654
308.234243463
304.232044628
302.387140738
301.503576962
301.065774943
300.836404986
300.700920516
300.602086867
300.518802882
300.440019083
300.361596424
300.283699479
300.208737385
300.14019419
300.081694999
300.039572824
300.016367052
300.006307142
336.758810022
315.945924179
307.63796828
303.94454081
302.231315653
301.413239631
301.010601752
300.80154196
300.67346917
300.578813589
300.497090051
300.418382083
300.339262801
300.260015307
300.183598536
300.115087705
300.060627086
300.026455533
300.010428132
300.004165301
336.696466966
315.012163993
306.955227389
303.552210775
302.018687203
301.296676171
300.944845457
300.760866636
300.643189012
300.553617807
300.473726695
300.395015218
300.314860096
300.233850545
300.156537307
300.090389228
300.043024254
300.017534654
300.007049749
300.003024208
337.249590665
314.576435846
306.39996772
303.175755687
301.809216859
301.185735489
300.885140234
300.720824227
300.613273947
300.52831239
300.449756957
300.37052275