/*--------------------------------*- C++ -*----------------------------------*\
| =========                 |                                                 |
| \\      /  F ield         | OpenFOAM: The Open Source CFD Toolbox           |
|  \\    /   O peration     | Version:  2312                                  |
|   \\  /    A nd           | Website:  www.openfoam.com                      |
|    \\/     M anipulation  |                                                 |
\*---------------------------------------------------------------------------*/
FoamFile
{
    version     2.0;
    format      ascii;
    arch        "LSB;label=32;scalar=64";
    class       volScalarField;
    location    "0.3/water";
    object      reactingEulerHtcModel(T.liquid);
}
// * * * * * * * * * * * * * * * * * * * * * * * * * * * * * * * * * * * * * //

dimensions      [1 0 -3 -1 0 0 0];

internalField   uniform 0;

boundaryField
{
    maxY
    {
        type            calculated;
        value           uniform 0;
    }
    symmetric
    {
        type            symmetry;
    }
    maxX
    {
        type            calculated;
        value           uniform 0;
    }
    minY
    {
        type            calculated;
        value           uniform 0;
    }
    emptyPatch
    {
        type            empty;
    }
    water_to_solid
    {
        type            calculated;
        value           nonuniform List<scalar> 
70
(
-66.0634935257
-60.5498805035
-60.6213581893
-61.2702021544
-63.5178332808
-69.465258384
-87.4741937353
-139.601430451
-206.528200886
-236.643872301
-250.303475001
-228.617743534
-218.314240136
-222.097333922
-215.64174492
-221.261116685
-214.734525089
-221.243395997
-214.405742848
-220.663584749
-214.880818586
-220.609539483
-216.855769555
-220.995514973
-219.441186768
-221.345901961
-225.984659174
-240.010571243
-248.35224009
-250.861690615
-250.502626068
-248.64490905
-246.071286288
-243.275864469
-240.723974202
-239.601826796
-240.460943264
-247.560586885
-229.883250346
-160.059601634
-144.964478069
-157.919021172
-142.674459741
-156.938929662
-144.341111825
-156.511843006
-147.490501941
-156.375011378
-150.822559476
-156.408848804
-155.151353437
-161.218026359
-195.284625546
-236.21725167
-249.586713583
-250.046424314
-249.920258547
-250.032642969
-250.323967875
-237.692093043
-238.351084735
-238.642795241
-238.909427122
-239.118563147
-239.272900721
-239.491254257
-240.091169703
-235.07863622
-243.832626692
-212.754337527
)
;
    }
}


// ************************************************************************* //
