/*--------------------------------*- C++ -*----------------------------------*\
| =========                 |                                                 |
| \\      /  F ield         | OpenFOAM: The Open Source CFD Toolbox           |
|  \\    /   O peration     | Version:  2312                                  |
|   \\  /    A nd           | Website:  www.openfoam.com                      |
|    \\/     M anipulation  |                                                 |
\*---------------------------------------------------------------------------*/
FoamFile
{
    version     2.0;
    format      ascii;
    arch        "LSB;label=32;scalar=64";
    class       volScalarField;
    location    "0.75/water";
    object      alpha.gas_0;
}
// * * * * * * * * * * * * * * * * * * * * * * * * * * * * * * * * * * * * * //

dimensions      [0 0 0 0 0 0 0];

internalField   nonuniform List<scalar> 
1503
(
0.16970262622
0.103491762278
0.0299655165878
0.00779816246064
0.00151623596764
0.00023834833993
3.00991347517e-05
2.3056471171e-06
5.45551549542e-08
5.1587818869e-10
2.76326248318e-12
1.14984854182e-14
1e-15
1e-15
1e-15
1e-15
1e-15
1e-15
1e-15
1e-15
0.613303650933
0.256326698592
0.107410569129
0.037288330036
0.0120518146086
0.00326942789507
0.000744531156467
0.000133013515316
1.37423509101e-05
3.34827439892e-07
1.29498934505e-09
2.26326466663e-12
3.76894701785e-15
1e-15
1e-15
1e-15
1e-15
1e-15
1e-15
1e-15
0.613304089033
0.33811802322
0.166178897525
0.0713411476928
0.0278838466958
0.00945975840269
0.00268537452169
0.000612430172776
9.32840154819e-05
5.20441568805e-06
3.11158847867e-08
4.67780350713e-11
5.26681086046e-14
1.00188630098e-15
1e-15
1e-15
1e-15
1e-15
1e-15
1e-15
0.613303650933
0.416372963352
0.240727835727
0.122329437595
0.0552682127732
0.02151651219
0.00697511305896
0.00182438135448
0.000345295499129
3.29154257614e-05
5.13686550188e-07
8.63844604281e-10
7.72715327734e-13
1.52631125609e-15
1e-15
1e-15
1e-15
1e-15
1e-15
1e-15
0.59719839433
0.46267917574
0.318917725995
0.193635898596
0.102752561393
0.0460544768092
0.0167953541074
0.00481476371247
0.00102133089916
0.000128548337551
4.78857513323e-06
1.19801995055e-08
9.07859278569e-12
6.90892557969e-15
1.00090657047e-15
1.00002362543e-15
1e-15
1e-15
1e-15
1e-15
0.568634375275
0.479761849053
0.378627444564
0.26994306481
0.169290675546
0.0898230072595
0.0384030589004
0.012501885365
0.0029150730108
0.000426000118229
2.59725494104e-05
1.6386666632e-07
1.31190006932e-10
7.42333677323e-14
1.03170326654e-15
1e-15
1e-15
1e-15
1e-15
1e-15
0.55466356377
0.489288321237
0.416285267821
0.332132441371
0.239596517241
0.149811423211
0.0771257740292
0.0303593038678
0.00832093559107
0.00140633977092
0.000113633331545
2.02994613734e-06
2.00524121531e-09
9.39185329239e-13
1.41768429245e-15
1.00057784488e-15
1.00049438568e-15
1.00047409788e-15
1.00046501637e-15
1.00041371085e-15
0.563503800968
0.498171388145
0.436278506637
0.372979203849
0.297066438858
0.212354399872
0.129875259374
0.0631574598645
0.0218191471435
0.00461386919743
0.000483578004215
1.64839387709e-05
3.48852499934e-08
1.46040306008e-11
7.02752998931e-15
1.00247840841e-15
1.0005339364e-15
1.00053751181e-15
1.0005320567e-15
1.00048206436e-15
0.570295199338
0.503488136261
0.453564217814
0.403682502404
0.341947629489
0.267605194106
0.186682750662
0.109432956539
0.048431946625
0.0137250842391
0.00200199426583
0.000110313140718
1.1283338104e-06
6.5723166657e-10
2.44712142231e-13
1.08968795593e-15
1.00059025554e-15
1.0005903613e-15
1.00058753301e-15
1.00054175373e-15
0.568663479509
0.506808456032
0.470109280934
0.431463502716
0.380108368702
0.314287325933
0.239616308675
0.161888466792
0.0892890351793
0.0344114423917
0.007351210979
0.000651682378795
1.59787420188e-05
2.43107829958e-08
9.66688793464e-12
4.67628286874e-15
1.00192313123e-15
1.00072255356e-15
1.00071899897e-15
1.00066771005e-15
0.572494082246
0.507652146665
0.482636727478
0.454263868698
0.411617272142
0.352883363073
0.284508500621
0.212298314843
0.139448816549
0.0707814534348
0.0220962475058
0.00313766857328
0.000142924929878
1.16678716119e-06
8.63975208915e-10
3.56393044601e-13
1.13062487222e-15
1.00157982774e-15
1.00131503694e-15
1.00093310512e-15
0.568962291346
0.505742999474
0.484094240125
0.461167442642
0.426623794061
0.377394778383
0.317614344447
0.255069135554
0.190386933954
0.119848278816
0.0518501818784
0.0113573955724
0.000891592519
1.69216427931e-05
2.88653638021e-08
1.63323524061e-11
7.87041400924e-15
1.00585157951e-15
1.00323546391e-15
1.00202955249e-15
0.57247564519
0.49966758489
0.479634035796
0.456859536823
0.423989893437
0.381068318587
0.334961607831
0.286296536467
0.233828787801
0.17043532313
0.0940374731288
0.0296873198359
0.00374136041342
0.000127602143913
6.72122977699e-07
6.42649398364e-10
3.3785020927e-13
1.1330893457e-15
1.0071613662e-15
1.00455647339e-15
0.568772127983
0.488280470934
0.470207004689
0.444837041942
0.412903398862
0.375984763749
0.34081456261
0.305979388027
0.265428677889
0.210858583391
0.136346806745
0.0569399001863
0.0106741102737
0.000587089380708
6.21911345327e-06
9.25394283117e-09
5.94499566782e-12
3.75342487183e-15
1.01187981306e-15
1.00767424424e-15
0.571420615927
0.47335078922
0.454977038938
0.425793189163
0.394296809318
0.365175446294
0.341439479207
0.317795216702
0.285231562597
0.237045724302
0.168903211271
0.0857902030171
0.0219206632388
0.00180037180077
3.12994769377e-05
6.89721019355e-08
5.48120321015e-11
2.93422824602e-14
1.02157548777e-15
1.00839440055e-15
0.568549648219
0.459513153839
0.438197594285
0.408811281729
0.381010183234
0.359298952679
0.343142326621
0.325731378876
0.297414768737
0.254337013982
0.193589592332
0.112323045936
0.0361946113411
0.00414747802493
0.000109032835587
4.14281436115e-07
3.94873423587e-10
2.08731773774e-13
1.07756024843e-15
1.00754940679e-15
0.569160994591
0.451696738513
0.427906507974
0.403974744854
0.380678552998
0.361435299261
0.348702318901
0.333815253467
0.308111869822
0.270986450775
0.218730647062
0.141060737515
0.0549759175018
0.00857143739294
0.000352333416479
2.71711686248e-06
2.27562821942e-09
6.99980025814e-13
1.12983969262e-15
1.00434986556e-15
0.567407229582
0.452791359459
0.428518000801
0.409370194953
0.390422263591
0.373839737616
0.361051692162
0.345228847615
0.322702146965
0.294099210075
0.252159051818
0.180861862619
0.0859101168142
0.0188760778301
0.00131446985089
2.13335619327e-05
1.60214877876e-08
1.18854754062e-12
1.06760705051e-15
1.00101617016e-15
0.552765838873
0.467239449462
0.452522238019
0.43971907422
0.421496070652
0.399792008344
0.379871816506
0.360805529484
0.342074180696
0.322280247168
0.292687212095
0.236958982859
0.142082562275
0.0460161930832
0.00552273908094
0.00017895517937
9.18768371303e-07
9.69660814884e-12
2.19364955516e-15
1.00004045749e-15
0.555009789022
0.51214714355
0.511622086754
0.498836149087
0.468884769493
0.432182851551
0.400745975103
0.375675540551
0.352797466003
0.332771185564
0.320794075635
0.298441345742
0.226140862036
0.106724454054
0.0215669135601
0.00131992496278
1.82266544747e-05
7.40823626546e-09
1.15598971432e-13
1.02688942148e-15
0.592131976688
0.570260945817
0.572833217516
0.557226779004
0.515965496581
0.46391031558
0.41937304929
0.384029527892
0.352492795522
0.329762778801
0.323190114034
0.323097510603
0.296567384072
0.194293938125
0.0637480336954
0.00708018938108
0.000199912104358
8.44193410548e-07
3.67462096736e-11
7.45190824461e-15
0.63359356926
0.597790006301
0.599681438651
0.587757643726
0.548793266509
0.489384110125
0.433048803702
0.386247973162
0.347649874427
0.318716216979
0.318033369438
0.322995908099
0.322894939362
0.264219448661
0.127799310724
0.0242705696172
0.00129124823423
1.44062271017e-05
2.58039647655e-09
4.4540638574e-13
0.638312917368
0.60189134789
0.601743290999
0.594380285261
0.560805963161
0.500968817937
0.437939520777
0.384147164408
0.335548638477
0.301937046253
0.304094395372
0.318808989415
0.322792373698
0.294242366111
0.182499507173
0.0530585524171
0.00480293739206
9.78664132873e-05
2.22534667769e-07
1.55520339605e-11
0.634726707912
0.601705862918
0.601596443436
0.596120856046
0.562867745101
0.502120613994
0.436221119889
0.373580926733
0.315381111909
0.296304890342
0.296386226514
0.305631834585
0.319835407639
0.30098283371
0.212683940971
0.0824141936776
0.0112446911611
0.000362691223829
1.94086747804e-06
7.26413864228e-10
0.639117394655
0.5981302204
0.60146661695
0.596014386981
0.561125753093
0.497844776271
0.425344760825
0.352059152518
0.298120782473
0.296386226514
0.295997992246
0.296413851373
0.307648488172
0.298979346109
0.22981723139
0.105301494913
0.0190457159006
0.000871865734821
7.35879818467e-06
7.56997355351e-09
0.635446470971
0.590539422476
0.601059160477
0.591603840538
0.55137807643
0.482178856823
0.401395390337
0.32333556407
0.296386226514
0.29585683393
0.296386226514
0.295771789054
0.296386226514
0.297591632965
0.245512612782
0.125051415739
0.027449011217
0.00164964048475
1.91794234501e-05
3.38551902595e-08
0.63985884327
0.580096700358
0.5924147908
0.578262252629
0.531194820029
0.455000446184
0.369576049946
0.300865213657
0.296045891786
0.296386226514
0.295271445648
0.296386226514
0.295713173008
0.307407475897
0.268793014921
0.14839901442
0.0384069292349
0.00297449255314
4.55276091003e-05
1.17458213552e-07
0.635446470971
0.567641832184
0.574644585164
0.555421951982
0.502205266036
0.421426863204
0.337152023886
0.296299389328
0.296386226514
0.295290925881
0.296386226514
0.29482599545
0.296386226514
0.344064249749
0.302432749097
0.181339264254
0.0567697891069
0.0058072511318
0.000117876786013
4.15085912191e-07
0.639752722036
0.55412619437
0.55537221778
0.527456904941
0.468106966402
0.387309529981
0.310823434448
0.296386226514
0.29549577329
0.296386226514
0.294563982942
0.296386226514
0.31928701415
0.359487878544
0.335641440507
0.229209137322
0.0877989420472
0.0118799399728
0.000326542596063
1.47857993764e-06
0.634983266085
0.54085758708
0.534827078134
0.496988132754
0.432563553836
0.356263667746
0.297311232959
0.295887128155
0.296386226514
0.294670619388
0.296386226514
0.294603857585
0.354759797835
0.360159027291
0.359487878544
0.27920614039
0.128708346098
0.0228867328866
0.000886880166096
5.365031393e-06
0.638581665658
0.52468615465
0.510510054856
0.465871144368
0.400387542827
0.332418919707
0.296246453742
0.296386226514
0.294956359369
0.296386226514
0.294561243981
0.32481368855
0.360240717131
0.359487878544
0.359842682003
0.310175150688
0.169436835997
0.0392985953557
0.00220204534021
1.8847282033e-05
0.634679951409
0.501971479838
0.478937439132
0.43408814128
0.376743728935
0.321768571446
0.296386226514
0.295347974211
0.296386226514
0.294561243981
0.303016709572
0.359274085577
0.359487878544
0.360067295573
0.359487878544
0.326461706147
0.203153064404
0.0602049442159
0.0048699331905
6.05969765462e-05
0.635883250416
0.469439837826
0.440849546828
0.404273633321
0.364020888821
0.321946207834
0.295971312574
0.296386226514
0.296736519782
0.309326187319
0.340337632761
0.359487878544
0.359858340332
0.359487878544
0.359635256555
0.334418072117
0.231000791619
0.0854346651829
0.00972575895062
0.000175517595506
0.626592365215
0.431938736253
0.417436768056
0.395652560459
0.365383413535
0.333523910228
0.318420427463
0.323048807357
0.33035675548
0.332263962329
0.336592862041
0.343773467897
0.353285082747
0.359026629625
0.359487878544
0.340225111953
0.25900230304
0.11713431243
0.0179927777489
0.000469169230895
0.566673789571
0.416584650839
0.416152384874
0.404672484042
0.381404751636
0.360533165881
0.355515726766
0.350298197696
0.338001921828
0.323636054865
0.310191100749
0.31185097497
0.329637025047
0.345377116729
0.352001035229
0.353499274955
0.301253309424
0.162524653397
0.0325113110397
0.00124764130392
0.485342741135
0.420228001301
0.443384840916
0.442959565853
0.41085606378
0.380936625461
0.364390368774
0.347280477893
0.324166748273
0.295682678294
0.278147937345
0.280762434968
0.297253291532
0.318277955268
0.343864620406
0.368297953043
0.353536500761
0.223771035479
0.0602300524046
0.00366133600244
0.484243372378
0.487068455047
0.52061222676
0.505883243811
0.440605098691
0.389700291413
0.360363467958
0.332792664563
0.298939331017
0.269369740386
0.257523244478
0.258430072459
0.269968226217
0.293573559831
0.339842283771
0.37233257874
0.373470903614
0.283985378109
0.109019429364
0.0112575722675
0.538465387684
0.623633261863
0.605664434868
0.577770624232
0.493675022988
0.412487908704
0.362079962138
0.326799413419
0.29001422338
0.25880947224
0.244953307494
0.243254820986
0.250842131819
0.274867137651
0.334099525726
0.373200973097
0.373695535174
0.329783473221
0.17270611742
0.030616335826
1e-15
1e-15
1e-15
1e-15
1e-15
1e-15
1e-15
1e-15
1e-15
1e-15
1e-15
1e-15
1e-15
1e-15
1e-15
1e-15
1e-15
1e-15
1e-15
1e-15
1e-15
1e-15
1e-15
1e-15
1e-15
1e-15
1e-15
1e-15
1e-15
1e-15
1e-15
1e-15
1e-15
1e-15
1e-15
1e-15
1e-15
1e-15
1e-15
1e-15
1e-15
1e-15
1e-15
1e-15
1e-15
1e-15
1e-15
1e-15
1e-15
1e-15
1e-15
1e-15
1e-15
1e-15
1e-15
1e-15
1e-15
1e-15
1e-15
1e-15
1e-15
1e-15
1e-15
1e-15
1e-15
1e-15
1e-15
1e-15
1e-15
1e-15
1e-15
1e-15
1e-15
1e-15
1e-15
1e-15
1e-15
1e-15
1e-15
1e-15
1e-15
1e-15
1e-15
1e-15
1e-15
1e-15
1e-15
1e-15
1e-15
1e-15
1e-15
1e-15
1e-15
1e-15
1e-15
1.00007894462e-15
1.00284657824e-15
1e-15
1e-15
1e-15
1e-15
1e-15
1e-15
1e-15
1e-15
1e-15
1e-15
1e-15
1e-15
1e-15
1e-15
1e-15
1e-15
1e-15
1e-15
1.00018211117e-15
1.0031002116e-15
1e-15
1e-15
1.03099456209e-15
1.00042974566e-15
1.00051866763e-15
1.00055977587e-15
1.00059281137e-15
1.00063584783e-15
1.00068109095e-15
1.0007452985e-15
1.00083306539e-15
1.00101621718e-15
1.00116655246e-15
1.00113478702e-15
1.00078449506e-15
1.00048970936e-15
1.00035014262e-15
1.0006454023e-15
1.00315810015e-15
1.00312915587e-15
1e-15
1e-15
1.07386056133e-15
1.00051065816e-15
1.00061930379e-15
1.00067386132e-15
1.00071967355e-15
1.00077956061e-15
1.00093973229e-15
1.00120211571e-15
1.00150901896e-15
1.0041737371e-15
1.00215047148e-15
1.00203092302e-15
1.00122684316e-15
1.0005533057e-15
1.00053339489e-15
1.00328944113e-15
1.00810298951e-15
1.00062632029e-15
1e-15
1e-15
1.11373774801e-15
1.00057688433e-15
1.00068723054e-15
1.00079942638e-15
1.00094867021e-15
1.00116692596e-15
1.00146209366e-15
1.00185055688e-15
1.00467929224e-15
1.00602907702e-15
1.00285354192e-15
1.00246022391e-15
1.00146242446e-15
1.00060073749e-15
1.00087954393e-15
1.01001691015e-15
1.0096717041e-15
1e-15
1e-15
1e-15
1.1511574355e-15
1.00069513741e-15
1.00097858044e-15
1.00122685087e-15
1.00144941901e-15
1.00172174759e-15
1.00201814615e-15
1.00247707672e-15
1.00602507012e-15
1.00550734234e-15
1.0054704101e-15
1.0026946889e-15
1.00147185672e-15
1.00070703757e-15
1.00190310413e-15
1.0102375962e-15
1.00884086541e-15
1e-15
1e-15
1e-15
1.18450167217e-15
1.0010206563e-15
1.00162570448e-15
1.00185325809e-15
1.00201558346e-15
1.00224102234e-15
1.00257890762e-15
1.00536421772e-15
1.00550734234e-15
1.00602486094e-15
1.00550734234e-15
1.00322624695e-15
1.00152562815e-15
1.00099146671e-15
1.00345209873e-15
1.01001691015e-15
1.00681506017e-15
1e-15
1.00033703821e-15
1e-15
1.21318126748e-15
1.00201593981e-15
1.00281007389e-15
1.00280498978e-15
1.00288235929e-15
1.00316069701e-15
1.00433980435e-15
1.00550734234e-15
1.00595728115e-15
1.00550734234e-15
1.0058887627e-15
1.00424133265e-15
1.00170193566e-15
1.00177716554e-15
1.00810930182e-15
1.0101294937e-15
1.00307373852e-15
1e-15
1.00082716583e-15
1e-15
1.23725429347e-15
1.00395630158e-15
1.00462715508e-15
1.00449685068e-15
1.00443159501e-15
1.00474949047e-15
1.00550734234e-15
1.00578587326e-15
1.00550734234e-15
1.00584584226e-15
1.00550734234e-15
1.00478177027e-15
1.00198496e-15
1.0030777366e-15
1.01009272544e-15
1.01001734563e-15
1.00006406984e-15
1e-15
1.0011397376e-15
1e-15
1.25807436223e-15
1.00618344063e-15
1.00604792534e-15
1.00566403681e-15
1.00536415782e-15
1.00550734234e-15
1.00567261047e-15
1.00550734234e-15
1.00575581838e-15
1.00550734234e-15
1.0057220067e-15
1.00474059467e-15
1.00228938113e-15
1.00415397266e-15
1.01001734563e-15
1.00872655571e-15
1e-15
1.00018559597e-15
1.0030367008e-15
1e-15
1.27668458591e-15
1.00660914971e-15
1.00605249383e-15
1.00553731332e-15
1.00517427249e-15
1.00525346378e-15
1.00550734234e-15
1.00556710533e-15
1.00550734234e-15
1.00570482005e-15
1.00550734234e-15
1.00430847742e-15
1.00252255829e-15
1.00490528966e-15
1.01004857475e-15
1.00553454968e-15
1e-15
1.0003933824e-15
1.01945474455e-15
1e-15
1.29352375162e-15
1.00592249118e-15
1.00514514457e-15
1.00449821583e-15
1.00409866302e-15
1.00407812741e-15
1.00444678745e-15
1.00550729255e-15
1.00560824267e-15
1.00550734234e-15
1.00555056773e-15
1.00324801384e-15
1.00285251252e-15
1.0092685121e-15
1.01001480926e-15
1.00069545381e-15
1e-15
1.00062465368e-15
1.01856600574e-15
1e-15
1.30899411232e-15
1.00346941983e-15
1.00272058714e-15
1.00226375705e-15
1.00197790909e-15
1.00187295968e-15
1.00215604954e-15
1.00397372599e-15
1.00550734234e-15
1.00554458381e-15
1.00461608453e-15
1.00267791585e-15
1.00328090194e-15
1.00924636695e-15
1.00887448143e-15
1e-15
1e-15
1.00058744802e-15
1.01951123474e-15
1e-15
1.32377460208e-15
1.00099212772e-15
1.00082505749e-15
1.00076430143e-15
1.00071950111e-15
1.00069333134e-15
1.00074321174e-15
1.00210098277e-15
1.0040851116e-15
1.00429238305e-15
1.00312167829e-15
1.00247790798e-15
1.0037436004e-15
1.00919851568e-15
1.00611921711e-15
1e-15
1e-15
1.00049650541e-15
1.01856600574e-15
1e-15
1.33852310391e-15
1.00004919864e-15
1.00008842159e-15
1.00014605503e-15
1.00019648126e-15
1.00023668724e-15
1.00027948263e-15
1.00100862325e-15
1.00256041023e-15
1.00296151272e-15
1.00245501508e-15
1.00241751957e-15
1.00479722263e-15
1.00911892185e-15
1.00209086601e-15
1e-15
1e-15
1.00041078886e-15
1.01946273261e-15
1e-15
1.35355765752e-15
1e-15
1e-15
1e-15
1e-15
1.00000324814e-15
1.00004455867e-15
1.00101324112e-15
1.00237833717e-15
1.00284603543e-15
1.00261743133e-15
1.00243090594e-15
1.00693216555e-15
1.00878025278e-15
1e-15
1e-15
1e-15
1.00039194265e-15
1.01856600574e-15
1e-15
1.3689143693e-15
1e-15
1e-15
1e-15
1e-15
1e-15
1.00006440034e-15
1.01410170564e-15
1.00688619494e-15
1.00371588124e-15
1.00394570678e-15
1.00440601904e-15
1.00980905499e-15
1.00779613981e-15
1e-15
1e-15
1e-15
1.00044710638e-15
1.01935595954e-15
1e-15
1.38466142021e-15
1e-15
1e-15
1e-15
1e-15
1.00039404917e-15
1.01330766698e-15
1.02345094245e-15
1.02440357777e-15
1.0065606179e-15
1.00704838169e-15
1.0091006831e-15
1.01243163569e-15
1.00680072831e-15
1e-15
1e-15
1.00000128643e-15
1.00060266444e-15
1.01856600574e-15
1e-15
1.40100541654e-15
1.13437422432e-15
1.00041712857e-15
1.00286403463e-15
1.00356819684e-15
1.00729064927e-15
1.02345068873e-15
1.02464722684e-15
1.02345094245e-15
1.01311596849e-15
1.01142131949e-15
1.01414402043e-15
1.01436018308e-15
1.00600120656e-15
1e-15
1e-15
1.00010530054e-15
1.00120005542e-15
1.01923656774e-15
1e-15
1.4180532437e-15
6.55857450636e-15
1.01230558172e-15
1.01739163194e-15
1.01744179011e-15
1.02129672914e-15
1.02466973703e-15
1.02345094245e-15
1.02453408762e-15
1.02345013203e-15
1.01570816183e-15
1.01733847385e-15
1.01526445831e-15
1.00533828635e-15
1e-15
1e-15
1.00029743681e-15
1.00235926295e-15
1.01856600574e-15
1.00051642196e-15
1.4355439249e-15
1.55246099343e-13
1e-15
1.01593510627e-15
1.0229672925e-15
1.02419657401e-15
1.02345094245e-15
1.02464644468e-15
1.02345094245e-15
1.02419277327e-15
1.01875462968e-15
1.01902536843e-15
1.0152720358e-15
1.00419742858e-15
1.00001929291e-15
1.00025405341e-15
1.0005499473e-15
1.00338538752e-15
1.01909064421e-15
1.00118011199e-15
1.45299150492e-15
1.60046704047e-12
1e-15
1e-15
1.0216562327e-15
1.02345094245e-15
1.02465789675e-15
1.02345094245e-15
1.02448704395e-15
1.02345094245e-15
1.02057959871e-15
1.01990869542e-15
1.01465051897e-15
1.00205417278e-15
1.00029303394e-15
1.00051114486e-15
1.00083594407e-15
1.00411345978e-15
1.01856600574e-15
1.00233507411e-15
1.47007406374e-15
1.05095932212e-11
1e-15
1e-15
1.01395969725e-15
1.02392762473e-15
1.02345094245e-15
1.02454510506e-15
1.02345094245e-15
1.02412591096e-15
1.02151966704e-15
1.01985313883e-15
1.01255331052e-15
1.00087180034e-15
1.00053974886e-15
1.00074942041e-15
1.00110022973e-15
1.00445716177e-15
1.018994807e-15
1.00350072875e-15
1.48691852554e-15
5.99361718155e-11
1e-15
1e-15
1e-15
1.02345094245e-15
1.02448203442e-15
1.02345094245e-15
1.02441375258e-15
1.02345094245e-15
1.02203227851e-15
1.01850610438e-15
1.00830224644e-15
1.00080689844e-15
1.00073188608e-15
1.00091895444e-15
1.00129883187e-15
1.00444334429e-15
1.01856600574e-15
1.00365104687e-15
1.50393598031e-15
3.21030268753e-10
1e-15
1e-15
1e-15
1.02356393358e-15
1.02345094245e-15
1.02434608628e-15
1.02345094245e-15
1.02397874462e-15
1.02250755241e-15
1.01512523971e-15
1.00369278062e-15
1.00079717541e-15
1.00078730303e-15
1.00095605246e-15
1.00143764677e-15
1.00404369974e-15
1.01877348685e-15
1.0033760895e-15
1.52147038216e-15
1.8920512977e-09
1e-15
1e-15
1e-15
1.02246836938e-15
1.0241457081e-15
1.02345094245e-15
1.02415138275e-15
1.02345094245e-15
1.02229229714e-15
1.01015160728e-15
1.00156408752e-15
1.00070612804e-15
1.00069679426e-15
1.0008544751e-15
1.00134024337e-15
1.00336646956e-15
1.01856600574e-15
1.00278707309e-15
1.53941421307e-15
1.06350139354e-08
1e-15
1e-15
1e-15
1.02122110996e-15
1.02345094245e-15
1.02393404958e-15
1.02345094245e-15
1.02371744088e-15
1.02089107336e-15
1.00530230985e-15
1.00079457655e-15
1.00045944749e-15
1.00044157589e-15
1.0005569337e-15
1.00098515377e-15
1.00264960615e-15
1.01578430071e-15
1.00197452856e-15
1.55708857277e-15
4.38360985586e-08
1e-15
1e-15
1e-15
1.01899002685e-15
1.0236280012e-15
1.02345094245e-15
1.02376350017e-15
1.02345094245e-15
1.01721622759e-15
1.00212473652e-15
1.0003271126e-15
1.00018966523e-15
1.00017760763e-15
1.00023945108e-15
1.00047877696e-15
1.00173852983e-15
1.0116753501e-15
1.0010371906e-15
1.57337385803e-15
1.5052322635e-07
1e-15
1e-15
1e-15
1.01455971884e-15
1.02111562801e-15
1.02359397135e-15
1.02345094245e-15
1.02212451458e-15
1.0096243152e-15
1.00044959808e-15
1.00005846606e-15
1.00001150971e-15
1.00000852091e-15
1.00002861257e-15
1.00013169855e-15
1.00067188463e-15
1.00791879082e-15
1.00033020701e-15
1.58792608319e-15
6.54126892366e-07
1e-15
1e-15
1e-15
1.00786558692e-15
1.0142520986e-15
1.0183388461e-15
1.01908883639e-15
1.01379738117e-15
1.00175143113e-15
1.00001200908e-15
1e-15
1e-15
1e-15
1e-15
1e-15
1.00013395499e-15
1.00490744927e-15
1.00000492712e-15
1.60088664552e-15
4.05578379574e-06
1e-15
1e-15
1e-15
1.00219361298e-15
1.00628724744e-15
1.01082605624e-15
1.01035919077e-15
1.00283473015e-15
1.00001356618e-15
1e-15
1e-15
1e-15
1e-15
1e-15
1e-15
1e-15
1.00335085423e-15
1e-15
1.61257423571e-15
2.97046525306e-05
5.45035839304e-09
1e-15
1e-15
1.00020196118e-15
1.00084221961e-15
1.00242122088e-15
1.00121204666e-15
1.00000099579e-15
1e-15
1e-15
1e-15
1e-15
1e-15
1e-15
1e-15
1e-15
1.0034309269e-15
1e-15
1.62416778156e-15
0.000201493747951
2.37085716974e-07
1e-15
1e-15
1e-15
1e-15
1e-15
1e-15
1e-15
1e-15
1e-15
1e-15
1e-15
1e-15
1e-15
1e-15
1e-15
1.00583137553e-15
1e-15
1.63682167963e-15
0.00110133567611
4.54268369506e-06
1.00041278004e-15
)
;

boundaryField
{
    emptyPatch
    {
        type            empty;
    }
    minY
    {
        type            fixedValue;
        value           uniform 1e-15;
    }
    maxY
    {
        type            inletOutlet;
        phi             phi.gas;
        inletValue      nonuniform List<scalar> 0();
        value           nonuniform List<scalar> 0();
    }
    water_to_cooler
    {
        type            zeroGradient;
    }
    water_to_heater
    {
        type            zeroGradient;
    }
    procBoundary2to3
    {
        type            processor;
        value           nonuniform List<scalar> 
41
(
0.695684714102
0.715082498301
0.674689718995
0.652346207208
0.594790854306
0.496800639325
0.401964140383
0.34146658405
0.295674703593
0.258468895336
0.238522663052
0.236444226067
0.238851384964
0.256791991503
0.320093445847
0.372446328921
0.373802936889
0.35694509074
0.231019622288
0.0652505076411
1e-15
1e-15
1e-15
1e-15
1e-15
1e-15
1e-15
1e-15
1e-15
1e-15
1e-15
1e-15
1e-15
1e-15
1.01092869646e-15
1.01056912738e-15
1.64911560409e-15
0.00459851499444
4.77365757507e-05
1e-15
1.09741888228e-15
)
;
    }
}


// ************************************************************************* //
