/*--------------------------------*- C++ -*----------------------------------*\
| =========                 |                                                 |
| \\      /  F ield         | OpenFOAM: The Open Source CFD Toolbox           |
|  \\    /   O peration     | Version:  2312                                  |
|   \\  /    A nd           | Website:  www.openfoam.com                      |
|    \\/     M anipulation  |                                                 |
\*---------------------------------------------------------------------------*/
FoamFile
{
    version     2.0;
    format      ascii;
    arch        "LSB;label=32;scalar=64";
    class       volScalarField;
    location    "0.555/water";
    object      alphat.gas;
}
// * * * * * * * * * * * * * * * * * * * * * * * * * * * * * * * * * * * * * //

dimensions      [1 -1 -1 0 0 0 0];

internalField   nonuniform List<scalar> 
1496
(
2.70700257627e-06
3.13165232755e-06
3.11377826013e-06
2.86400697403e-06
2.54060000042e-06
2.20932850383e-06
1.88820379717e-06
1.57866745775e-06
1.30063959851e-06
1.08606677457e-06
9.45589726014e-07
8.67851028449e-07
8.16274089465e-07
7.48862513367e-07
6.43209737952e-07
4.97543787197e-07
3.22459666339e-07
1.55995379854e-07
6.00374194708e-08
2.6357763736e-08
2.15979218906e-06
2.98638702758e-06
3.14975605191e-06
2.97163468418e-06
2.68078171113e-06
2.37739813619e-06
2.07706638945e-06
1.75248743412e-06
1.4255756151e-06
1.15657015374e-06
9.71612581683e-07
8.75701309367e-07
8.32167855526e-07
7.80120604154e-07
6.87112816481e-07
5.5177591082e-07
3.83490340812e-07
2.11993944472e-07
9.90488578061e-08
4.78368553338e-08
1.90599438091e-06
2.86283064015e-06
3.14704069421e-06
3.01637041361e-06
2.7502674017e-06
2.4730322125e-06
2.20102308548e-06
1.90365966405e-06
1.56846406813e-06
1.24963403286e-06
1.01662727197e-06
8.93198537719e-07
8.52187237963e-07
8.19248656488e-07
7.46078299587e-07
6.28603291227e-07
4.75160213467e-07
3.02119833938e-07
1.64219100499e-07
8.79187115254e-08
1.77576533525e-06
2.74791139196e-06
3.09748720171e-06
3.00939107671e-06
2.77299984883e-06
2.52149482311e-06
2.27291589015e-06
1.99586128727e-06
1.67291891205e-06
1.34348159582e-06
1.06943888899e-06
9.15180313665e-07
8.71070082902e-07
8.57432535373e-07
8.07875274103e-07
7.12352531802e-07
5.79595787791e-07
4.16394880081e-07
2.57607929003e-07
1.52781081055e-07
1.67698936364e-06
2.64606598302e-06
3.02783363578e-06
2.96904838178e-06
2.75942970019e-06
2.53026095747e-06
2.29973820209e-06
2.03567895925e-06
1.72235635821e-06
1.39711635375e-06
1.11551960307e-06
9.39799895316e-07
8.88491764443e-07
8.90688041951e-07
8.64706569289e-07
7.91677120648e-07
6.80807772304e-07
5.36148910034e-07
3.70655107286e-07
2.43219159087e-07
1.59612898084e-06
2.56826098719e-06
2.96548039063e-06
2.91666782882e-06
2.71780776848e-06
2.50047433034e-06
2.28091781814e-06
2.02522263781e-06
1.72247907559e-06
1.41043742513e-06
1.13951592028e-06
9.63448694451e-07
9.08380451036e-07
9.20450726364e-07
9.14200194578e-07
8.61103707392e-07
7.69576798769e-07
6.44700680024e-07
4.8572826559e-07
3.49154053995e-07
1.51136453606e-06
2.49376161162e-06
2.91879047252e-06
2.86580138261e-06
2.65583628645e-06
2.43377748452e-06
2.2150416054e-06
1.96482775513e-06
1.67777658602e-06
1.38973215684e-06
1.14379131071e-06
9.84242275578e-07
9.35089427413e-07
9.5205734677e-07
9.58075011479e-07
9.19744775677e-07
8.42961758712e-07
7.34177081122e-07
5.86760575291e-07
4.52569561315e-07
1.42273976675e-06
2.41541713297e-06
2.8884867376e-06
2.81130705743e-06
2.566778964e-06
2.32967160394e-06
2.10655914074e-06
1.86252796863e-06
1.59915302145e-06
1.34642257984e-06
1.13664395641e-06
1.00578122492e-06
9.70583869699e-07
9.90450113084e-07
1.00013319669e-06
9.69431210104e-07
9.02100908633e-07
8.03858411398e-07
6.6668377704e-07
5.38890401036e-07
1.4101516543e-06
2.44339223375e-06
2.86284356635e-06
2.71633292122e-06
2.43169845718e-06
2.19013194217e-06
1.97500565647e-06
1.74351000559e-06
1.51205896578e-06
1.29954197717e-06
1.13128254895e-06
1.03492746129e-06
1.01681435544e-06
1.03790443473e-06
1.04508022367e-06
1.01390747045e-06
9.50998403124e-07
8.57702828759e-07
7.26471438258e-07
6.03664612877e-07
1.60413678425e-06
2.5067376345e-06
2.75203954344e-06
2.57241834663e-06
2.28129140021e-06
2.05044119566e-06
1.84699272831e-06
1.63925897751e-06
1.44152604225e-06
1.26876834235e-06
1.14181085183e-06
1.07874076413e-06
1.07575032555e-06
1.09590764072e-06
1.09613871317e-06
1.05933794763e-06
9.95988087907e-07
9.03441302832e-07
7.71680629712e-07
6.50371511631e-07
1.92574101365e-06
2.50187926829e-06
2.60593937113e-06
2.43831800306e-06
2.16990934761e-06
1.94177433702e-06
1.74887074603e-06
1.56786679658e-06
1.40338573121e-06
1.26709745883e-06
1.17609038506e-06
1.14015893675e-06
1.14761539826e-06
1.16339625696e-06
1.15418860348e-06
1.11164988674e-06
1.04591920858e-06
9.47684899889e-07
8.09803503955e-07
6.85349352053e-07
2.21644503713e-06
2.59053430949e-06
2.58748877341e-06
2.39746558055e-06
2.13077866145e-06
1.89040938029e-06
1.70026648449e-06
1.53930096353e-06
1.40140819259e-06
1.29487277746e-06
1.23205977413e-06
1.2154834215e-06
1.22696257275e-06
1.23560378899e-06
1.21885663286e-06
1.17355247989e-06
1.10323266145e-06
9.90302441571e-07
8.43970645191e-07
7.13273417648e-07
2.45748141357e-06
2.7654798598e-06
2.69178971747e-06
2.45543904974e-06
2.16152488578e-06
1.90128069635e-06
1.70540893773e-06
1.5518918098e-06
1.42886541958e-06
1.34221130429e-06
1.29852891576e-06
1.29267740393e-06
1.30378669357e-06
1.30714585456e-06
1.28601649257e-06
1.23471486958e-06
1.14722510919e-06
1.01572083191e-06
8.692744172e-07
7.31187771183e-07
2.67003272039e-06
2.97727936662e-06
2.87793785947e-06
2.58049664988e-06
2.24384607415e-06
1.96048546519e-06
1.74918732074e-06
1.59139917837e-06
1.47256260383e-06
1.39497864843e-06
1.36061709275e-06
1.35867859657e-06
1.36824184545e-06
1.36632524311e-06
1.33404792074e-06
1.2610162313e-06
1.14689593428e-06
1.00931063751e-06
8.71584126208e-07
7.26394905243e-07
2.81190131794e-06
3.17538916437e-06
3.07422863498e-06
2.71875002488e-06
2.34356150813e-06
2.03409540754e-06
1.80317896107e-06
1.63526534001e-06
1.51428093518e-06
1.43765050763e-06
1.40345659946e-06
1.39802433129e-06
1.39970907567e-06
1.38348502186e-06
1.33016707938e-06
1.23519131925e-06
1.10950153334e-06
9.75691244054e-07
8.39860603895e-07
6.85201489476e-07
2.66571206477e-06
3.3681250923e-06
3.27077210896e-06
2.8506782177e-06
2.43842288448e-06
2.10328096535e-06
1.853088723e-06
1.67084215265e-06
1.53928570354e-06
1.45246903432e-06
1.40582891026e-06
1.38632865204e-06
1.37230820133e-06
1.33962839373e-06
1.27322602746e-06
1.17277880664e-06
1.04976959875e-06
9.16580846302e-07
7.69756788034e-07
5.96588694959e-07
2.53551766412e-06
3.56237219311e-06
3.51247049249e-06
3.01265560208e-06
2.54844533594e-06
2.19051564142e-06
1.9211897179e-06
1.71524694535e-06
1.55562672721e-06
1.43855997852e-06
1.36338508602e-06
1.32076027673e-06
1.28959053804e-06
1.24605665481e-06
1.17601490401e-06
1.07778353731e-06
9.56448720132e-07
8.14013581654e-07
6.45879287315e-07
4.55884377711e-07
2.60564291167e-06
3.81171607834e-06
3.84451614302e-06
3.28335674318e-06
2.73520556128e-06
2.32923488959e-06
2.03422813647e-06
1.79520354699e-06
1.59075313745e-06
1.42516874966e-06
1.30615879695e-06
1.22972170483e-06
1.17635352996e-06
1.12068498338e-06
1.04532856344e-06
9.4406573567e-07
8.14814991334e-07
6.55016316047e-07
4.712361167e-07
2.93654389068e-07
2.67023913144e-06
3.93580670747e-06
4.06930628121e-06
3.56823994579e-06
2.99141627619e-06
2.5293089234e-06
2.18677993e-06
1.90709391749e-06
1.65740196658e-06
1.43955956488e-06
1.26685086519e-06
1.14406971236e-06
1.0568432557e-06
9.78798198495e-07
8.87684540912e-07
7.72670754841e-07
6.29045451601e-07
4.60821753027e-07
2.95377211292e-07
1.66071085046e-07
2.67940377328e-06
3.9772615837e-06
4.21275055448e-06
3.79970989118e-06
3.22726147435e-06
2.72359035835e-06
2.3384951104e-06
2.02581830318e-06
1.74386381106e-06
1.48445091196e-06
1.26008266644e-06
1.08390027121e-06
9.50712759064e-07
8.36097079641e-07
7.16021045173e-07
5.8056366943e-07
4.32473274984e-07
2.86885006937e-07
1.6946487615e-07
9.06739745227e-08
2.60851381969e-06
3.92687486863e-06
4.24411675754e-06
3.90957935914e-06
3.37347861198e-06
2.86423648305e-06
2.45265645846e-06
2.1175354172e-06
1.81728037284e-06
1.53325350854e-06
1.27197754561e-06
1.0481428985e-06
8.63864345258e-07
7.00481641106e-07
5.43466981424e-07
3.96672420099e-07
2.69330446549e-07
1.68150907746e-07
9.53094380265e-08
4.98285733883e-08
2.49623633786e-06
3.8391891958e-06
4.17155770753e-06
3.86348740659e-06
3.36543269994e-06
2.87977031634e-06
2.47063722168e-06
2.1312534441e-06
1.82850425593e-06
1.53990313385e-06
1.26371316925e-06
1.01023283106e-06
7.79898165003e-07
5.63617565018e-07
3.78863989622e-07
2.46952446773e-07
1.58836167898e-07
9.61652977239e-08
5.21344690116e-08
2.683937447e-08
2.36285787988e-06
3.75962619545e-06
4.02666702371e-06
3.68504813369e-06
3.19339367849e-06
2.73198318258e-06
2.35034877297e-06
2.03528403686e-06
1.75280622076e-06
1.47890346121e-06
1.20834821858e-06
9.4301015942e-07
6.72907967512e-07
4.14391486538e-07
2.36667593311e-07
1.43646272304e-07
9.00545329277e-08
5.26687757099e-08
2.82732443844e-08
1.58709016397e-08
2.2931519782e-06
3.56725806737e-06
3.70842266046e-06
3.32150477194e-06
2.84959969754e-06
2.43618793811e-06
2.11158545134e-06
1.84774525099e-06
1.60590728004e-06
1.36239027478e-06
1.10984550167e-06
8.37242194157e-07
5.28828022662e-07
2.66529755079e-07
1.34930154927e-07
7.99569966385e-08
4.98946707301e-08
2.99173240775e-08
1.77174489772e-08
1.19635369939e-08
2.36309190226e-06
3.4121777416e-06
3.38790498486e-06
2.94704692666e-06
2.46995392904e-06
2.09329035207e-06
1.82757577602e-06
1.62278164492e-06
1.43013075726e-06
1.22334204674e-06
9.87808602622e-07
6.96831396563e-07
3.61108558442e-07
1.4925402861e-07
7.33123092133e-08
4.58430285638e-08
3.05803551208e-08
2.00343590866e-08
1.44633284914e-08
1.20842401285e-08
2.60764580846e-06
3.30107650813e-06
3.17023893892e-06
2.66576453905e-06
2.15675012899e-06
1.78986833176e-06
1.56583674056e-06
1.41292532836e-06
1.26667808261e-06
1.09076805602e-06
8.55767263896e-07
5.31097873941e-07
2.07525340703e-07
7.73720110132e-08
4.36498487388e-08
3.07638234762e-08
2.22648136662e-08
1.71442088436e-08
1.57527670284e-08
1.53799063429e-08
2.83188525384e-06
3.23254780836e-06
3.00337174644e-06
2.46109630858e-06
1.92825700738e-06
1.56047676282e-06
1.36298414244e-06
1.25068008404e-06
1.13937450704e-06
9.75769146231e-07
7.20481648421e-07
3.60202176608e-07
1.058730587e-07
4.6132701977e-08
3.2235724188e-08
2.4788986569e-08
2.00436306131e-08
1.88051227366e-08
2.0808178359e-08
2.19736417371e-08
2.94501702743e-06
3.13925729253e-06
2.82912880808e-06
2.27742326764e-06
1.75273536026e-06
1.40137550574e-06
1.23025833277e-06
1.14731487466e-06
1.05290445274e-06
8.82541492185e-07
5.90495176078e-07
2.17906511504e-07
6.11112984633e-08
3.65431140867e-08
2.90171231023e-08
2.42146079335e-08
2.22460530829e-08
2.43624048503e-08
2.96614950435e-08
3.23193113418e-08
2.94152186703e-06
3.01584786488e-06
2.65022998031e-06
2.10616926949e-06
1.61765060424e-06
1.30589813914e-06
1.16516977148e-06
1.10000827645e-06
1.00832248919e-06
8.16966226373e-07
4.74004504589e-07
1.3178709035e-07
4.94328410069e-08
3.59643995212e-08
3.11198276198e-08
2.8320728908e-08
2.87817175018e-08
3.40582808142e-08
4.25816624611e-08
4.68386885384e-08
2.87861715904e-06
2.90045909338e-06
2.50545406882e-06
1.98219296039e-06
1.54161502396e-06
1.27394582215e-06
1.15872178398e-06
1.10277458995e-06
1.00436749798e-06
7.79576631821e-07
3.84818804882e-07
1.02090098109e-07
5.15275014109e-08
4.13688637661e-08
3.87732385545e-08
3.78912083709e-08
4.06827506851e-08
4.88265604105e-08
5.99926481958e-08
6.5578112363e-08
2.83111017969e-06
2.83019943022e-06
2.42640115824e-06
1.93085879979e-06
1.52985056028e-06
1.29359444582e-06
1.19397670184e-06
1.1426365548e-06
1.03371594845e-06
7.71589953807e-07
3.43274002234e-07
1.08719486011e-07
6.290014629e-08
5.39503711989e-08
5.39505760905e-08
5.51974635074e-08
6.0328113655e-08
7.06327540692e-08
8.2805323602e-08
8.82278623955e-08
2.79781566916e-06
2.8007131101e-06
2.40960063563e-06
1.9351704325e-06
1.5562862724e-06
1.33529542005e-06
1.24327809467e-06
1.19781238727e-06
1.08773098321e-06
7.96703608991e-07
3.65480915463e-07
1.4250607744e-07
8.58824086184e-08
7.693789808e-08
8.00986397698e-08
8.42857947441e-08
9.18725159307e-08
1.02831101741e-07
1.12754150585e-07
1.1471677841e-07
2.75668173784e-06
2.77644307356e-06
2.40795969441e-06
1.95772787604e-06
1.58591030982e-06
1.36635433508e-06
1.28073043953e-06
1.24718002088e-06
1.15093314714e-06
8.64432416658e-07
4.46231428991e-07
2.0521989982e-07
1.25231980599e-07
1.14450535458e-07
1.21473649423e-07
1.30142250283e-07
1.40529665596e-07
1.49385289298e-07
1.51981105141e-07
1.45476489432e-07
2.67053287608e-06
2.71893201809e-06
2.39349338527e-06
1.97715650705e-06
1.60199454662e-06
1.38006246651e-06
1.30378186545e-06
1.28367226355e-06
1.2081359144e-06
9.5999886949e-07
5.70211528892e-07
2.97155758625e-07
1.84743967001e-07
1.69600855248e-07
1.80510086038e-07
1.95112514298e-07
2.08656787752e-07
2.12026974795e-07
2.01679346952e-07
1.80874562065e-07
2.57622465539e-06
2.65955559212e-06
2.37831099711e-06
1.99561389221e-06
1.61464611179e-06
1.39429005793e-06
1.328114359e-06
1.31762562838e-06
1.25913500786e-06
1.05139900072e-06
7.04135480577e-07
4.0875880621e-07
2.64743278934e-07
2.42136555627e-07
2.54503877687e-07
2.74487706535e-07
2.90645055226e-07
2.86886325728e-07
2.59880183066e-07
2.20811302756e-07
2.51825489288e-06
2.63081825642e-06
2.38336269876e-06
2.02962880689e-06
1.64527355603e-06
1.42394203693e-06
1.36712748573e-06
1.36187469437e-06
1.31025462109e-06
1.12705603865e-06
8.17409295327e-07
5.24800772906e-07
3.63267212264e-07
3.29541409969e-07
3.374786639e-07
3.58547282371e-07
3.7542880706e-07
3.65020105525e-07
3.21633156276e-07
2.64715149612e-07
2.49346950495e-06
2.63554332762e-06
2.41445930973e-06
2.07564121926e-06
1.69133109021e-06
1.47337711875e-06
1.42053448462e-06
1.41364897223e-06
1.36118072366e-06
1.19256058075e-06
9.15558851201e-07
6.4116946286e-07
4.75432544622e-07
4.27665505726e-07
4.24663274148e-07
4.40001928117e-07
4.5392027129e-07
4.37263308505e-07
3.80869877782e-07
3.09020141098e-07
1.39483427751e-08
1.28289741809e-08
1.1972747258e-08
1.56222031543e-08
1.8098007637e-08
1.92348639911e-08
4.82849714735e-08
3.5269111185e-07
1.30881002854e-06
1.88404653162e-06
2.27573767856e-06
1.65007214203e-06
3.29051268474e-07
3.63313006347e-07
4.07930937946e-07
2.16967102461e-06
1.55452233907e-08
1.29774234583e-08
1.36520088169e-08
1.48714363547e-08
1.5349411857e-08
1.51734940057e-08
1.64307980869e-08
2.41797884319e-08
2.51275195013e-08
2.79891240202e-08
1.13660628866e-07
8.24556647037e-07
1.47011682683e-06
1.93792611524e-06
2.31528368987e-06
4.32951040723e-07
3.27359328094e-07
3.65737683444e-07
4.02002636697e-07
2.18935854587e-06
2.71041428083e-08
2.01129600258e-08
1.87338628371e-08
1.89530781615e-08
1.95062551515e-08
2.02864852025e-08
2.39122385579e-08
3.46908971996e-08
3.39636840008e-08
5.25674796456e-08
4.15675085001e-07
9.89265830059e-07
1.52432190699e-06
1.89387177921e-06
1.76244506689e-06
2.89746422333e-07
3.13886611683e-07
3.60440662848e-07
3.87106549901e-07
2.07051290056e-06
5.01557273568e-08
3.41837264633e-08
2.84587100608e-08
2.68184672173e-08
2.70557514828e-08
2.85473164154e-08
3.39667147887e-08
4.45612537018e-08
4.4943724423e-08
1.55997178809e-07
5.16613683617e-07
1.01765908602e-06
1.45077198302e-06
1.68630841028e-06
6.92947165594e-07
2.59460922298e-07
2.88796222243e-07
3.40129962123e-07
3.59870466707e-07
1.93944622038e-06
9.1164946733e-08
5.98221667986e-08
4.53843159137e-08
3.98078280332e-08
3.87993332823e-08
4.03300218266e-08
4.5010774895e-08
5.21313093878e-08
6.80403223745e-08
2.88504700938e-07
4.68698044474e-07
8.65963501872e-07
1.23595979859e-06
1.35316372204e-06
3.80344984916e-07
2.12611924773e-07
2.44848931587e-07
3.01913392799e-07
3.27224172117e-07
1.85009555029e-06
1.5602864642e-07
1.01732631363e-07
7.22121880315e-08
5.96553761524e-08
5.56349444294e-08
5.57842471891e-08
5.76685260154e-08
5.94215454225e-08
7.28709278916e-08
2.69825847121e-07
4.20709649477e-07
6.45331384435e-07
9.02612815929e-07
9.7764453012e-07
4.52968175496e-07
1.62495004841e-07
1.97899685295e-07
2.58089166653e-07
3.07197767555e-07
1.84516932754e-06
2.43937880726e-07
1.61331263934e-07
1.10804417157e-07
8.69653147688e-08
7.71638211571e-08
7.39256497627e-08
7.21347851539e-08
6.87566066129e-08
6.4839801184e-08
1.84500572854e-07
3.90929770227e-07
4.89891117997e-07
6.34696169223e-07
6.95360591461e-07
6.60082590544e-07
2.71884263389e-07
1.7815891022e-07
2.36714259447e-07
3.06372894019e-07
1.47107860814e-06
3.41032019926e-07
2.33598483283e-07
1.59264431212e-07
1.19764015745e-07
1.01178968468e-07
9.26166845722e-08
8.66216277842e-08
7.89563674375e-08
6.59058225574e-08
1.04492745363e-07
3.65351166155e-07
4.00593009109e-07
4.67346698021e-07
5.14348496575e-07
5.25684991144e-07
5.94844568575e-07
6.62621112271e-07
2.21474072592e-07
3.02342239465e-07
4.97813324467e-07
4.27217184715e-07
3.05486058372e-07
2.10632807126e-07
1.53763420038e-07
1.24328415819e-07
1.09171916964e-07
9.86867640645e-08
8.70336749789e-08
7.10091665528e-08
8.20148558722e-08
3.22628257263e-07
3.45560370281e-07
3.66420004811e-07
3.98035554564e-07
4.15869062538e-07
4.63266457028e-07
8.31537907033e-07
1.69199785454e-07
2.76775285853e-07
4.04856741626e-07
4.90861905796e-07
3.63600802228e-07
2.55383784672e-07
1.83901018216e-07
1.43586802103e-07
1.21347663751e-07
1.05983875783e-07
9.0371703074e-08
7.20255699213e-08
7.64089683477e-08
2.56102473925e-07
2.99103857271e-07
2.96622508704e-07
3.19722445568e-07
3.42167126027e-07
3.99204035674e-07
7.36594560649e-07
1.41116901814e-07
2.54279357371e-07
3.14140474908e-07
5.33323491026e-07
4.03200510497e-07
2.87461289111e-07
2.06246803064e-07
1.56686664372e-07
1.27284523067e-07
1.06466983924e-07
8.70080314888e-08
6.70677333946e-08
6.82663848073e-08
1.7742647536e-07
2.47446009921e-07
2.44649913433e-07
2.6988336468e-07
3.06217376376e-07
4.41423246016e-07
6.75508360844e-07
1.73311851704e-07
2.6263931238e-07
3.68653113421e-07
5.61471877069e-07
4.27331740475e-07
3.06933885399e-07
2.18828785274e-07
1.61594380106e-07
1.25168568652e-07
9.88152036401e-08
7.61330681194e-08
5.57774294623e-08
5.49126514004e-08
1.16249277835e-07
1.97304542946e-07
2.17474995051e-07
2.59035269105e-07
3.47372600609e-07
6.4453780988e-07
1.74018718966e-07
2.079731349e-07
2.84009207335e-07
4.53257887245e-07
5.79250495204e-07
4.39179821681e-07
3.14721110532e-07
2.20496057246e-07
1.56473383189e-07
1.1391753614e-07
8.32187071811e-08
5.91269061357e-08
4.06980332141e-08
4.05146916518e-08
7.60467565076e-08
1.65311379175e-07
2.27350460939e-07
3.22229698219e-07
5.39918870704e-07
2.11517237501e-07
1.86819937533e-07
2.26242626725e-07
2.67065725175e-07
3.00483911065e-07
5.84462078267e-07
4.36084461517e-07
3.06561564074e-07
2.08204569537e-07
1.39902746685e-07
9.38843597638e-08
6.21580990831e-08
4.05513257786e-08
2.78669583803e-08
3.21902911418e-08
6.0263422082e-08
1.49004107227e-07
2.74279936278e-07
4.49584437202e-07
1.65920338905e-07
1.62924047313e-07
1.97041220512e-07
2.16969232334e-07
1.88879955096e-07
1.65275962589e-32
5.66592996887e-07
4.09443603967e-07
2.76302266872e-07
1.78293806755e-07
1.11761223305e-07
6.83626381335e-08
4.1472979968e-08
2.68583220505e-08
2.17616154423e-08
3.33675994236e-08
6.14144171338e-08
1.18624417671e-07
1.57788182843e-07
1.08439187979e-07
1.43786720348e-07
1.69733950045e-07
1.91354454427e-07
1.81646144176e-07
8.60551226737e-08
2.99158890275e-32
5.12379054809e-07
3.50365701549e-07
2.21826448898e-07
1.3344594967e-07
7.73419616726e-08
4.41166322582e-08
2.71309788313e-08
2.10329087391e-08
2.23313774668e-08
3.93979358354e-08
6.10637409097e-08
6.85258434772e-08
1.00901962823e-07
1.27038827653e-07
1.47270734659e-07
1.66931224197e-07
1.72473192533e-07
1.44761665557e-07
3.22205159296e-08
3.76244277709e-32
4.13704565076e-07
2.59568297193e-07
1.51010352406e-07
8.4158981853e-08
4.62855336233e-08
2.76981183225e-08
2.13118801232e-08
2.18386638203e-08
2.75618356672e-08
3.89440843448e-08
5.33235227476e-08
8.01398471148e-08
1.08952448482e-07
1.30480258515e-07
1.45031609659e-07
1.51327782654e-07
1.41900969653e-07
1.09968788985e-07
1.58347766915e-08
4.19184542315e-32
2.82702215294e-07
1.59774485679e-07
8.64338349636e-08
4.71862276886e-08
2.8293290771e-08
2.15228629714e-08
2.14947642938e-08
2.4927745447e-08
3.13847081155e-08
3.94489665681e-08
5.16493131381e-08
8.08332249287e-08
1.12759484663e-07
1.29312781459e-07
1.33373965207e-07
1.26848020608e-07
1.08128702133e-07
7.83352315298e-08
6.62392682877e-09
4.9754589513e-32
1.62560826063e-07
8.57082871787e-08
4.75418612993e-08
2.88348522271e-08
2.07119548426e-08
1.95708769782e-08
2.20426543631e-08
2.55086496262e-08
2.98648318231e-08
3.48513464525e-08
4.38470902119e-08
7.4860046581e-08
1.14474885042e-07
1.27393633046e-07
1.22187168659e-07
1.07511854152e-07
8.51083476348e-08
5.76024336247e-08
2.7004352921e-09
6.29707754155e-32
8.66831442151e-08
4.76229744032e-08
2.83043795744e-08
1.90910985791e-08
1.6928544821e-08
1.86594193723e-08
2.14725443956e-08
2.42864262674e-08
2.7205048057e-08
3.02891350477e-08
3.57146447444e-08
6.48407322607e-08
1.11918246701e-07
1.27117420618e-07
1.16255031303e-07
9.51554220593e-08
7.17170406409e-08
4.70041960537e-08
2.89003430431e-09
6.79169511912e-32
4.79765131931e-08
2.76744074204e-08
1.70545071347e-08
1.45532100781e-08
1.58847681637e-08
1.8331679609e-08
2.07713477348e-08
2.28680263599e-08
2.47929756817e-08
2.67452516884e-08
3.03656876007e-08
5.50038044189e-08
1.02893991902e-07
1.23754775265e-07
1.14340604166e-07
9.19780225673e-08
6.9140986445e-08
4.86553169543e-08
6.73649010497e-09
7.52381254256e-32
2.6750832359e-08
1.56359476832e-08
1.15940263621e-08
1.35608704635e-08
1.60091343511e-08
1.83092922357e-08
2.02052617178e-08
2.17160251849e-08
2.30039850617e-08
2.44070637431e-08
2.89739917225e-08
4.93138196259e-08
9.10230313865e-08
1.21694201928e-07
1.23314772897e-07
9.94961971957e-08
6.91357831826e-08
4.9645916497e-08
1.84347480751e-08
7.53821952309e-32
1.52823119898e-08
9.28221846846e-09
9.83773235552e-09
1.37380566887e-08
1.66135791018e-08
1.86623343729e-08
2.01086525629e-08
2.12965133789e-08
2.24254866408e-08
2.42497881932e-08
3.09425166577e-08
5.0403423367e-08
8.7350747578e-08
1.23330138559e-07
1.31746289283e-07
1.02595352356e-07
6.46911126655e-08
4.75830885192e-08
5.55115358228e-08
1.31204225951e-29
1.0075067957e-08
6.44657422513e-09
9.26655820117e-09
1.4124895114e-08
1.72694569869e-08
1.91523901292e-08
2.05320541858e-08
2.19248700934e-08
2.36125809744e-08
2.70492526366e-08
3.61301839331e-08
5.62882009701e-08
9.09950814296e-08
1.22830750267e-07
1.28104036019e-07
9.46532387337e-08
6.16318966021e-08
7.44505107778e-08
1.50406288029e-07
7.3492335115e-07
7.89638586911e-09
5.22743385223e-09
8.7813978366e-09
1.41107273746e-08
1.74695279139e-08
1.93057793926e-08
2.10077221991e-08
2.31984008661e-08
2.61431752606e-08
3.1654339934e-08
4.28892756839e-08
6.4189920867e-08
9.55299257768e-08
1.16064928031e-07
1.13300514554e-07
8.28248422931e-08
6.07768027767e-08
1.06800948239e-07
2.01376144171e-07
1.04682692975e-06
7.75639423446e-09
4.76309169401e-09
8.05429751068e-09
1.34831678719e-08
1.69618544672e-08
1.8872562753e-08
2.10348191091e-08
2.40698512989e-08
2.83518993614e-08
3.55394444355e-08
4.85543292534e-08
7.05879380101e-08
9.69089998871e-08
1.06884850467e-07
9.46305963567e-08
7.10724043245e-08
6.15123552842e-08
1.34387518152e-07
2.43387278388e-07
1.45943381411e-06
9.83378954846e-09
5.13787385164e-09
7.39316435264e-09
1.24608030279e-08
1.5811764691e-08
1.79571932049e-08
2.06408217286e-08
2.43626083566e-08
2.96428289003e-08
3.81901680813e-08
5.29324268685e-08
7.48837245733e-08
9.50670562604e-08
9.85998633353e-08
8.06819310403e-08
6.03915613604e-08
6.40666865867e-08
1.59628176097e-07
2.80654121679e-07
1.96303841069e-06
1.47148144852e-08
7.12943237996e-09
7.58926971014e-09
1.1497851391e-08
1.47043644624e-08
1.73544078506e-08
2.0776846471e-08
2.53264716163e-08
3.18080699599e-08
4.22599600496e-08
5.91509081258e-08
7.94755889453e-08
9.2461259443e-08
9.29290760454e-08
7.20219448081e-08
5.19309948191e-08
6.94312245134e-08
1.87001373316e-07
3.12543502635e-07
2.39234055667e-06
2.34664338748e-08
1.20337386227e-08
9.56909076682e-09
1.16281588713e-08
1.48060374374e-08
1.85648562987e-08
2.34167344097e-08
2.96962213999e-08
3.87166299311e-08
5.26903103717e-08
7.09962995618e-08
8.56980667257e-08
9.11027892152e-08
8.82180832361e-08
6.50175624708e-08
4.72381573638e-08
7.70627003652e-08
2.12886070875e-07
3.1910858617e-07
2.23576505467e-06
3.74342596266e-08
2.17432186253e-08
1.49256429668e-08
1.46449657254e-08
1.79445882501e-08
2.40552411824e-08
3.18321041145e-08
4.15296872968e-08
5.46250422143e-08
6.98168946716e-08
8.25930231458e-08
8.76811208633e-08
8.62379494916e-08
8.11778020289e-08
6.42018677452e-08
4.53630681354e-08
8.32749699748e-08
2.05312123216e-07
2.31775096253e-07
9.25296566395e-07
5.72512995696e-08
3.89274342747e-08
2.65036683742e-08
2.33238048823e-08
2.7374139352e-08
3.74557536695e-08
4.96710268333e-08
6.17921979329e-08
7.10564966636e-08
7.17921249314e-08
7.84112433507e-08
8.17857159934e-08
8.08168023021e-08
7.78669418886e-08
6.21619198301e-08
4.45378021372e-08
7.70711795721e-08
1.38707061727e-07
5.09590715494e-08
1.25631960925e-32
8.16343047561e-08
6.46069105048e-08
4.82981247636e-08
4.22159886816e-08
4.84087488004e-08
6.24991733792e-08
7.62374166385e-08
7.86052582978e-08
6.35360419478e-08
4.799034013e-08
7.30460992399e-08
7.97762736125e-08
7.86925621717e-08
7.49544008538e-08
6.05577361727e-08
4.29239773383e-08
6.60414450318e-08
8.25402819025e-08
2.57431038386e-11
2.82014640542e-33
1.08236366395e-07
9.5522382506e-08
8.096570324e-08
7.53058826484e-08
8.50954988791e-08
1.01099479971e-07
1.04934685382e-07
7.85729101718e-08
3.97426069049e-08
2.8010249279e-08
7.56260152249e-08
7.91701716003e-08
7.58414644167e-08
7.15062938943e-08
6.0129672141e-08
2.91578749499e-08
6.18707942893e-08
8.15297811185e-08
9.32812808407e-10
1.87628521664e-33
1.35704363137e-07
1.26891365085e-07
1.17897890509e-07
1.1706919713e-07
1.30043926185e-07
1.42017647435e-07
1.2423779743e-07
6.89028888603e-08
2.49487670282e-08
2.14700145661e-08
7.48632893031e-08
7.70032502732e-08
7.22137788344e-08
6.82095599886e-08
6.06548562636e-08
1.9203344611e-08
4.67016633314e-08
7.5675854704e-08
7.00508564481e-09
1.58096360616e-33
1.64043860717e-07
1.56416276754e-07
1.51530025017e-07
1.54604046219e-07
1.67823598771e-07
1.72909790113e-07
1.37196072134e-07
6.57063090301e-08
1.9730222015e-08
1.70815463493e-08
6.88690398569e-08
7.34960516453e-08
6.86429474824e-08
6.5563442653e-08
6.17061763862e-08
1.58104536972e-08
2.84580322876e-08
7.81958093701e-08
8.08014852873e-09
8.31698024581e-34
1.93819242496e-07
1.84357541786e-07
1.7977599114e-07
1.82146657889e-07
1.92867914355e-07
1.94233066426e-07
1.52249179867e-07
7.2988139696e-08
1.97304102774e-08
1.30466603435e-08
5.7823061785e-08
6.88270089563e-08
6.59318863887e-08
6.40862650476e-08
6.30707101746e-08
1.55584734878e-08
2.19005143817e-08
8.95807442011e-08
1.15190150463e-08
5.90257401798e-34
2.25260306249e-07
2.11756927431e-07
2.04244845786e-07
2.01646476822e-07
2.08289073561e-07
2.10446634926e-07
1.73097169392e-07
9.32511130769e-08
2.6394356566e-08
9.86015932979e-09
4.10443094464e-08
6.22951764971e-08
6.45301793342e-08
6.38873310888e-08
6.35633033301e-08
1.39497508731e-08
2.37328250462e-08
1.03979344609e-07
1.89190260624e-08
7.60556571326e-34
2.57350849892e-07
2.39082971769e-07
2.26550404678e-07
2.15863699375e-07
2.17885901333e-07
2.24516714647e-07
1.99777302389e-07
1.29026291531e-07
4.61977367118e-08
9.19233442536e-09
2.5424771858e-08
6.0789413048e-08
6.4748190121e-08
6.39833387114e-08
6.10231665111e-08
1.07067065406e-08
3.78128597527e-08
1.37493625454e-07
2.9785153402e-08
1.66273294091e-33
)
;

boundaryField
{
    emptyPatch
    {
        type            empty;
    }
    minY
    {
        type            zeroGradient;
    }
    maxY
    {
        type            calculated;
        value           nonuniform List<scalar> 
40
(
2.4934391004e-06
2.63551080035e-06
2.41441994627e-06
2.07560695927e-06
1.69130305047e-06
1.47336448024e-06
1.42053320958e-06
1.41364795326e-06
1.36117835125e-06
1.19256154505e-06
9.15561403266e-07
6.41170105163e-07
4.7543112091e-07
4.27661865018e-07
4.24656715204e-07
4.39991529591e-07
4.53906028533e-07
4.37248764253e-07
3.8085732672e-07
3.09011051486e-07
2.57345542988e-07
2.39077675143e-07
2.2654498629e-07
2.15858872506e-07
2.17880590545e-07
2.24510302036e-07
1.99771673691e-07
1.29023811354e-07
4.61974840569e-08
9.19229826358e-09
2.54245778066e-08
6.07889542202e-08
6.47477040653e-08
6.3982858676e-08
6.10227044423e-08
1.07067219635e-08
3.78127122368e-08
1.37492753142e-07
2.97849515449e-08
2.37624890082e-09
)
;
    }
    maxX
    {
        type            compressible::alphatPhaseChangeJayatillekeWallFunction;
        Prt             0.85;
        Cmu             0.09;
        kappa           0.41;
        E               9.8;
        dmdt            uniform 0;
        value           nonuniform List<scalar> 
38
(
9.59839161749e-10
1.02055912038e-09
1.08508414596e-09
9.68845746529e-10
6.4499972546e-10
3.96665933451e-10
1.17256745535e-09
4.11659160268e-09
6.41017605355e-09
4.7888481115e-09
7.72340687585e-10
3.77508064614e-10
2.35969059645e-09
3.31008784439e-09
2.13531607445e-09
8.75378776326e-10
4.434876336e-10
6.13285355508e-10
6.63480236967e-10
6.0262702512e-10
5.53402540117e-10
5.79511621159e-10
5.03300319754e-10
1.87423594862e-10
2.2857799607e-10
9.54521528757e-10
2.80213564798e-09
5.52794574423e-09
5.10038495039e-09
1.65811900852e-09
3.10404215571e-10
1.36946468112e-10
6.43908236718e-11
3.34819410593e-11
4.6090518862e-11
1.22528428105e-10
9.50931536663e-11
1.31883586457e-10
)
;
    }
    water_to_heater
    {
        type            compressible::alphatWallBoilingWallFunction;
        phaseType       vapor;
        relax           constant 1;
        partitioningModel
        {
            type            Lavieville;
            alphaCrit       0.2;
        }
        otherPhase      liquid;
        dmdt            uniform 0;