/*--------------------------------*- C++ -*----------------------------------*\
| =========                 |                                                 |
| \\      /  F ield         | OpenFOAM: The Open Source CFD Toolbox           |
|  \\    /   O peration     | Version:  2312                                  |
|   \\  /    A nd           | Website:  www.openfoam.com                      |
|    \\/     M anipulation  |                                                 |
\*---------------------------------------------------------------------------*/
FoamFile
{
    version     2.0;
    format      ascii;
    arch        "LSB;label=32;scalar=64";
    class       volScalarField;
    location    "0.555/water";
    object      alpha.gas_0;
}
// * * * * * * * * * * * * * * * * * * * * * * * * * * * * * * * * * * * * * //

dimensions      [0 0 0 0 0 0 0];

internalField   nonuniform List<scalar> 
1504
(
0.699691485774
0.6382644934
0.598800737336
0.543582792671
0.471808501856
0.388535151793
0.309593488751
0.278107845237
0.277541584747
0.277843185907
0.276908080594
0.277909005563
0.282652910882
0.335970117726
0.360872749838
0.36098762657
0.351969902117
0.291387054692
0.168675532867
0.0472416857349
0.692968502843
0.613348773386
0.559413389343
0.487893884704
0.409268063431
0.330339444258
0.28065339226
0.277707499947
0.277843185907
0.276772490944
0.277437418118
0.277060141143
0.292201894613
0.343572360707
0.360964746809
0.360872749838
0.356657824869
0.312681825744
0.198229306969
0.0623203557476
0.698889053572
0.574779140149
0.505379686499
0.42263634797
0.345143825191
0.286741752944
0.277773271914
0.277843185907
0.276655068776
0.277417690438
0.276422987877
0.277437418118
0.301282743941
0.341634531771
0.355021255185
0.359163595312
0.366929324682
0.341924567355
0.235030792673
0.0809861089696
0.693292738076
0.515814369667
0.432667066701
0.352166038923
0.292863588224
0.277792435214
0.277843185907
0.276489027892
0.277417690438
0.276218476637
0.277091351565
0.279596246223
0.302592513749
0.327330212502
0.337796200663
0.355066706916
0.379853306545
0.372205032097
0.272607313479
0.103413319758
0.69528302432
0.432346334547
0.349207746224
0.294141076678
0.277798587051
0.277843185907
0.276470789755
0.277417690438
0.276056546879
0.277091351565
0.276228817742
0.282189652716
0.294967004571
0.301988988498
0.317201343422
0.353165307607
0.388412136436
0.390608633693
0.302216496484
0.131400589253
0.670444196294
0.344507160932
0.303795859119
0.281101716087
0.277927160644
0.276490523238
0.277417690438
0.275920909339
0.277091351565
0.276077040645
0.276559253614
0.277776825544
0.276263234322
0.279024806233
0.302910653716
0.352268440228
0.38983401252
0.397390911508
0.328123485834
0.169482973031
0.554403875076
0.316873481767
0.308267095322
0.291861210714
0.277202646679
0.277927160644
0.276429516978
0.278656218749
0.279098153252
0.277376743788
0.270888907061
0.26356818407
0.259614323217
0.263621171452
0.28925888038
0.345339180239
0.388436631698
0.398125981341
0.362767112327
0.221648657394
0.454809249819
0.361677757618
0.367217019518
0.342509235094
0.302662734323
0.284679795453
0.282952662497
0.286959547375
0.279387988701
0.267547949391
0.256911749738
0.251728951691
0.250377259056
0.252207976509
0.268457019438
0.321524020994
0.378561426764
0.397846679499
0.398120512126
0.280980519968
0.506743377276
0.541079448479
0.51756657286
0.47032364904
0.39766072795
0.341843816753
0.309068380041
0.289510912899
0.272106409519
0.256508357091
0.247712075036
0.245041790148
0.244607662365
0.244607900785
0.247467376771
0.282066614673
0.355421370283
0.398148232389
0.397846679499
0.334361994299
0.692484583989
0.735755442531
0.687144146217
0.651758669372
0.594428234852
0.513763509197
0.4120908898
0.327039003052
0.281051242189
0.257115687286
0.244444365183
0.240470881635
0.240591890644
0.240758747586
0.239496032248
0.249288056858
0.319360487869
0.394775644614
0.398540981869
0.384069570961
0.840747559236
0.804395491784
0.774619428531
0.762863510984
0.74537461418
0.704992453464
0.60971073704
0.464027768999
0.342363917562
0.275753823314
0.245798737542
0.238183072118
0.238271495349
0.238611005915
0.238037835267
0.238300148283
0.276929375257
0.377002763302
0.397846679499
0.398315497156
0.86282511555
0.813361212083
0.800720981386
0.796766202251
0.791242601191
0.772856453154
0.719354102527
0.597781160746
0.440136438738
0.320947700794
0.253113713582
0.237804636474
0.237939715015
0.237888048819
0.237939715015
0.237822201386
0.245291680724
0.343685855521
0.398312728735
0.397846679499
0.860410579883
0.815126723999
0.809772150992
0.806239336419
0.800848188157
0.78434649303
0.740725838368
0.643537945073
0.496927494849
0.361504986596
0.262466444966
0.237939715015
0.237678692046
0.237939715015
0.237659797033
0.23782825274
0.237643111331
0.304797576483
0.397846679499
0.398298078357
0.86321897868
0.815508900709
0.813775138555
0.809319397251
0.802990431077
0.785422778686
0.74154569393
0.64927454804
0.511790325617
0.375119423085
0.265921075477
0.237506372016
0.237939715015
0.237305515116
0.23782825274
0.237276844127
0.237691058602
0.273500139197
0.387954128923
0.397846679499
0.860693291622
0.815614363346
0.815134203482
0.809610492679
0.802099590152
0.782295192252
0.735079963289
0.642390110412
0.508859302919
0.372379354237
0.262301664793
0.237939715015
0.237080711925
0.23782825274
0.236943982276
0.237691058602
0.236853376144
0.255208498429
0.367288530611
0.398050502069
0.862897626589
0.816898423607
0.814580121316
0.807219330746
0.796197068656
0.770308391302
0.715193065275
0.617954603749
0.488004449804
0.352717796914
0.250575514823
0.237468524743
0.23782825274
0.236726617103
0.237691058602
0.236601339551
0.237518612048
0.245515513735
0.346984060834
0.397846679499
0.860386018907
0.818827568933
0.810732950689
0.79882486543
0.782298351558
0.748427465685
0.683915246973
0.579892242988
0.44998760958
0.317934932614
0.240109508104
0.23782825274
0.236983402935
0.237691058602
0.236495380337
0.237518612048
0.236334967916
0.24171553536
0.331382163776
0.396624304259
0.86249389073
0.819290241031
0.801222860655
0.783209128276
0.760667876038
0.718858110468
0.64450671353
0.533725794077
0.402413623763
0.279104707051
0.23782825274
0.237371663803
0.237691058602
0.236599536895
0.237518612048
0.236361569433
0.237354178622
0.24019467661
0.320488309861
0.39199510498
0.86028836851
0.817269708389
0.784897509488
0.760453365276
0.731937809875
0.681813089206
0.596621402806
0.479104140754
0.34780521396
0.248803256813
0.237581267104
0.237691058602
0.236766424232
0.237518612048
0.236358395891
0.237354178622
0.23623444544
0.240643843474
0.311778282741
0.386001011414
0.861643544727
0.808222060941
0.759933037232
0.729522126587
0.694488644854
0.633853062629
0.537870342443
0.414657583694
0.290619384851
0.237828905959
0.237575993862
0.237055344671
0.237518612048
0.23637742598
0.237354178622
0.236246345524
0.237194953296
0.241047283819
0.305609147444
0.381079285657
0.859999312279
0.785280107633
0.722814933318
0.687195907338
0.643350684379
0.570710197627
0.465384277737
0.341786750303
0.248295870981
0.237510063287
0.236974117886
0.237518612048
0.236532231615
0.237354178622
0.23617773687
0.237194953296
0.236197759318
0.242780594761
0.302124861803
0.377326289808
0.8615442429
0.734444610934
0.670377458162
0.627366921692
0.571835083991
0.487734415772
0.378270646555
0.271377380116
0.237412023237
0.237010432965
0.237510063287
0.236444324145
0.237354178622
0.236216057666
0.237194953296
0.236149954202
0.237019710678
0.24417966069
0.299679093204
0.373111442693
0.859668104447
0.649059278185
0.597412929645
0.54181236715
0.473877505281
0.383868306881
0.286545688007
0.238246083256
0.237062887615
0.237412023237
0.236352473039
0.237354178622
0.236135161044
0.237198451096
0.236106710933
0.237019710678
0.236206236091
0.245425386964
0.295489838477
0.367350187934
0.86140225761
0.567301257142
0.499241666361
0.426220195053
0.353350671334
0.278265079895
0.238683693563
0.237080933249
0.237208067473
0.23617502623
0.237375507732
0.235919706441
0.237194953296
0.236037122189
0.237019710678
0.236206731466
0.236649083418
0.244692447594
0.286755710897
0.35966962772
0.859343359658
0.492018317157
0.382473684178
0.297136142717
0.252878956543
0.237412023237
0.236885975571
0.237208067473
0.235654804139
0.237208067473
0.235618270563
0.237195470053
0.235807330768
0.237019710678
0.236174700709
0.236649083418
0.236372333584
0.241164104797
0.272402430382
0.348511219193
0.854638035864
0.403369574993
0.276509925236
0.23753740736
0.237412023237
0.236338736899
0.237208067473
0.234997817937
0.237208067473
0.23466026533
0.237208067473
0.235561695268
0.237087584185
0.236091368978
0.236704300514
0.236464758465
0.236514507154
0.234764065202
0.255024923193
0.331032102038
0.788777901722
0.301222075645
0.237642240729
0.237412023237
0.235705830737
0.237208067473
0.234158150501
0.237208067473
0.233577934613
0.237208067473
0.234503234992
0.237208067473
0.236029962717
0.237087584185
0.237676835153
0.244137933415
0.236450892648
0.226770172909
0.237119737637
0.303770680837
0.6560333258
0.276293949211
0.237412023237
0.235598838246
0.237208067473
0.233535749255
0.237208067473
0.233090780299
0.237031407933
0.233655120564
0.237208067473
0.235324009632
0.237208067473
0.236850208681
0.244865470149
0.244833368562
0.23340773534
0.2225219025
0.222816353316
0.2687823592
0.55108210974
0.329616041491
0.282069062892
0.25484346814
0.236262759011
0.237208067473
0.233357110333
0.237031407933
0.233308410013
0.237031407933
0.23523100211
0.237208067473
0.236891823768
0.244221214396
0.244833368562
0.243616824353
0.231882247334
0.221579133153
0.217901640264
0.236307019424
0.572442943318
0.520156657428
0.477429224548
0.419944185145
0.369315057529
0.339441219668
0.330082885861
0.319880323463
0.296874388832
0.263437700336
0.245070425218
0.23822156462
0.237763130877
0.239928332449
0.240387286488
0.239255392903
0.231974635537
0.2219699741
0.217788643983
0.219171315467
0.690359864983
0.734127358482
0.715641112294
0.683195520824
0.646102927868
0.620802898215
0.606462086239
0.585440042319
0.521607766013
0.407446364415
0.303717000781
0.254457212118
0.236211271231
0.228393948847
0.229350457538
0.232669640123
0.231968440363
0.223512691953
0.217699929548
0.217709953508
0.814351040396
0.820590829899
0.809956005944
0.807388029743
0.802632186158
0.797394567654
0.792230712236
0.780691500025
0.740655932655
0.634308692974
0.456255588988
0.314592392948
0.246485385476
0.223491919799
0.22033906459
0.225141602866
0.229448403606
0.224664148254
0.217709953508
0.217535772378
0.857876573675
0.83194841824
0.828592584638
0.830918216008
0.832751239078
0.832931634388
0.832512318543
0.829257223415
0.811088978865
0.751140106822
0.608099155225
0.424713296485
0.290455411252
0.226460087193
0.217873086112
0.219116695045
0.223588314172
0.224201747931
0.217606685948
0.217637089506
0.857968817433
0.833655352829
0.833567098008
0.833790268641
0.833432948193
0.833807484399
0.833379737143
0.833615322451
0.822895836239
0.776707820168
0.669303749725
0.509092555831
0.351881641459
0.241992121788
0.217766245556
0.217740051784
0.218610385687
0.221545390647
0.217637089506
0.217497524775
0.859029450351
0.832992210232
0.833554981647
0.833432948193
0.833796165591
0.833379737143
0.833795215341
0.833292230667
0.825245271599
0.781241776565
0.684431513987
0.543926597155
0.391659491031
0.264401619961
0.217857552995
0.217659624021
0.217661176219
0.218234532218
0.217850812074
0.217550681631
0.858068831078
0.826899389085
0.830503384448
0.833529194427
0.833379737143
0.833759598612
0.833292230667
0.833522949489
0.824842644173
0.780017698027
0.685279348377
0.552938671813
0.407357287724
0.277603788149
0.218872398057
0.217661176219
0.217513017353
0.217584819301
0.21752904649
0.217484520775
0.859029450351
0.812782355217
0.818078288652
0.827112679638
0.833258160354
0.833292230667
0.833403893406
0.833178171669
0.819652913816
0.77007214387
0.677914290025
0.550997223304
0.408924604849
0.279771303424
0.219201508792
0.217556614875
0.217627406245
0.217426566551
0.217543121058
0.217470590603
0.857968817433
0.792780527399
0.795262057082
0.807534769048
0.82373050451
0.830142502752
0.830507102799
1e-15
1e-15
1.02893778393e-15
1.02852722661e-15
1.02901987751e-15
1.02852722661e-15
1.02703876696e-15
1.01389413028e-15
1.00986637056e-15
1.00957672684e-15
1.01000722819e-15
1.01118089345e-15
1.01355480733e-15
1.01992160437e-15
1.03521128075e-15
1.02619068932e-15
1.69279062432e-15
0.00327945669973
1.52118707429e-05
1e-15
1e-15
1e-15
1.02852722661e-15
1.0291886513e-15
1.02852722661e-15
1.02862061582e-15
1.02099586608e-15
1.01073626674e-15
1.00872102108e-15
1.00848607547e-15
1.00886576608e-15
1.00996368842e-15
1.01224008595e-15
1.01793926812e-15
1.03559954026e-15
1.02619422214e-15
1.8345703702e-15
0.00497648737236
2.85901330014e-05
1e-15
1e-15
1e-15
1.01992970896e-15
1.02852722661e-15
1.02866711414e-15
1.02628173836e-15
1.0131586164e-15
1.00768102173e-15
1.00668277208e-15
1.00654633099e-15
1.0069066837e-15
1.00785772866e-15
1.00982433676e-15
1.01500562411e-15
1.0357731046e-15
1.03006091486e-15
1.87176151299e-15
0.00729482147576
5.17358428112e-05
1e-15
1e-15
1e-15
1.01097397033e-15
1.0286731342e-15
1.02738682343e-15
1.01647424227e-15
1.00728757383e-15
1.00510542441e-15
1.00457315337e-15
1.00456876533e-15
1.00490296134e-15
1.00565812967e-15
1.00719405933e-15
1.01141100736e-15
1.03588888207e-15
1.03755896889e-15
1.86906409791e-15
0.010894899527
0.000109184250971
1e-15
1e-15
1e-15
1.00291848728e-15
1.02140961622e-15
1.0167959883e-15
1.00742835173e-15
1.00378874166e-15
1.00283457531e-15
1.00256610742e-15
1.00263225293e-15
1.00291951897e-15
1.00350180661e-15
1.00469080922e-15
1.00782678095e-15
1.03512606813e-15
1.04692998406e-15
1.87173629245e-15
0.0173729667349
0.000283478865761
3.25613073027e-07
1e-15
1e-15
1e-15
1.00802831077e-15
1.0065256107e-15
1.00271941445e-15
1.00141143028e-15
1.00096901447e-15
1.00087126342e-15
1.00095014176e-15
1.00115867866e-15
1.00154408694e-15
1.00235311531e-15
1.00466237805e-15
1.03435631922e-15
1.05344572969e-15
1.86906409791e-15
0.0300040664085
0.000844530097186
4.14801754121e-06
1e-15
1e-15
1e-15
1.00164630435e-15
1.00161957769e-15
1.00044120826e-15
1.00013967662e-15
1.00006584991e-15
1.0000588138e-15
1.00008192363e-15
1.00013446472e-15
1.00024720468e-15
1.00056165552e-15
1.00201245207e-15
1.03465098915e-15
1.06000050474e-15
1.87078835289e-15
0.0553366324215
0.00275519741386
3.26897437664e-05
2.76499005794e-08
1e-15
1e-15
1e-15
1.00002881994e-15
1e-15
1e-15
1e-15
1e-15
1e-15
1e-15
1e-15
1e-15
1.00032211619e-15
1.0367911433e-15
1.07302903759e-15
1.86906409791e-15
0.102343467937
0.00937509767932
0.000212915592129
6.25906705704e-07
1e-15
1e-15
1e-15
1e-15
1e-15
1e-15
1e-15
1e-15
1e-15
1e-15
1e-15
1e-15
1e-15
1.04109684291e-15
1.0958029022e-15
1.86944449145e-15
0.171144585036
0.0288461816512
0.00115653658131
8.78749517354e-06
1e-15
1e-15
1e-15
1e-15
1e-15
1e-15
1e-15
1e-15
1e-15
1e-15
1e-15
1e-15
1e-15
1.04714985198e-15
1.12517068143e-15
1.86666586704e-15
0.243555342323
0.0691402282763
0.00509588676802
8.10672422581e-05
2.66233514381e-08
1e-15
1e-15
1e-15
1e-15
1e-15
1e-15
1e-15
1e-15
1e-15
1e-15
1e-15
1e-15
1.05475106963e-15
1.15479340484e-15
1.85021718263e-15
0.298461205547
0.123451112683
0.0169698805059
0.000526202204609
1.20587158543e-06
1e-15
1e-15
1e-15
1e-15
1e-15
1e-15
1e-15
1e-15
1e-15
1e-15
1e-15
1.00888429501e-15
1.06367786013e-15
1.18042282802e-15
1.83888244631e-15
0.332284929287
0.174735027299
0.0394190293629
0.0023680454349
1.83203123697e-05
1.04347051278e-15
1e-15
1e-15
1e-15
1e-15
1e-15
1e-15
1e-15
1e-15
1e-15
1e-15
1.02004331481e-15
1.07374237205e-15
1.20013412781e-15
1.83673044007e-15
0.353047695069
0.215761590205
0.0685819034607
0.00716709162074
0.000133775426088
1.17227198967e-15
1e-15
1e-15
1e-15
1e-15
1e-15
1e-15
1e-15
1e-15
1e-15
1e-15
1.02936113853e-15
1.0845175939e-15
1.21431526379e-15
1.8431010422e-15
0.367195031079
0.248845575264
0.100010335338
0.0159238822119
0.000572227909317
6.39870767159e-07
1e-15
1e-15
1e-15
1e-15
1e-15
1e-15
1e-15
1e-15
1e-15
1.01450720541e-15
1.03906503501e-15
1.09567882315e-15
1.22479220209e-15
1.85992227285e-15
0.377978305724
0.277326575607
0.131948758197
0.028895191221
0.0017321340899
9.2424855695e-06
1e-15
1e-15
1e-15
1e-15
1e-15
1e-15
1e-15
1.00559244206e-15
1.01643586714e-15
1.02612958547e-15
1.04875888807e-15
1.10708784041e-15
1.23297206024e-15
1.88354259907e-15
0.386540896326
0.302605554428
0.16372801808
0.0458401998432
0.00412214056903
5.19819907612e-05
1.11317078656e-15
1e-15
1e-15
1e-15
1.00727283222e-15
1.01148211866e-15
1.01628974494e-15
1.02091987798e-15
1.02569418745e-15
1.03270272322e-15
1.05756075424e-15
1.11857963302e-15
1.23979586476e-15
1.91037601325e-15
0.393019330845
0.325969837459
0.195339158746
0.0661432413214
0.00823956076694
0.000186431804648
1e-15
1e-15
1e-15
1.00157434186e-15
1.01791114384e-15
1.02207283614e-15
1.02388058088e-15
1.0264776014e-15
1.03067457199e-15
1.03773615287e-15
1.06503447908e-15
1.12978625563e-15
1.24667511879e-15
1.93809498464e-15
0.399290762419
0.348330294847
0.226534895144
0.089018347267
0.0145134383999
0.000519178492178
4.79664465797e-07
1e-15
1e-15
1.00062888882e-15
1.01896282198e-15
1.02548933835e-15
1.02733218902e-15
1.02969544803e-15
1.03377400643e-15
1.04085193674e-15
1.07102261973e-15
1.14032358473e-15
1.25467453657e-15
1.96538927588e-15
0.407324376453
0.368212952207
0.256195510936
0.114155870465
0.0236015876165
0.00129174052644
5.31359470809e-06
1.00079469476e-15
1e-15
1e-15
1.01157216377e-15
1.02486024467e-15
1.02849021192e-15
1.03078815085e-15
1.03468721317e-15
1.04185888405e-15
1.07569977222e-15
1.15003590212e-15
1.26390904908e-15
1.99117552956e-15
0.414736924354
0.385043898245
0.284621759878
0.14234893094
0.0365060202154
0.00300614932648
3.33692774672e-05
1e-15
1e-15
1.00095721781e-15
1.0033767949e-15
1.02128029334e-15
1.0274248316e-15
1.02973208057e-15
1.03348297325e-15
1.04096803799e-15
1.07919242675e-15
1.15907320538e-15
1.27208293265e-15
2.01541670547e-15
0.417460511278
0.400363833716
0.315416972684
0.176145752236
0.0548831047311
0.00653851790916
0.000158464229278
2.34990090023e-08
1e-15
1e-15
1e-15
1.00880369035e-15
1.02227657338e-15
1.02592174371e-15
1.02972313197e-15
1.03778891969e-15
1.08187957529e-15
1.1677813421e-15
1.27556642289e-15
2.03895773787e-15
0.417377195632
0.416711815114
0.348935671105
0.216021096069
0.0808105177617
0.0134975183955
0.000666081854664
5.14298596067e-06
1e-15
1e-15
1e-15
1.0006762797e-15
1.01564133285e-15
1.02020674248e-15
1.02405936181e-15
1.03308042086e-15
1.08601437645e-15
1.18140828223e-15
1.27597739529e-15
2.06218607407e-15
0.417413070203
0.427604209354
0.37843616794
0.260397788929
0.115908213943
0.0261664703402
0.00236432703355
6.57135884686e-05
2.40394508007e-07
1e-15
1e-15
1.00074061394e-15
1.00886566709e-15
1.01336556097e-15
1.01683663139e-15
1.02769310642e-15
1.09082249928e-15
1.21338614602e-15
1.28764507471e-15
2.07413887063e-15
0.417447452869
0.427573067002
0.409452079971
0.309015080553
0.159800951147
0.0470677405077
0.00684493519829
0.000470484953085
1.06719087137e-05
5.1859374195e-09
1e-15
1e-15
1e-15
1.00023597724e-15
1.00806995732e-15
1.01882128291e-15
1.08929481485e-15
1.24319063444e-15
1.32271378965e-15
2.09432805518e-15
0.416042620521
0.427809420096
0.427573067002
0.348013603695
0.207516583347
0.0782020333218
0.0167863503276
0.00214246001944
0.000135477220015
1.47979281672e-06
1e-15
1e-15
1e-15
1.00047564932e-15
1.00148039842e-15
1.00624980397e-15
1.07421027351e-15
1.22593418198e-15
1.36897195002e-15
2.13641592705e-15
0.410026413207
0.427573067002
0.427968839469
0.372926999035
0.252066082546
0.11814546034
0.0351752942052
0.00684440551544
0.000880668925971
4.13407405616e-05
6.49578236581e-08
1e-15
1e-15
1.0001862577e-15
1e-15
1e-15
1.04412043021e-15
1.18746967339e-15
1.39793221553e-15
2.21055704307e-15
0.394881898197
0.427850736367
0.427573067002
0.401071001784
0.29622703187
0.165596979091
0.0645566652446
0.0173537448892
0.0033986373806
0.000383681826432
9.35863752487e-06
2.68863536227e-10
1e-15
1e-15
1e-15
1e-15
1.00062187776e-15
1.13803083718e-15
1.40384424565e-15
2.3011166021e-15
0.368994120292
0.427573067002
0.428324147955
0.427573067002
0.341237043991
0.220808999695
0.106979239812
0.0370815604339
0.00959021081656
0.00179641485219
0.000143056784496
7.16116587658e-07
1e-15
1e-15
1e-15
1e-15
1e-15
1.05944608237e-15
1.38428656053e-15
2.43758543798e-15
0.331564096863
0.423053800996
0.427573067002
0.428329798667
0.387592539513
0.281701655398
0.159418418917
0.0672265910077
0.0215244501612
0.0053576353995
0.000858322089277
4.21642120909e-05
1.27350601052e-08
6.99482246157e-14
3.61454986575e-14
3.3512045474e-14
2.70995823184e-14
1.71465404084e-15
1.38473763521e-15
2.56834573151e-15
0.283855232447
0.401188143991
0.428560754653
0.427573067002
0.427779694206
0.336122774495
0.209369945231
0.101183238839
0.0383708283772
0.011691769621
0.00268050711746
0.000307144843822
5.19404115402e-06
1.75701695643e-09
1.50082531393e-09
1.35309059595e-09
1.14660510371e-09
2.8980529643e-11
1.10555447168e-13
7.28431684586e-15
0.237949943437
0.363236707056
0.427573067002
0.428907821209
0.427573067002
0.366569499708
0.243774782804
0.127595614296
0.0545690426541
0.0193895943967
0.00551128601047
0.00101018930976
6.31712174694e-05
1.41863496422e-06
3.09794436558e-06
4.9822963705e-06
5.4428421003e-06
4.08146756956e-07
3.11214228345e-09
1.6317712574e-10
0.218163350527
0.319505795434
0.428139369651
0.427573067002
0.428293163916
0.383243203692
0.267204768719
0.148446394656
0.0695780531111
0.0280503450991
0.00945525525046
0.00232138555343
0.000299863045525
8.13853915782e-05
0.000445925691638
0.00124730036077
0.00171438871827
0.000329635442012
8.56533260063e-06
5.95780909776e-07
0.217503297679
0.277319742924
0.42504272095
0.428922084866
0.427573067002
0.398869645964
0.293981590766
0.175714655933
0.0910718242394
0.0421443976457
0.0172709981291
0.0058809580106
0.00135273893975
0.000862157412389
0.00977188815511
0.0421153285706
0.0667352985483
0.0255463756467
0.00220186861349
0.000166240933861
0.217637089506
0.24549840324
0.408646438862
0.427573067002
0.428448433536
0.419882206787
0.329899808755
0.215640179405
0.125780791384
0.0682596701366
0.0354193293045
0.0182544781796
0.00594687626926
0.00703167211785
0.0881278001983
0.345017112861
0.503103104823
0.307341480738
0.0752192683774
0.00578119343702
0.21746053628
0.229430406675
0.373992272613
0.428631970745
0.427573067002
0.428018276601
0.371092196788
0.269375576952
0.17673376497
0.112319097346
0.0729977232122
0.0436375607965
0.0275422395185
0.121604791652
0.537488869671
0.662937072778
0.664971629104
0.662937072778
0.397371864058
0.0330307450956
0.217549109892
0.222393511194
0.331130376343
0.427573067002
0.428607860889
0.427573067002
0.404576754616
0.332644346086
0.247864225407
0.180387855149
0.12526015465
0.0799526881037
0.19690903254
0.641445144545
0.662851255001
0.665009275973
0.663213741893
0.664961982307
0.590640966027
0.0676220190453
0.217466587449
0.220218323217
0.294423394123
0.417747137387
0.427573067002
0.428023989394
0.427360597699
0.391197456909
0.329034784986
0.250364177797
0.16874592694
0.253593202798
0.628819124757
0.662444198592
0.664590186884
0.662851255001
0.664956820153
0.663134280895
0.635638836092
0.0902164480921
)
;

boundaryField
{
    emptyPatch
    {
        type            empty;
    }
    minY
    {
        type            fixedValue;
        value           nonuniform List<scalar> 0();
    }
    maxY
    {
        type            inletOutlet;
        phi             phi.gas;
        inletValue      nonuniform List<scalar> 0();
        value           nonuniform List<scalar> 0();
    }
    maxX
    {
        type            zeroGradient;
    }
    water_to_heater
    {
        type            zeroGradient;
    }
    procBoundary3to1
    {
        type            processor;
        value           nonuniform List<scalar> 
41
(
0.826826493662
0.802632275906
0.745498076915
0.655115183296
0.536656924336
0.401244754106
0.275117929485
0.218568213977
0.217695491982
0.217399120194
0.217606971737
0.217390275516
0.217529169228
0.858265942768
0.767914158984
0.76348768664
0.775119145231
0.797636949081
0.811358075593
0.826826493662
0.812397937526
0.217470265289
0.222280259667
0.269914812248
0.3847892022
0.428036117801
0.427573067002
0.427703346428
0.414677591916
0.361197280256
0.279386079191
0.318976757771
0.589357037835
0.661968487075
0.663127777962
0.662444198592
0.66434696944
0.662887992046
0.664114206742
0.646887272426
0.094488300287
)
;
    }
    procBoundary3to2
    {
        type            processor;
        value           nonuniform List<scalar> 
41
(
0.692722743299
0.654700516575
0.629409932909
0.590533124441
0.527038718409
0.443674133292
0.354985296664
0.288055133677
0.278107845237
0.277442281684
0.277909005563
0.277209808529
0.278526709496
0.317631286805
0.361084590613
0.360872749838
0.350580768751
0.277863636476
0.146323660615
0.0351729635968
1e-15
1.01162292307e-15
1.02852722661e-15
1.02929101905e-15
1.02852722661e-15
1.02879240514e-15
1.02852722661e-15
1.01649039662e-15
1.00989164518e-15
1.00954082785e-15
1.01001416422e-15
1.01124733914e-15
1.01367368016e-15
1.02072839735e-15
1.03455117585e-15
1.02814541571e-15
1.67751989262e-15
0.00200446870431
6.49733647245e-06
1e-15
1e-15
)
;
    }
}


// ************************************************************************* //
