/*--------------------------------*- C++ -*----------------------------------*\
| =========                 |                                                 |
| \\      /  F ield         | OpenFOAM: The Open Source CFD Toolbox           |
|  \\    /   O peration     | Version:  2312                                  |
|   \\  /    A nd           | Website:  www.openfoam.com                      |
|    \\/     M anipulation  |                                                 |
\*---------------------------------------------------------------------------*/
FoamFile
{
    version     2.0;
    format      ascii;
    arch        "LSB;label=32;scalar=64";
    class       volScalarField;
    location    "0.6/water";
    object      rhom;
}
// * * * * * * * * * * * * * * * * * * * * * * * * * * * * * * * * * * * * * //

dimensions      [1 -3 0 0 0 0 0];

internalField   nonuniform List<scalar> 
1503
(
915.307343366
948.788253632
985.483220384
996.362469662
999.314883059
999.893332775
999.98624738
999.998930018
999.999975663
999.99999978
999.999999999
1000
1000
1000
1000
1000
1000
1000
1000
1000
696.082855315
872.23898461
947.037613887
982.017441651
994.326297932
998.478187615
999.650987173
999.936719297
999.993498762
999.999855187
999.99999953
999.999999999
1000
1000
1000
1000
1000
1000
1000
1000
693.683457374
830.160700292
916.689889392
964.634883642
986.432366656
995.45647637
998.710347778
999.703776232
999.955087845
999.997615766
999.99998934
999.999999988
1000
1000
1000
1000
1000
1000
1000
1000
693.684097533
790.595731965
878.378797147
938.237341777
972.357750431
989.360240907
996.568430444
999.101680398
999.831225551
999.98445118
999.999791243
999.999999791
1000
1000
1000
1000
1000
1000
1000
1000
700.913619574
765.94151741
838.110116003
901.594893494
947.951375173
976.81717776
991.58137501
997.586677668
999.491084128
999.937654616
999.997818622
999.999996792
999.999999998
1000
1000
1000
1000
1000
1000
1000
713.253202792
755.723420188
806.472740771
862.089186323
913.630796239
954.183117971
980.344130717
993.549881587
998.490263406
999.782730397
999.987138143
999.999922784
999.999999956
1000
1000
1000
1000
1000
1000
1000
722.236028661
755.082088551
788.684958389
830.4163279
877.391778204
922.931720726
959.82420188
983.862594713
995.485462863
999.23338512
999.938781512
999.998860528
999.999999151
1000
1000
1000
1000
1000
1000
1000
722.857982226
756.108284899
783.169989139
812.819070174
849.469383535
891.139174703
932.274026215
966.253490818
988.008161656
997.416130556
999.729909666
999.990824805
999.99997554
999.999999991
1000
1000
1000
1000
1000
1000
724.958540802
760.850490859
781.8164448
803.255555645
830.393720694
864.971889978
904.327235653
942.974284204
974.305846587
992.658274944
998.952380078
999.946077589
999.999518509
999.999999787
1000
1000
1000
1000
1000
1000
731.830556445
769.710372696
782.204804409
796.168884776
816.234733357
845.287622945
881.11232393
919.585167055
955.882880379
983.420825848
996.709502751
999.750702193
999.995398665
999.999997031
1000
1000
1000
1000
1000
1000
741.61114775
777.314767586
781.117828295
788.404233831
803.995570249
830.251286367
863.437165534
899.489623608
935.962630131
969.581559635
991.716930862
999.063722545
999.969221706
999.999889208
999.999999993
1000
1000
1000
1000
1000
745.217698859
774.826921182
775.253012723
778.554257582
792.365764094
817.689392802
848.72529525
881.318095529
915.404756903
951.353565801
982.225044091
996.98410664
999.826868561
999.997824621
999.999999989
1000
1000
1000
1000
1000
735.323161517
759.474944553
763.922503516
768.314883071
782.00737738
805.54073436
833.576636191
862.688205232
893.467872387
928.373175664
965.619207937
991.192739937
999.11177545
999.974185027
999.999937853
1000
1000
1000
1000
1000
707.402567066
736.410476814
748.940912343
757.776378225
771.986473862
792.883044407
817.399124411
843.522116468
871.044084787
902.285389039
940.32664013
977.255127971
996.057436555
999.770563269
999.997100281
999.99999981
1000
1000
1000
1000
695.230019042
725.865515778
737.056334502
747.859416792
763.358300441
783.776750168
806.031251753
828.715579265
852.45438464
878.054781046
910.499414218
952.15081838
986.470727039
998.564560805
999.959392522
999.999877226
999.999999997
1000
1000
1000
696.532317231
724.456543178
731.190472279
741.574899233
758.83811179
781.485326167
804.536008124
825.198100586
842.774934503
860.858152057
883.920122222
920.988397254
966.734868962
994.053377995
999.682302396
999.99653687
999.999999789
1000
1000
1000
694.456203896
725.482278962
731.06422393
741.157662967
758.837554438
782.164101162
805.829036365
826.551684289
842.283676613
852.416127315
865.508783809
893.51251093
941.002678163
983.792936277
998.515085782
999.968446967
999.99993577
999.999999998
1000
1000
696.378080079
729.043504473
733.723255634
743.843427592
761.967423677
786.365161822
811.106766059
831.721064791
844.55488762
849.277327972
855.313950658
875.451618236
918.736641195
969.563355649
995.679916989
999.848961229
999.999130807
999.999999614
1000
1000
694.456349899
735.583520092
739.218380736
751.08728102
770.920050633
796.678301228
822.292173227
842.28902178
849.481878844
849.4822078
850.464949105
865.496935506
904.527917208
956.671185262
991.575068351
999.565312958
999.995850424
999.999995663
999.999999998
1000
696.531911437
742.966095119
747.32787229
762.535580719
785.578564663
813.070577804
838.258448848
849.512896998
849.640158948
849.543102386
849.575153983
859.848708065
895.704394006
947.479985979
987.446633193
999.135053615
999.988605289
999.999981531
999.999999988
1000
695.241540552
749.378409763
756.959660965
775.521331202
801.433864118
829.457784821
849.359568536
849.640088806
849.527000051
849.73428111
847.539471819
854.128413972
887.567463104
939.40743311
983.193110467
998.544226182
999.975211211
999.999947769
999.999999964
1000
696.564851778
754.76993661
767.298679661
786.822354292
811.839472675
837.086379595
849.576915063
849.494781963
849.792830182
849.526988704
838.595522355
844.199573661
875.096541533
926.930459977
976.415034166
997.389624594
999.939438767
999.999809226
999.999999893
1000
696.305705755
760.293854357
777.13573873
794.612505503
815.484227573
837.651581806
849.464396993
849.741829351
849.494785908
836.529594302
824.98077809
829.723630828
853.690461784
902.766906566
961.680273309
994.200068287
999.792298143
999.998790927
999.999999715
1000
700.626460532
766.0653796
778.63038169
794.152322401
813.762858703
834.126950478
846.0023841
844.353154651
834.182050612
822.243903867
821.797027954
821.876185478
829.536809665
866.723435843
931.931178549
984.950354831
999.106886999
999.989992406
999.999995153
1000
717.503559328
768.199948652
772.582562363
783.549895629
801.842615054
820.499984494
828.892208954
825.714696164
819.476818413
820.877698371
821.717089965
821.791820953
821.891513838
833.879444142
888.808701827
963.366129959
996.300942574
999.917699562
999.999749965
999.999999999
731.061022246
758.120327825
750.628356204
755.121106846
774.682622639
797.093840334
807.852220676
811.358092617
817.089270866
823.762758591
827.636315249
824.847910451
821.891994705
822.126373865
852.959831367
929.406286712
987.775511876
999.47062165
999.99545803
999.999999622
726.610802511
728.510171474
715.633302548
718.11676913
741.16735999
771.225457007
790.869444044
804.109666921
818.314784643
832.257352978
839.875593717
834.565679026
824.789854969
822.18443512
835.551692312
896.431017434
970.842393884
997.660639432
999.959693884
999.999952523
703.905867155
694.537310691
687.926290095
691.37912074
713.301530703
747.500799703
776.579906043
799.038602866
821.05917983
842.362472518
851.070785171
846.100357015
833.458164932
824.967978877
833.85065687
875.147859814
948.680146892
992.944969101
999.778263632
999.998904887
671.093653242
675.54711928
674.440199964
677.382794322
694.923965361
728.294321439
763.627029103
794.175794858
823.32092039
848.733788777
854.721987542
852.879157617
844.336110369
834.019958247
836.258736912
862.33207304
926.875973875
984.565175516
999.183129007
999.991882171
663.379905442
671.146048776
670.308007626
670.895201081
684.407984676
715.51484196
753.830895015
790.531964377
825.184713246
851.817111347
855.047448014
854.858576645
851.949718998
844.871746033
840.617923885
854.295389393
907.107362654
972.834039029
997.78336225
999.964173362
664.721300992
670.081180919
670.218601071
670.342062349
680.081664433
709.213833617
748.93215586
789.610362945
828.065581291
853.649291569
855.288954127
855.122580705
854.66695739
851.292853172
843.713449813
847.497596742
887.53198358
957.841238527
995.046568296
999.877122291
662.206425858
670.467746687
670.326321679
670.453365787
679.521931488
708.179363568
748.513143938
791.310532397
832.99729984
854.71900877
855.431139703
855.421812597
855.054140017
854.430048018
845.154862
838.618027809
868.414222127
940.116900896
990.26851825
999.63529896
664.67352883
672.457255146
670.438489929
670.860045624
681.630594957
710.905286044
752.095156198
797.847833037
840.093122726
855.200057436
855.537339914
855.450655612
855.47738555
854.889919032
845.233101758
828.040103708
851.897956826
921.716609062
983.060912759
999.065931003
661.885364202
677.029169478
672.680819001
675.153858386
689.731189233
720.964908964
763.176392287
809.71204348
847.994572741
855.518890292
855.450618072
855.775523369
855.450646898
855.298411857
843.664022533
818.961211251
840.023749919
905.814254865
974.254048515
998.017615477
664.673506723
684.199182341
679.483379242
685.475796146
705.020496997
738.785181651
781.12129093
825.568336079
853.998080182
855.450572244
855.789226771
855.453079935
855.895339871
855.450628906
838.310510487
818.525222447
834.60534201
894.782849002
965.64627054
996.495080284
661.984959052
693.684571057
691.075052198
701.657709145
726.330821004
762.238051744
803.519983413
842.692608508
855.450515945
855.732490328
855.453043798
855.979318848
855.453067564
855.609050632
829.696692719
818.624171059
833.023643393
887.95045027
957.914506993
994.532577363
664.720500454
704.568742281
708.124721515
724.333624771
752.669114042
789.144377904
827.569306054
853.920984278
855.626060672
855.452998303
856.02265593
855.453039772
856.044012951
851.962750923
821.070213013
818.526171688
831.920013158
881.351514269
949.695102093
991.962997221
662.461002192
718.152291787
731.59886963
753.941328879
783.278225316
816.826054765
848.316962589
855.575525504
855.452941748
856.030755493
855.45300193
856.148638388
855.453019467
839.996087699
818.568108591
818.6093697
828.952616056
870.994932819
938.363738202
988.214377268
1000
1000
1000
1000
1000
1000
1000
1000
1000
1000
1000
1000
1000
1000
1000
1000
1000
1000
1000
1000
1000
1000
1000
1000
1000
1000
1000
1000
1000
1000
1000
1000
1000
1000
1000
1000
1000
1000
1000
1000
1000
1000
1000
1000
1000
1000
1000
1000
1000
1000
1000
1000
1000
1000
1000
1000
1000
1000
1000
1000
1000
1000
1000
1000
1000
1000
1000
1000
1000
1000
1000
1000
1000
1000
1000
1000
1000
1000
1000
1000
1000
1000
1000
1000
1000
1000
1000
1000
1000
1000
1000
1000
1000
1000
1000
1000
1000
1000
1000
1000
1000
1000
1000
1000
1000
1000
1000
1000
1000
1000
1000
1000
1000
1000
1000
1000
1000
1000
1000
1000
1000
1000
1000
1000
1000
1000
1000
1000
1000
1000
1000
1000
1000
1000
1000
1000
1000
1000
1000
1000
1000
1000
1000
1000
1000
1000
1000
1000
1000
1000
1000
1000
1000
1000
1000
1000
1000
1000
1000
1000
1000
1000
1000
1000
1000
1000
1000
1000
1000
1000
1000
1000
1000
1000
1000
1000
1000
1000
1000
1000
1000
1000
1000
1000
1000
1000
1000
1000
1000
1000
1000
1000
1000
1000
1000
1000
1000
1000
1000
1000
1000
1000
1000
1000
1000
1000
1000
1000
1000
1000
1000
1000
1000
1000
1000
1000
1000
1000
1000
1000
1000
1000
1000
1000
1000
1000
1000
1000
1000
1000
1000
1000
1000
1000
1000
1000
1000
1000
1000
1000
1000
1000
1000
1000
1000
1000
1000
1000
1000
1000
1000
1000
1000
1000
1000
1000
1000
1000
1000
1000
1000
1000
1000
1000
1000
1000
1000
1000
1000
1000
1000
1000
1000
1000
1000
1000
1000
1000
1000
1000
1000
1000
1000
1000
1000
1000
1000
1000
1000
1000
1000
1000
1000
1000
1000
1000
1000
1000
1000
1000
1000
1000
1000
1000
1000
1000
1000
1000
1000
1000
1000
1000
1000
1000
1000
1000
1000
1000
1000
1000
1000
1000
1000
1000
1000
1000
1000
1000
1000
1000
1000
1000
1000
1000
1000
1000
1000
1000
1000
1000
1000
1000
1000
1000
1000
1000
1000
1000
1000
1000
1000
1000
1000
1000
1000
1000
1000
1000
1000
1000
1000
1000
1000
1000
1000
1000
1000
1000
1000
1000
1000
1000
1000
1000
1000
1000
1000
1000
1000
1000
1000
1000
1000
1000
1000
1000
1000
1000
1000
1000
1000
1000
1000
1000
1000
1000
1000
1000
1000
1000
1000
1000
1000
1000
1000
1000
1000
1000
1000
1000
1000
1000
1000
1000
1000
1000
1000
1000
1000
1000
1000
1000
1000
1000
1000
1000
1000
1000
1000
1000
1000
1000
1000
1000
1000
1000
1000
1000
1000
1000
1000
1000
1000
1000
1000
1000
1000
1000
1000
1000
1000
1000
1000
1000
1000
1000
1000
1000
1000
1000
1000
1000
1000
1000
1000
1000
1000
1000
1000
1000
1000
1000
1000
1000
1000
1000
1000
1000
1000
1000
1000
1000
1000
1000
1000
1000
1000
1000
1000
1000
1000
1000
1000
1000
1000
1000
1000
1000
1000
1000
1000
1000
1000
1000
1000
1000
1000
1000
1000
1000
1000
1000
1000
1000
1000
1000
1000
1000
1000
1000
1000
1000
1000
1000
1000
1000
1000
1000
1000
1000
1000
1000
1000
1000
1000
1000
1000
1000
1000
1000
999.999999998
1000
1000
1000
1000
1000
1000
1000
1000
1000
1000
1000
1000
1000
1000
1000
1000
1000
1000
1000
999.99999993
1000
1000
1000
1000
1000
1000
1000
1000
1000
1000
1000
1000
1000
1000
1000
1000
1000
1000
1000
999.99999195
1000
1000
1000
1000
1000
1000
1000
1000
1000
1000
1000
1000
1000
1000
1000
1000
1000
1000
1000
999.999784173
1000
1000
1000
1000
1000
1000
1000
1000
1000
1000
1000
1000
1000
1000
1000
1000
1000
1000
1000
999.998510773
1000
1000
1000
1000
1000
1000
1000
1000
1000
1000
1000
1000
1000
1000
1000
1000
1000
1000
1000
999.993261874
1000
1000
1000
1000
1000
1000
1000
1000
1000
1000
1000
1000
1000
1000
1000
1000
1000
1000
1000
999.977909417
1000
1000
1000
1000
1000
1000
1000
1000
1000
1000
1000
1000
1000
1000
1000
1000
1000
1000
1000
999.944103772
1000
1000
1000
1000
1000
1000
1000
1000
1000
1000
1000
1000
1000
1000
1000
1000
1000
1000
1000
999.881411585
1000
1000
1000
1000
1000
1000
1000
1000
1000
1000
1000
1000
1000
1000
1000
1000
1000
1000
1000
999.774922498
999.999970817
1000
1000
1000
1000
1000
1000
1000
1000
1000
1000
1000
1000
1000
1000
1000
1000
1000
1000
999.59281353
999.999817274
1000
)
;

boundaryField
{
    emptyPatch
    {
        type            empty;
    }
    minY
    {
        type            calculated;
        value           uniform 1000;
    }
    maxY
    {
        type            calculated;
        value           nonuniform List<scalar> 0();
    }
    water_to_cooler
    {
        type            calculated;
        value           nonuniform List<scalar> 
37
(
1000
1000
1000
1000
1000
1000
1000
1000
1000
1000
1000
1000
1000
1000
1000
1000
1000
1000
1000
1000
1000
1000
1000
1000
1000
1000
1000
1000
1000
1000
1000
1000
1000
1000
1000
1000
1000
)
;
    }
    water_to_heater
    {
        type            calculated;
        value           nonuniform List<scalar> 
61
(
915.24948339
695.916079732
695.916130905
693.518942321
693.518963277
693.51872324
693.518730227
700.749569687
713.09243525
722.077588896
722.07758369
722.698905793
722.698900694
724.799942859
724.79993823
731.674497696
741.458864729
745.066592701
745.06659038
735.167835282
735.167833436
707.236775025
707.236773201
695.060465077
696.364265383
694.287363239
694.287361099
696.210376884
696.210374299
694.28765004
694.287646893
696.364201986
695.072970448
696.39678795
696.396784211
696.137251987
696.137248113
700.458883082
700.458878869
717.341616022
730.903893044
726.451171296
726.451167211
703.737818752
703.737814676
670.916363585
670.916359402
663.202516782
664.545844021
662.03028833
662.030284145
664.498817603
664.498813156
661.709341429
661.709336383
664.498788985
661.808905268
664.545765014
664.545758495
662.285125442
662.285117739
)
;
    }
    procBoundary2to3
    {
        type            processor;
        value           nonuniform List<scalar> 
41
(
664.720467001
736.571665184
759.112006172
787.040309235
814.675476548
841.010858766
855.525182778
855.452867166
856.043805499
855.45295536
856.201084192
855.452987535
854.676880752
826.877950337
818.609334635
818.585372441
822.685377036
853.544773017
920.218198035
981.958158983
1000
1000
1000
1000
1000
1000
1000
1000
1000
1000
1000
1000
1000
1000
1000
1000
1000
999.23735717
999.999238453
1000
1000
)
;
    }
}


// ************************************************************************* //
