/*--------------------------------*- C++ -*----------------------------------*\
| =========                 |                                                 |
| \\      /  F ield         | OpenFOAM: The Open Source CFD Toolbox           |
|  \\    /   O peration     | Version:  2312                                  |
|   \\  /    A nd           | Website:  www.openfoam.com                      |
|    \\/     M anipulation  |                                                 |
\*---------------------------------------------------------------------------*/
FoamFile
{
    version     2.0;
    format      ascii;
    arch        "LSB;label=32;scalar=64";
    class       volScalarField;
    location    "0.71/water";
    object      km;
}
// * * * * * * * * * * * * * * * * * * * * * * * * * * * * * * * * * * * * * //

dimensions      [0 2 -2 0 0 0 0];

internalField   nonuniform List<scalar> 
6000
(
0.0347613363842
0.00815506691037
0.00153294090165
0.000308216801764
0.000148030477187
0.000138499333142
0.000140090697586
0.000141216121918
0.000141662191953
0.000141596749439
0.000141194581424
0.00014062960365
0.000140033485506
0.000139486358766
0.000139026396082
0.000138663193885
0.000138390112942
0.000138193419168
0.000138058197904
0.000137971483256
0.476776170471
0.149448599904
0.0412757389111
0.00951941966876
0.00175657807852
0.000343408729105
0.000154009647916
0.000140901753347
0.000142309446129
0.000142941393865
0.000142854988742
0.000142395811829
0.000141745231283
0.000141023435782
0.000140318554356
0.000139688730794
0.0001391638871
0.000138751745292
0.00013844618963
0.000138234941293
0.673898038971
0.253510534664
0.0910349721664
0.029204158995
0.00750670136486
0.00146911029438
0.000301866511155
0.000151402736082
0.000142392962039
0.000143436665459
0.000143871401302
0.000143715875403
0.000143233387667
0.000142561182789
0.000141797801081
0.000141026885675
0.000140314369206
0.000139703379893
0.000139214681854
0.000138852099036
0.827710027244
0.330432361435
0.131248205438
0.0500427943051
0.0167375362428
0.00434231424654
0.000854918061074
0.000216629180557
0.000146583344367
0.000143594454446
0.000144332678695
0.000144532465072
0.000144302808657
0.000143802108214
0.000143125010552
0.000142352883178
0.000141564212181
0.000140827430652
0.000140192476401
0.000139688100385
0.904954059904
0.379272005993
0.159852281289
0.0667559496632
0.0260578921567
0.00861074317918
0.00211332223548
0.000428897118581
0.000167721493006
0.000144830773317
0.000144515720387
0.000144979908417
0.000145006595164
0.000144707809336
0.000144177034846
0.00014348602041
0.000142708490127
0.00014192085497
0.000141192317701
0.000140575213671
0.911624299683
0.401346820311
0.178644645251
0.0795714082473
0.0341654558417
0.013202522569
0.00408602674086
0.000920088522752
0.000235474771662
0.000150738902805
0.000144907323472
0.000145222545278
0.000145443060829
0.000145324768752
0.000144943149905
0.000144361611939
0.00014364312979
0.000142859585842
0.000142086803151
0.000141392897164
0.883860799136
0.404037765382
0.188414014671
0.088359500418
0.0404208314317
0.0172544142016
0.00631247473727
0.001739712955
0.000396307624391
0.000169612193593
0.000146470669317
0.000145424281537
0.000145677464723
0.000145690133776
0.000145437664535
0.000144968478236
0.000144332818936
0.000143591344733
0.000142816314259
0.000142081915476
0.86265016717
0.402700224231
0.193726371704
0.094046446575
0.0447895034943
0.0203590115109
0.00839652522952
0.00280292839341
0.000700802047711
0.000218579157191
0.000151610150539
0.000145875010813
0.000145772713488
0.000145836351398
0.000145687894167
0.000145328665391
0.000144790463574
0.000144118543315
0.000143375111836
0.000142634891559
0.855945524387
0.406433753271
0.198600245305
0.0979230200747
0.0476537629257
0.022635786552
0.0101994299973
0.00399443113284
0.00120259044284
0.000330798595847
0.000167576944359
0.000147423117708
0.000145907266505
0.000145856513362
0.000145772109527
0.000145514156329
0.00014507893278
0.000144492364978
0.000143803055443
0.000143078742232
0.87613801263
0.419682797351
0.20479220665
0.100664100812
0.0494731857711
0.0243424560906
0.0117788669667
0.00525211361748
0.00190781914087
0.000557973053277
0.000214467774571
0.000153078165181
0.000146579805691
0.000145953278777
0.000145837601452
0.000145651166147
0.000145306363633
0.000144800088554
0.000144164778952
0.000143459327504
0.945384473194
0.444503247647
0.211388704303
0.102614723457
0.0510730218856
0.0260139557917
0.0133678912211
0.006589104538
0.00282834972144
0.000959614342248
0.000331862806514
0.000173375667068
0.000149073396496
0.000146466723277
0.000146083460632
0.000145893061753
0.000145595641379
0.000145136720679
0.000144529366768
0.000143823151517
1.04783607358
0.465756476217
0.21671482824
0.105536207863
0.0535213821732
0.0280854126767
0.0150837022771
0.00803102193306
0.00392602479921
0.00156485211581
0.000558612377555
0.000236493503964
0.000157258441478
0.000147934744341
0.000146704678343
0.000146367328003
0.000146042632147
0.000145572929684
0.000144945078088
0.000144199618945
1.07573192435
0.476685535586
0.222176551165
0.108995984743
0.0561029379987
0.0301375550692
0.0167565739649
0.00945876435833
0.00508054095848
0.00230946130646
0.000895912834851
0.000379195107892
0.000183828650577
0.000151433071122
0.000147840268238
0.000147123672149
0.000146679034818
0.000146129859826
0.00014542363291
0.00014459263471
1.08145038238
0.480355829325
0.224471389547
0.110858647736
0.0577976952025
0.0317015103912
0.0181665442525
0.010703637655
0.00615925726087
0.00306853087286
0.00128619838919
0.00059454103481
0.000255530717353
0.00016023583152
0.000149666668697
0.000148146987769
0.000147481358346
0.000146787773867
0.000145948897366
0.00014498935425
1.08002386886
0.480400092343
0.225018025839
0.11160640878
0.0587052511119
0.0327177466532
0.0192271195996
0.0117243916145
0.0070704381321
0.00374253251443
0.00164764975266
0.000820120594502
0.000388109977999
0.000181849875458
0.00015257007527
0.000149403832771
0.000148411041379
0.00014751799618
0.000146501748972
0.00014537921141
1.07609296498
0.479945933389
0.225238986242
0.111867733726
0.0591156218474
0.0333456865415
0.0200055497166
0.0125338945303
0.00779145070917
0.00429210394468
0.00194153801728
0.00100434547372
0.000548919789816
0.000224641664427
0.000157354727603
0.000150893800526
0.000149443136688
0.000148305064936
0.000147078067034
0.000145767567426
1.07898809035
0.481170038847
0.225937008855
0.112206004376
0.0594574906689
0.0338427486299
0.020635937767
0.0131903709829
0.00836326517425
0.00472982837441
0.00218538321762
0.0011430413745
0.000691689711676
0.000293354616268
0.000165092386087
0.000152637303514
0.000150557570194
0.000149144416964
0.000147689372392
0.000146176328195
1.09323551539
0.486252556607
0.228086811892
0.113322172967
0.0601778923974
0.0344410184828
0.0212035826027
0.0137138706418
0.00882204019323
0.00511076106686
0.00243286986415
0.00126971642935
0.000810061012317
0.00038517548363
0.000179354991066
0.000154982417516
0.000151764866824
0.00015003640041
0.000148353233703
0.000146634390892
1.12170852808
0.496670557946
0.232445086112
0.115654218932
0.0615382877456
0.0352636748275
0.0217426798097
0.0141362395615
0.00922552607467
0.00550991546057
0.00275648983561
0.00142828005973
0.000929798700521
0.000498814520913
0.000212431688531
0.000159116731287
0.000153160368481
0.000150982903556
0.000149078800142
0.000147162142675
1.14934844937
0.507932896749
0.238320299316
0.119283281775
0.0636485584312
0.0363202820763
0.022257193215
0.0144873353694
0.00960004427712
0.00596026986347
0.00317379509004
0.00164126130554
0.00107600045463
0.000650947438205
0.000288511599282
0.000168534428718
0.000155120105448
0.000152013958106
0.00014985970168
0.000147758371381
1.1487466271
0.514335508592
0.246081560528
0.125026751245
0.0666915463849
0.0374815793321
0.0226046789322
0.0146627970183
0.00986698338698
0.0064201409118
0.00362898197733
0.00188344740663
0.00125878764822
0.000861871187069
0.000437448635794
0.00019550695009
0.000158757257
0.00015325035883
0.000150686679593
0.000148401398585
1.12950303931
0.525547438129
0.2594548184
0.133051412432
0.069799138486
0.038080691536
0.0224959138984
0.0145965933721
0.0100121728746
0.00677380305638
0.00403618663781
0.00206874599525
0.00142222585855
0.00110365995469
0.000670069353142
0.000270202541668
0.000166595160035
0.000154920670579
0.000151561642258
0.000149063923739
1.1615201133
0.557565313751
0.27874066997
0.14080601046
0.0715770950826
0.0380036148278
0.0223815919997
0.0145618798706
0.0100917680504
0.0070212398495
0.00435907415452
0.00220378274847
0.00145213288046
0.001280070125
0.000936438017254
0.000427285905571
0.000185223837088
0.00015746063232
0.000152512456893
0.000149732716959
1.25973618097
0.609431048171
0.298217590962
0.146099462667
0.0728446869869
0.0387129696679
0.0227573221224
0.0147274090532
0.010228939601
0.00725695643507
0.00465893611013
0.0023205709123
0.00143796219696
0.00130721256726
0.00113287803553
0.0006462650191
0.000229046389701
0.000161731442235
0.000153581844639
0.000150402107244
1.40765848047
0.66087020628
0.311656873282
0.150100152796
0.0756259451362
0.0405683157812
0.0237392707664
0.0151957474862
0.0105161212314
0.00757457342389
0.0050027802591
0.00246586931613
0.00142194680153
0.00128673303457
0.00121838963777
0.000846103469161
0.000313090830384
0.000169389030697
0.000154838210737
0.000151060625425
1.56228860052
0.697044894111
0.320805931137
0.155067636042
0.0794314828296
0.043220940583
0.0252197039803
0.015958890406
0.0109935974506
0.00802320808121
0.00541625825392
0.00267119438654
0.00142990042532
0.00127426592831
0.00124015215469
0.000979753012798
0.000433224348781
0.000182976510318
0.000156363031886
0.000151679623838
1.65078404811
0.718492705005
0.329919033296
0.16073356741
0.0832254084546
0.0456863548224
0.0267058899276
0.0168318992131
0.0116083902297
0.00855327116135
0.00586427374304
0.00296100227665
0.00148584837649
0.00128862266521
0.00126448481527
0.00106969022732
0.000567972832105
0.000206093077406
0.000158381196479
0.000152242962947
1.6798901087
0.729787271189
0.33567497624
0.16455125472
0.0858974068491
0.0475180077392
0.0279049057793
0.0176410706091
0.0122663761934
0.00909017691449
0.00629233378169
0.00329462751164
0.00160681194222
0.00133569885524
0.00132180327505
0.00116059824484
0.000705040898861
0.000245715240526
0.000161567519776
0.000152804771
1.70036478777
0.736563529348
0.339070401496
0.166766198695
0.0875054405249
0.0487435643918
0.0288209688461
0.0183902782974
0.0129354959266
0.00960268067827
0.00668970053103
0.00362451548538
0.0017665668843
0.00141757713614
0.00141840963107
0.00127482617473
0.000848896561272
0.000315607021969
0.000167317609942
0.000153503267725
1.71323084369
0.741829994296
0.34133634226
0.167767118395
0.088284182368
0.0494995773793
0.0295324483046
0.0190936207878
0.0135682884383
0.0100555139871
0.00703212723159
0.00391114316456
0.00193002741879
0.00152401838685
0.00153939446327
0.00141073665338
0.00100648855495
0.000429818877103
0.000178522182126
0.000154589095009
1.72937922919
0.747332900406
0.343529865991
0.168589676793
0.0888575059964
0.0500547039938
0.0301149781197
0.0197243828152
0.0141003186195
0.0104112839565
0.00729070681087
0.00412280687948
0.0020674038512
0.00163162017763
0.00165251048744
0.00152125048455
0.00117071876827
0.000585529773222
0.000201676310472
0.000156537072834
1.74542524333
0.753292674567
0.346163755534
0.169892367327
0.0895822424666
0.0505613042938
0.0306067067882
0.0202542998705
0.0144906273745
0.0106511051291
0.00744985377867
0.0042518450957
0.00216776144455
0.00172506761441
0.00174150263374
0.00161855749754
0.00131991616108
0.000755696155283
0.000247279138428
0.000160090003058
1.77061480555
0.759202196652
0.348680691202
0.171178442315
0.0902538673176
0.0509632025331
0.0309988239157
0.0206476150101
0.014720398186
0.0107706443306
0.00751254776959
0.0043149432201
0.00224061692092
0.0018015157957
0.00180738871128
0.001700291025
0.00143849613858
0.000911043431796
0.000324866929703
0.00016622051379
1.80176779446
0.768853089165
0.351787651017
0.172414074422
0.0908324182051
0.0512896993811
0.0313251268823
0.0208887830625
0.0148028547101
0.0107815010631
0.00749457518252
0.00433941720905
0.00230070832434
0.00185772521783
0.00185458146166
0.00176861294067
0.00151687324673
0.00104367983246
0.000434598159542
0.000176792532199
1.83559969374
0.778920872222
0.354891676268
0.173456418106
0.0912695421137
0.0515581600161
0.0315776687717
0.0209636460505
0.0147601086256
0.0106958544881
0.00741292381014
0.00434703355485
0.00235414703982
0.00189021944554
0.00188863149723
0.00182983840737
0.00159110174974
0.00116761447149
0.000566780564223
0.000195963146032
1.86249534683
0.787860893389
0.357601986375
0.174342304353
0.0916238165909
0.051820564636
0.0317212138504
0.0208908430731
0.0146162151499
0.0105277110247
0.00728197988418
0.00434531698377
0.0023933075546
0.00190061426089
0.00191352293606
0.00189499800693
0.00169062835685
0.00130215089698
0.000712722862084
0.000231174355505
1.88778929271
0.793438834038
0.359083924947
0.174836053348
0.0919198689515
0.0520822497573
0.0317554327176
0.0207279765495
0.014388213552
0.0102821593199
0.00710680015635
0.00432137310634
0.00241026329745
0.0018977108805
0.00193437257093
0.00197408825584
0.00182267154266
0.00145794917662
0.000870616401435
0.000292562488436
1.90792932118
0.795831588979
0.359133802282
0.175011847888
0.0923253850984
0.0523925051379
0.0317197219474
0.0204733456681
0.0140446850797
0.00993779186248
0.00688758481698
0.00428572705725
0.00243510063822
0.00189692318276
0.00196029551753
0.00206482127809
0.0019661646001
0.00162995555928
0.00103762796257
0.000388568118875
1.92517736463
0.796790116816
0.358629116561
0.175483912601
0.0932112510372
0.0529180250643
0.03162943775
0.0200177421712
0.0134943931868
0.00949744748801
0.00668275657491
0.00430053565441
0.00249998132811
0.00190965155105
0.00199196098672
0.00214855162036
0.00208702666311
0.00175389156223
0.00120433122087
0.000518003718825
1.91366554095
0.789416042029
0.356279721071
0.176383359213
0.0948789111653
0.0535943928776
0.0311445821923
0.0191611931327
0.0128134833872
0.00912760084037
0.00658179144836
0.00436273710071
0.00257538151922
0.00193324556701
0.00201894593856
0.00220819012647
0.00217666574493
0.00186364703955
0.00135451801853
0.000666114585299
1.85888373396
0.767031459795
0.351736804078
0.178871177372
0.0975796873488
0.0537681247607
0.0299889167012
0.018226005549
0.0123012729432
0.00890370452987
0.00653751825212
0.00442088975025
0.00264214055375
0.00195071169394
0.00203490294975
0.00224801315362
0.00224407791782
0.00196676819351
0.00147405914851
0.000813512296763
1.74771281297
0.731341391775
0.348095404431
0.184018863754
0.100134342946
0.0526718373659
0.0286441204899
0.0175274285158
0.0119367088407
0.00875937164462
0.00650374793106
0.00446998211672
0.00270881757653
0.00197570095446
0.00204096167786
0.00227419852143
0.00229132623047
0.00205720593859
0.00157498214871
0.000952057630359
1.5945965873
0.699248149472
0.351678204713
0.191306266819
0.100313670267
0.0505548188501
0.0274651098179
0.0169190468719
0.0116326740632
0.00862403495912
0.00646404990228
0.00449610919186
0.00277287168869
0.00200465995925
0.00203381832594
0.00227924069552
0.0023129252851
0.00212189502178
0.00164906318999
0.00108363079408
1.44332496172
0.698738718895
0.371732021181
0.198968117292
0.0982393177611
0.0484771160427
0.0262452684549
0.01631419976
0.0113670009487
0.00847575053998
0.00638853939945
0.00448439945853
0.00282512849886
0.00202368611774
0.00199919014088
0.00224162644142
0.0022937319172
0.00214756539855
0.00171849116227
0.00120520246377
1.42079734367
0.769380499001
0.413616304577
0.207856323502
0.0972741523514
0.0466937996988
0.0253618981891
0.0159591490304
0.0111696400176
0.00832310737168
0.00626712883283
0.00442243870696
0.00284361065244
0.00201330148292
0.00191528474157
0.00212823410956
0.0022046260942
0.00211695802398
0.00177515863925
0.00130617126571
1.71390102133
0.945450368506
0.484931791265
0.225316069268
0.100974746044
0.0482417178084
0.0263125506196
0.0163924740627
0.0112503814892
0.00825656310961
0.00615434398075
0.00434408538793
0.00283084392756
0.00196216672365
0.00177204101669
0.00192026485664
0.00202008054317
0.00201506001262
0.00178865400741
0.00136937379119
2.45146055513
1.27422438459
0.586307829886
0.262497776167
0.12056127383
0.059034186741
0.0316186739877
0.0186747299116
0.0121322940848
0.00853130919045
0.00621140337229
0.00436043294608
0.00283789253539
0.00189378170696
0.0015930345788
0.00165213230264
0.0017604178336
0.00184561384118
0.00173930151057
0.00136683020028
3.90094074036
1.70280949724
0.741304614829
0.346871527196
0.169485176236
0.0850254460427
0.0441243128147
0.0242541508263
0.0145025491925
0.00951190598348
0.0066500700908
0.00460771083988
0.0029560033837
0.00186518616548
0.00142839810521
0.00139563661537
0.00149754926131
0.00164778982529
0.00165471209319
0.00135247029245
5.13619971019
2.07739637151
0.978480020395
0.485900619409
0.244881901586
0.12376022141
0.0630473977228
0.0332139827002
0.0186275175228
0.0113946706947
0.00757870772658
0.00514595318206
0.00325907567644
0.00193347283501
0.00132361674354
0.00119721489769
0.00129445383105
0.00147621816765
0.00156364962215
0.0013371795717
5.15323779879
2.23134114043
1.09406045843
0.579288152935
0.315410392674
0.166077046493
0.0826359916533
0.0430007114635
0.0236958536039
0.0139741017668
0.00892575072364
0.00593127153653
0.00373358405865
0.00212224269949
0.00131292966396
0.00108484166297
0.00116059755821
0.00136472086179
0.00149384577426
0.00133212782773
4.77189783309
2.14915399054
1.07691292143
0.585291544963
0.331329470592
0.186517406276
0.0977172243512
0.0514160458447
0.0284285348868
0.0166854176371
0.0104573685415
0.0068444820492
0.00429301384436
0.00240427801214
0.00138893203189
0.00105550371679
0.00110189878032
0.0013192728622
0.00146207426413
0.00135091083059
4.40137232206
1.99051880948
1.00122802858
0.55178389636
0.320595506324
0.187731088979
0.10276083038
0.0562531680906
0.0318908271374
0.0189478255599
0.011885709798
0.00773050833106
0.00483616104342
0.00271740694477
0.0015175441919
0.00108715108929
0.00109980572736
0.00132775717385
0.00147148251196
0.00139928257543
4.17233634829
1.84313326798
0.908482151019
0.499301812659
0.293095394527
0.174341319603
0.0992345505075
0.0567469483405
0.0332459208177
0.0202160847274
0.0128727450698
0.00838825249913
0.0052403854311
0.00296780140445
0.0016523807935
0.00115460218565
0.00113756796741
0.00137179954831
0.00151297484429
0.00147003894188
4.13535372
1.72732284714
0.8190813494
0.442370201884
0.257774562237
0.153562569842
0.091598183081
0.0545326229379
0.0329479204859
0.0205541021077
0.0133339696285
0.00873344835849
0.00544393446725
0.00309945391123
0.00174683177343
0.0012250585366
0.00120147189748
0.00143342648057
0.00157300258554
0.0015542477261
4.29763508005
1.66848649691
0.755614127814
0.402258008306
0.231004356299
0.139355575648
0.0845780809783
0.0514777343426
0.0318099069297
0.0203106093293
0.0133825355588
0.00877312602303
0.00544410626489
0.00311612857167
0.00179661566443
0.00128789709308
0.00127460260235
0.00149885852127
0.001640998082
0.001648585122
4.6971648834
1.68620706467
0.743037938872
0.386331319612
0.220888687516
0.131898760635
0.0798457930663
0.0488410487787
0.0305661211413
0.0198145025002
0.0131187563602
0.0085443161472
0.00527526757205
0.00304534621341
0.00181212696676
0.00134503693603
0.00134680808209
0.00155683044278
0.001713802834
0.00175602682971
5.27188800328
1.82649010588
0.781693617478
0.397525758708
0.22260929132
0.130074803548
0.0774893669133
0.0470812669985
0.0295377760578
0.019151416642
0.0125597492881
0.00811206243457
0.00500067065206
0.00292966009449
0.00181104852294
0.00139620688305
0.00141134785657
0.00160427707017
0.00179189465417
0.00187986722678
5.86508438854
2.01312778478
0.851712597841
0.421897071642
0.229701588136
0.13097343571
0.0765197006597
0.0459070756609
0.0284676647835
0.0181467067869
0.0117510406762
0.00757689936647
0.00469639720927
0.00281261700848
0.00181064373465
0.00144397085494
0.00146427954062
0.00164313656922
0.00187287085078
0.00201727695296
6.56201068206
2.25374730494
0.937421114146
0.448663936248
0.237289108425
0.13234032553
0.0758766241597
0.044531516179
0.0268568352022
0.0167905426211
0.010864135628
0.00705726157051
0.00443413501866
0.00272916853192
0.00182222558055
0.00149019122361
0.00150137841823
0.0016745894125
0.00195067094317
0.00216055292209
6.60361332998
2.34707167271
0.976716626754
0.460855615513
0.239445772336
0.131383348676
0.0736588594831
0.0418293138303
0.0246122160489
0.0153800339263
0.0100775229311
0.00664917627544
0.00426365695608
0.00269951906343
0.0018522305177
0.00153185342477
0.00152394009613
0.0016976663621
0.00201734003868
0.00230455469657
6.32201164481
2.25227234568
0.95238920106
0.450037695377
0.231942748702
0.125105097003
0.0682141257207
0.0379095977992
0.0223433188075
0.0142097070011
0.00950690211008
0.00640458043941
0.00420608492412
0.00273195182743
0.00190476096821
0.00157101467545
0.0015337438133
0.00171323309417
0.00205943105236
0.002435859279
5.80963735677
2.04426187536
0.879834214598
0.416666737439
0.212828687336
0.113057136922
0.0611521711617
0.0342364059819
0.0205912058228
0.0134241100877
0.00918893394023
0.00632815289532
0.00425677713279
0.00282261490646
0.00198152146968
0.00161319552991
0.00153591247207
0.00170018139297
0.00205980305113
0.00252720975412
4.9551316237
1.7601939762
0.763073603562
0.364678728403
0.187667820983
0.101117542218
0.0556144719433
0.0317100840306
0.0195143754495
0.0130156782182
0.0090879155624
0.00638539393468
0.00438758093891
0.00295753922918
0.00207715958937
0.0016627746897
0.00153719533938
0.00164547067393
0.00200970636428
0.00254015736985
3.76248817517
1.40005465457
0.635447438175
0.318549986472
0.170970034589
0.0945978770712
0.0526465919704
0.0303874809245
0.0190371872228
0.0129090500108
0.00914159484828
0.00652370900284
0.0045625128807
0.00310990780488
0.00217215310306
0.00170201599549
0.00153279169734
0.00156988795239
0.00189741179194
0.00244440592801
2.70029338656
1.15252878611
0.56898080175
0.304028073317
0.168323681858
0.0934084751268
0.0520094847498
0.0302910994098
0.019152817491
0.0130482930238
0.00928248152728
0.00668454514571
0.00473024124314
0.00324454948988
0.00224117221025
0.00170742945283
0.0015020356647
0.00148620061469
0.00169658354132
0.00224504112104
2.2692048937
1.12635262045
0.593251374818
0.324582498015
0.179849810688
0.0988940000118
0.0546265589999
0.0316964126991
0.0199550628877
0.0134976451868
0.00955392994114
0.00688478560074
0.00489639755212
0.00335334420239
0.00226594575276
0.00166695542555
0.00142655242751
0.0013817696244
0.00149260632509
0.00195966345331
2.48220312853
1.30375846197
0.689678159496
0.3730791283
0.203946469926
0.111418623423
0.0614246919273
0.0355187519275
0.0221274345712
0.0147100559524
0.010219303172
0.00727560138658
0.00514456242924
0.00348415720911
0.00227780897264
0.00159586333721
0.00131430652671
0.00124837734788
0.00131370940659
0.00161522799146
2.93960166163
1.51851459089
0.793045790775
0.426024447619
0.235025098105
0.131101157865
0.0739193821303
0.0431870483999
0.0266402014999
0.0172854867553
0.0116551091154
0.00808734873293
0.00563357109548
0.00375486594749
0.0023567885499
0.00154677348262
0.00120399001859
0.00111317995725
0.00115561878277
0.00135908764644
3.04599690788
1.56116029762
0.85393137281
0.487294946513
0.282056297109
0.163399250305
0.0947719927742
0.0563113102664
0.034459125037
0.0217630331941
0.0141960355612
0.00955376731723
0.00652129946391
0.00428335933771
0.0026031903392
0.00159514801993
0.00115009541635
0.00101612149708
0.00103651418287
0.00118650479922
2.6828454437
1.41831100653
0.819317028203
0.502366258062
0.319170975482
0.205129665979
0.128079354765
0.0754612012569
0.0456287106846
0.0282655312279
0.0179607815236
0.0117788556387
0.00787691307286
0.00511508845094
0.00307127934689
0.00179687954116
0.00119388625553
0.000984932575062
0.0009706801592
0.0010809912919
2.29342566615
1.23474035114
0.741490598036
0.47994580103
0.325906973447
0.225092855663
0.151750378835
0.0947192187121
0.0582490461384
0.0361073266422
0.0227392866773
0.0146942762622
0.00966920212957
0.00622403808066
0.00374889574853
0.00216159523987
0.00134839889459
0.00102680451666
0.000958788456583
0.00103304385563
2.02962461027
1.08310049855
0.657588190118
0.439066473628
0.31221978857
0.227589055345
0.162624258708
0.107178886034
0.0682698701971
0.0432118760021
0.0275115287996
0.0178082523124
0.0116627888415
0.00749001864083
0.00455066356439
0.00263471464675
0.00158796151224
0.00112869888998
0.000990406000413
0.00102467731457
1.93841779212
0.99495916414
0.590379874246
0.395598690704
0.28802424694
0.217482133626
0.161897639939
0.112011097156
0.0739466050553
0.0481615690118
0.0313249739421
0.0205537646569
0.013558000799
0.00876969836284
0.00539797983258
0.00316511421176
0.00188380924353
0.00127560278781
0.00105610752805
0.00104530825405
2.03720483756
0.948692790885
0.537023214764
0.354703008008
0.25958948294
0.199522020595
0.15232191903
0.109427359719
0.0749264941598
0.0503297885505
0.0335789639991
0.0224801832566
0.015070289498
0.00990446864369
0.00620653805192
0.00370266341098
0.0022061243438
0.00145155837733
0.00114730974541
0.00108875539251
2.00423956004
0.914452126117
0.498138145748
0.319982685608
0.231470677784
0.178173576093
0.137632932171
0.101386252687
0.0717836364145
0.0496939577343
0.0340411951698
0.0233349254947
0.0159966332819
0.0107444236395
0.00687776257086
0.00418582004322
0.00251853133402
0.001637486124
0.00125496320208
0.00115074217637
2.03700365999
0.870822285145
0.457039096686
0.285907418169
0.203341900257
0.155119985166
0.120066640543
0.0901407974527
0.0656722229549
0.0467416996491
0.0328844178961
0.023149111003
0.0162886771972
0.0112063807107
0.00733342136885
0.00455868610877
0.00278648186974
0.00181523413808
0.00137059330485
0.00122714091556
2.31914384868
0.880899539014
0.431006972132
0.255323084129
0.175461175734
0.131665112244
0.101712896321
0.0776019564578
0.0578748241757
0.0422880380741
0.0306047307265
0.0221959819939
0.0160597144985
0.0113022366484
0.00754861757517
0.00479500618872
0.00299177929984
0.00197453786671
0.00148898329837
0.00131000210373
2.79117783051
0.988128611425
0.449935631838
0.24415191284
0.155494736723
0.111535258087
0.084952641546
0.0654485797477
0.0498379751831
0.0374223460262
0.0279548988394
0.0209373286666
0.0155411169152
0.0111197224184
0.0075581006069
0.00490951290902
0.00313906748482
0.00211464140548
0.00160524786835
0.00138736400567
3.20907482459
1.15246819018
0.504899317338
0.25190369361
0.146148353959
0.0977369732443
0.0722076990983
0.055668519579
0.0431866978738
0.0333691021998
0.0257629502699
0.0198298841895
0.0149310381375
0.0107674910958
0.00743783340802
0.0049462163772
0.00324585442755
0.00223561699878
0.00169841400802
0.00145560568277
3.30224488546
1.25076231808
0.550470879959
0.268585918012
0.146898056747
0.0915642375677
0.0647714645626
0.0495343362626
0.0390148981429
0.0309324917434
0.0244525472151
0.0190198360485
0.0142917299846
0.0103535179971
0.00726598554921
0.00494346206886
0.00331446012458
0.00231176559215
0.00176215437282
0.00150400173007
2.97007430262
1.21699532026
0.559446958437
0.280480049135
0.152294924867
0.0914495713152
0.0624522715934
0.0472292590867
0.0374826350385
0.0300718379364
0.0238316897159
0.0183522806246
0.0136901904617
0.00995364001664
0.00707127324242
0.00489654345184
0.00332607322346
0.00233951550089
0.00178373669608
0.00151044912669
2.47070861564
1.10315905402
0.540615332677
0.283414172204
0.156954603037
0.0941003559761
0.0635752016123
0.0477263662479
0.0377935684737
0.030116557213
0.0235181342887
0.0178326475904
0.0131687244094
0.00956374419584
0.00686195034093
0.00482504033737
0.00330301305161
0.00230364137144
0.00173447646227
0.00145865784025
2.11129884863
1.01982279568
0.529050036685
0.286811315435
0.161912829847
0.0982668577129
0.0666854645687
0.0499702597051
0.0392558454069
0.0307863110948
0.0235375977041
0.0174597891911
0.0127197654547
0.00925496243556
0.00671721703595
0.00476998572101
0.00325157420453
0.00220515360929
0.00161417872582
0.00135525816809
2.03711015374
1.03639168579
0.552923609929
0.303060514017
0.173100036974
0.106526869489
0.0728141742306
0.0544374610975
0.0420667199711
0.0320522203941
0.0237139007266
0.0171824178867
0.0124462141102
0.00908257600628
0.00661682224387
0.00469112762839
0.00315092375647
0.00207076485672
0.00147500011407
0.00124173802744
2.22252315155
1.14399541052
0.609348731869
0.334102974173
0.190546693853
0.117324230263
0.0802513800461
0.0596738916139
0.0451590762318
0.0332939469952
0.0240010148352
0.0172128008008
0.0124372045792
0.00905109141082
0.00656227503292
0.0046078826124
0.00302304764581
0.00191817873684
0.00134472598404
0.00115976437904
2.5071936732
1.25453830157
0.652127287153
0.355146032725
0.203116691062
0.124189763702
0.0845687000538
0.0631677819987
0.0476142888244
0.0345438483148
0.024615954543
0.0175534393813
0.0126148101385
0.00912096378794
0.00655916018737
0.00454970308741
0.00290646359033
0.00179040373427
0.00125575859502
0.00113198375584
2.60502371177
1.21301589231
0.607267912351
0.329982420581
0.192147950285
0.12159911664
0.0856833155456
0.0656966694221
0.0501596158996
0.0357505526465
0.025230234691
0.0178955105693
0.0128006061299
0.00921956763507
0.0066088574908
0.00454191991992
0.00284046547067
0.00172675279679
0.00123326280258
0.00116044339163
2.62168343633
1.12022171461
0.532976260779
0.28231977051
0.166473985424
0.111172380141
0.0838859656361
0.0674166530367
0.0526763891185
0.0363852762321
0.0253788511138
0.0179704045727
0.0128678478032
0.00929843809752
0.00669702575341
0.00459216287488
0.00284708427823
0.00174494243582
0.00128012460994
0.0012295878078
2.78379559438
1.07721920608
0.469615528951
0.235485569087
0.139919160098
0.0989640669368
0.0792885186199
0.0660997610923
0.0524749992194
0.035455854333
0.024729505189
0.0176516143902
0.0127745230674
0.00934878755705
0.00681684920141
0.00469977325019
0.00293536331882
0.0018479809613
0.00138852053079
0.00132518855552
3.22283914073
1.09840622152
0.427600176146
0.199268804327
0.115963546318
0.0845355026309
0.0699971144633
0.0594878883785
0.0473044529712
0.0325718718396