/*--------------------------------*- C++ -*----------------------------------*\
| =========                 |                                                 |
| \\      /  F ield         | OpenFOAM: The Open Source CFD Toolbox           |
|  \\    /   O peration     | Version:  2312                                  |
|   \\  /    A nd           | Website:  www.openfoam.com                      |
|    \\/     M anipulation  |                                                 |
\*---------------------------------------------------------------------------*/
FoamFile
{
    version     2.0;
    format      ascii;
    arch        "LSB;label=32;scalar=64";
    class       volScalarField;
    location    "0.71/water";
    object      nut.gas;
}
// * * * * * * * * * * * * * * * * * * * * * * * * * * * * * * * * * * * * * //

dimensions      [0 2 -1 0 0 0 0];

internalField   nonuniform List<scalar> 
6000
(
3.14795469699e-07
1.1991551503e-07
4.90964968206e-08
3.37766964782e-08
1.36599426242e-07
1.01384571474e-06
4.19557368031e-06
9.29275870206e-06
1.38907555542e-05
1.67964960479e-05
1.83188147579e-05
1.90284450769e-05
1.93261164944e-05
1.94335401848e-05
1.94605762657e-05
1.94576302175e-05
1.94461698027e-05
1.94344780151e-05
1.942522699e-05
1.94189120877e-05
1.63475221817e-06
9.88085183128e-07
4.75791943337e-07
2.4538103006e-07
1.01236062603e-07
7.58500817104e-08
1.72698035563e-07
1.0270234894e-06
4.33628002246e-06
9.69163383202e-06
1.42758167784e-05
1.70651637072e-05
1.84848114304e-05
1.91245804516e-05
1.93780520909e-05
1.94580562833e-05
1.94679953794e-05
1.94543098693e-05
1.94362390381e-05
1.94208990237e-05
2.27560753906e-06
1.64876209163e-06
1.02010523326e-06
5.58113885494e-07
2.98168188354e-07
1.39962286706e-07
1.01346340677e-07
2.53531239345e-07
1.36809556555e-06
4.81990875984e-06
9.82069219729e-06
1.41350143729e-05
1.69098230019e-05
1.84105163972e-05
1.91238331001e-05
1.94193933285e-05
1.95166216896e-05
1.95300068089e-05
1.95140269675e-05
1.94924552583e-05
2.6923195499e-06
2.05244636719e-06
1.40027846837e-06
8.56494511099e-07
5.5629872064e-07
2.57802648771e-07
1.36172000919e-07
1.33563016961e-07
5.17361007654e-07
2.39343264068e-06
6.44603410891e-06
1.11579791068e-05
1.49058991831e-05
1.72919221711e-05
1.86006011372e-05
1.92328491455e-05
1.94961003773e-05
1.95798036201e-05
1.95866932239e-05
1.95673285278e-05
2.97888916253e-06
2.34423626134e-06
1.67546547574e-06
1.11285414383e-06
6.64725909188e-07
4.40387025679e-07
1.88959859697e-07
1.2205972593e-07
2.44502082322e-07
1.22420902618e-06
4.19406499451e-06
8.62817128218e-06
1.2852522583e-05
1.59438452923e-05
1.78550031862e-05
1.88921490647e-05
1.93876126835e-05
1.95873986772e-05
1.96436100287e-05
1.96396710428e-05
3.12298174748e-06
2.5343239834e-06
1.87939210752e-06
1.31214743668e-06
8.52070335265e-07
4.85057461026e-07
2.96572256994e-07
1.26743562788e-07
1.45209077036e-07
6.35221667636e-07
2.71234199576e-06
6.61258202926e-06
1.09511801261e-05
1.45208909004e-05
1.69594608788e-05
1.84135246276e-05
1.91816300622e-05
1.95358068072e-05
1.9668064203e-05
1.96950915607e-05
3.15655290718e-06
2.63174239831e-06
2.0182150101e-06
1.46409080583e-06
1.00057155877e-06
6.23300121602e-07
3.27924643612e-07
1.7111097006e-07
9.77257386141e-08
3.23078476008e-07
1.71878028285e-06
5.02971452211e-06
9.26625365766e-06
1.31212998017e-05
1.59841611045e-05
1.78294413514e-05
1.88853927447e-05
1.94207753167e-05
1.96526488248e-05
1.97265531321e-05
3.15111502896e-06
2.67918534704e-06
2.10795263997e-06
1.57241588116e-06
1.11116270872e-06
7.32545373282e-07
4.26080630064e-07
2.17778637502e-07
9.23863629232e-08
1.48927915074e-07
1.01459323648e-06
3.75765156331e-06
7.77930732797e-06
1.17845776396e-05
1.49773036776e-05
1.71724509621e-05
1.85136598278e-05
1.92458777543e-05
1.95959700546e-05
1.97310268747e-05
3.18414195523e-06
2.74237221847e-06
2.18501506162e-06
1.6514252777e-06
1.19046108379e-06
8.16810519685e-07
5.14357916469e-07
2.64495051937e-07
1.28239706777e-07
7.41672570373e-08
4.8388353853e-07
2.64261775525e-06
6.40425691401e-06
1.04928254929e-05
1.39577576154e-05
1.64671921463e-05
1.80832209507e-05
1.90188517418e-05
1.95003856836e-05
1.9709085271e-05
3.28758441359e-06
2.84373017312e-06
2.26209095761e-06
1.70782828817e-06
1.24489209254e-06
8.81862982297e-07
5.89862284023e-07
3.38629184334e-07
1.40149408902e-07
6.54776755422e-08
1.62602621245e-07
1.52827366313e-06
4.95002688762e-06
9.13642874845e-06
1.2889633462e-05
1.57133602925e-05
1.76041221411e-05
1.8749312064e-05
1.93721552052e-05
1.96635278068e-05
3.44672722412e-06
2.93996910528e-06
2.29650132963e-06
1.72576321459e-06
1.27697429756e-06
9.32871629825e-07
6.55691777474e-07
4.10833245752e-07
1.95366187228e-07
7.41231721395e-08
6.08938865827e-08
5.76916943128e-07
3.32805617476e-06
7.61230216689e-06
1.173000322e-05
1.4908126545e-05
1.70861117075e-05
1.84470480702e-05
1.92175063622e-05
1.95973925326e-05
3.46111044992e-06
2.88617411242e-06
2.25957736363e-06
1.72150178087e-06
1.29928335529e-06
9.7457768907e-07
7.1348564366e-07
4.80375660006e-07
2.5946866557e-07
9.15594522632e-08
4.86324558061e-08
1.35490465129e-07
1.67851137638e-06
5.82954984214e-06
1.03988087791e-05
1.40201942926e-05
1.65232804986e-05
1.81142096044e-05
1.90392192894e-05
1.95120674653e-05
3.46574529459e-06
2.88206038133e-06
2.2541628917e-06
1.72679763002e-06
1.31965791818e-06
1.00944681877e-06
7.63060387872e-07
5.43750431647e-07
3.24234597748e-07
1.27460598371e-07
4.07065451652e-08
5.1286461045e-08
4.88991770455e-07
3.80319433646e-06
8.80952829248e-06
1.29946161706e-05
1.58917578942e-05
1.77420563873e-05
1.88344500606e-05
1.94061843542e-05
3.46613180496e-06
2.8787380701e-06
2.25054697818e-06
1.72965703833e-06
1.33363114985e-06
1.03645845222e-06
8.04050867939e-07
5.98199057064e-07
3.82622906421e-07
1.63877159857e-07
4.83536991117e-08
3.52039886885e-08
1.10474770045e-07
1.8362088802e-06
6.97276640975e-06
1.17864090375e-05
1.51559862434e-05
1.73116669952e-05
1.85948230548e-05
1.92758358603e-05
3.44771341537e-06
2.87045570972e-06
2.24566631437e-06
1.72852859734e-06
1.34055163896e-06
1.05518622251e-06
8.36630694176e-07
6.4321124827e-07
4.30962578669e-07
1.95022621501e-07
5.5387838166e-08
2.83300044362e-08
5.70575003786e-08
5.64043651784e-07
4.97020367702e-06
1.03757107639e-05
1.42729502884e-05
1.67960184744e-05
1.83076611863e-05
1.91154255745e-05
3.43470944798e-06
2.86367051943e-06
2.24154436794e-06
1.72484028069e-06
1.34236926583e-06
1.06830582128e-06
8.63278188673e-07
6.80343374545e-07
4.68820366118e-07
2.18424062755e-07
6.06090450476e-08
2.7193234874e-08
3.59238040429e-08
1.77255163046e-07
3.09965594083e-06
8.781078002e-06
1.31968312301e-05
1.61627917679e-05
1.79570044008e-05
1.89181106277e-05
3.41840784444e-06
2.859954728e-06
2.23986571965e-06
1.72271222264e-06
1.34487205656e-06
1.08113518649e-06
8.88172894723e-07
7.12488233405e-07
4.97649235692e-07
2.35182594088e-07
6.48104911445e-08
2.64045957738e-08
2.70153616082e-08
9.1634908292e-08
1.56854589902e-06
6.95969768052e-06
1.1872046264e-05
1.53747963606e-05
1.75233995948e-05
1.86754318412e-05
3.42494924094e-06
2.8660797382e-06
2.24432152647e-06
1.72848935853e-06
1.35550630326e-06
1.09987419651e-06
9.15102355719e-07
7.41516920606e-07
5.19627974817e-07
2.48660945181e-07
7.00725976753e-08
2.65393273035e-08
2.37757900823e-08
5.53843837485e-08
6.61651801262e-07
5.01363596241e-06
1.02788559737e-05
1.43959041857e-05
1.69839521322e-05
1.83766359944e-05
3.45152095106e-06
2.88317405595e-06
2.25813119743e-06
1.74632714366e-06
1.37875127773e-06
1.12772490699e-06
9.45233433786e-07
7.68356694198e-07
5.3823191163e-07
2.64064680527e-07
7.93476119301e-08
2.82764022008e-08
2.24198402324e-08
3.83360845416e-08
2.62739783306e-07
3.17251506207e-06
8.42268343379e-06
1.31882541178e-05
1.63117727684e-05
1.80080084362e-05
3.48464285684e-06
2.90049074175e-06
2.28351808319e-06
1.78400045355e-06
1.42043905177e-06
1.16570799965e-06
9.7757548174e-07
7.92896167052e-07
5.56548701407e-07
2.86562274655e-07
9.5536335875e-08
3.15469707427e-08
2.23708144843e-08
2.71429008982e-08
1.05399922403e-07
1.70356480384e-06
6.39530388056e-06
1.17284854085e-05
1.54794316398e-05
1.75532673676e-05
3.48810590871e-06
2.92998879108e-06
2.35183005182e-06
1.86648747075e-06
1.48980537997e-06
1.21348916479e-06
1.0089382897e-06
8.11647952989e-07
5.7461151378e-07
3.19563165403e-07
1.18651044135e-07
3.62613897518e-08
2.30136617603e-08
2.44712413611e-08
5.4586495654e-08
7.62713002624e-07
4.41833790078e-06
1.00360363269e-05
1.44684409945e-05
1.69966144509e-05
3.55227258595e-06
3.06178855701e-06
2.51097108353e-06
2.00158851204e-06
1.57698553677e-06
1.26098568248e-06
1.03095780026e-06
8.21246161034e-07
5.96134069785e-07
3.59606906604e-07
1.4808007924e-07
4.23949620302e-08
2.37958312225e-08
2.48185448221e-08
4.07526139601e-08
2.41459147718e-07
2.6853141453e-06
8.16529414586e-06
1.32699731299e-05
1.6324707406e-05
3.74848506637e-06
3.29828776755e-06
2.71887716373e-06
2.13826430137e-06
1.64927892439e-06
1.29295605763e-06
1.04114625009e-06
8.29989432023e-07
6.23541922246e-07
4.05227491806e-07
1.83170785106e-07
5.01489947116e-08
2.42937758685e-08
2.4957138178e-08
3.13765276328e-08
8.49313715372e-08
1.3088853383e-06
6.24434372365e-06
1.18944643215e-05
1.55293353404e-05
4.06707852819e-06
3.58715778372e-06
2.89636879197e-06
2.22417954132e-06
1.69064283324e-06
1.31348168773e-06
1.04935737026e-06
8.4308272311e-07
6.57021150155e-07
4.5643769278e-07
2.24727943761e-07
6.00625877791e-08
2.47510319816e-08
2.44655646573e-08
3.02939710297e-08
5.36715853734e-08
4.07853346662e-07
4.3931622541e-06
1.03786025543e-05
1.46095977902e-05
4.35153682283e-06
3.76732183395e-06
2.96758119919e-06
2.25177745612e-06
1.71271259394e-06
1.32928504736e-06
1.05890767142e-06
8.59129493312e-07
6.92305865705e-07
5.09878189672e-07
2.7137154014e-07
7.27642045552e-08
2.55048692474e-08
2.37376712448e-08
2.85884778541e-08
4.00695778696e-08
1.41914372324e-07
2.59699763814e-06
8.76682419729e-06
1.35677278921e-05
4.4554074708e-06
3.76532680521e-06
2.9464741732e-06
2.24930260551e-06
1.72146604057e-06
1.3389510281e-06
1.06720612091e-06
8.74033531323e-07
7.24391833554e-07
5.6034880167e-07
3.19497580547e-07
8.87647917324e-08
2.68802641098e-08
2.32900299203e-08
2.69004672787e-08
3.47902248686e-08
9.30067926347e-08
1.1212093526e-06
7.06765090562e-06
1.2400667191e-05
4.432527729e-06
3.7189274968e-06
2.92455027132e-06
2.24922374016e-06
1.7295622394e-06
1.34681167106e-06
1.07435385456e-06
8.86792450506e-07
7.51523968747e-07
6.02509778468e-07
3.63488255532e-07
1.08841823364e-07
2.93863440706e-08
2.32910067748e-08
2.57903373515e-08
3.08910935876e-08
5.31925750532e-08
4.10604107086e-07
5.30066200758e-06
1.11081450897e-05
4.43896720562e-06
3.70847315028e-06
2.91783617013e-06
2.25274151914e-06
1.73794971206e-06
1.35510905192e-06
1.08254264816e-06
8.99950879485e-07
7.75942525074e-07
6.36209369085e-07
3.98674127948e-07
1.29860471908e-07
3.3444943512e-08
2.37253932811e-08
2.54077779904e-08
2.85514516528e-08
3.95775774702e-08
1.84309809481e-07
3.57342425253e-06
9.6926614544e-06
4.43582704036e-06
3.70100269552e-06
2.91223707412e-06
2.25216024529e-06
1.7415138768e-06
1.36104749287e-06
1.09091770973e-06
9.14681008914e-07
7.99048379619e-07
6.6279063307e-07
4.25060583367e-07
1.48123223052e-07
3.80221856588e-08
2.45242268847e-08
2.55730645793e-08
2.75035274934e-08
3.33641475747e-08
1.07431741796e-07
2.05498713246e-06
8.15203583473e-06
4.4506830216e-06
3.7056750989e-06
2.91212419142e-06
2.24889303945e-06
1.74051154433e-06
1.36413277669e-06
1.09933935629e-06
9.30982944236e-07
8.20377625829e-07
6.82342762221e-07
4.41540987935e-07
1.60577160884e-07
4.17923564101e-08
2.53988633953e-08
2.59657267063e-08
2.72469671744e-08
3.03600838355e-08
7.35273019005e-08
9.62565620057e-07
6.527770451e-06
4.45124448504e-06
3.71037081721e-06
2.91364358442e-06
2.2453891683e-06
1.73781440731e-06
1.36559008158e-06
1.10769308968e-06
9.47569888954e-07
8.38448755671e-07
6.94172706504e-07
4.4692519628e-07
1.65263929773e-07
4.37077187771e-08
2.59978535323e-08
2.63051075782e-08
2.73870066484e-08
2.90472609569e-08
4.55769703881e-08
3.84524653629e-07
4.9130677048e-06
4.46158407845e-06
3.71282224065e-06
2.91446657553e-06
2.2433460726e-06
1.73525331619e-06
1.36624213009e-06
1.11562990191e-06
9.62939235643e-07
8.51947175657e-07
6.97765381931e-07
4.41425652023e-07
1.62739833419e-07
4.37288265914e-08
2.62147613671e-08
2.65022886758e-08
2.7547790684e-08
2.84325477048e-08
3.54646509417e-08
1.68293210894e-07
3.37597764359e-06
4.45080354694e-06
3.7051171344e-06
2.90937172061e-06
2.23919461813e-06
1.73200912829e-06
1.36638082398e-06
1.12336674406e-06
9.76170709544e-07
8.60145178335e-07
6.9298984156e-07
4.27025623014e-07
1.5566675806e-07
4.2678177502e-08
2.61867558178e-08
2.65896398565e-08
2.76177064929e-08
2.80132987769e-08
3.1761407176e-08
9.82042582014e-08
2.02821284126e-06
4.46823458426e-06
3.69909115953e-06
2.89698526082e-06
2.22804433126e-06
1.72503794789e-06
1.36540012223e-06
1.13097417415e-06
9.86684541107e-07
8.62987054771e-07
6.80504020628e-07
4.07121856524e-07
1.47347451421e-07
4.15202407306e-08
2.6087973306e-08
2.66268129851e-08
2.7617560856e-08
2.76521665096e-08
2.94747762556e-08
7.02220235943e-08
1.05486231361e-06
4.47775359724e-06
3.69517069908e-06
2.88380665241e-06
2.21321322835e-06
1.71545077933e-06
1.36449394592e-06
1.13879072837e-06
9.94463620268e-07
8.60734759233e-07
6.61769708466e-07
3.85696710752e-07
1.4053683319e-07
4.09632757326e-08
2.60616296864e-08
2.66924771548e-08
2.76272280889e-08
2.73975386838e-08
2.80927441677e-08
5.15653370127e-08
5.01169015112e-07
4.50126582916e-06
3.69087543269e-06
2.86709501691e-06
2.19495727952e-06
1.70456921669e-06
1.36546028352e-06
1.14714202449e-06
9.99991351955e-07
8.53658440177e-07
6.39460933955e-07
3.66718638675e-07
1.37036395727e-07
4.14030459785e-08
2.62327947489e-08
2.68378410925e-08
2.77030886667e-08
2.72822717666e-08
2.73183772968e-08
3.56156431862e-08
2.39411780725e-07
4.49245856958e-06
3.67084026611e-06
2.84053897713e-06
2.17217609079e-06
1.69468712974e-06
1.37013613912e-06
1.15707223303e-06
1.00409844346e-06
8.42322246843e-07
6.16984907933e-07
3.53206992495e-07
1.3747333414e-07
4.30121023386e-08
2.66935168002e-08
2.70786240114e-08
2.78324340856e-08
2.72405684337e-08
2.6934108008e-08
3.10517562347e-08
1.2783747607e-07
4.48260098661e-06
3.63497647555e-06
2.80179549752e-06
2.14723283874e-06
1.69082199361e-06
1.38164590513e-06
1.16977792417e-06
1.00602515414e-06
8.27190532997e-07
5.97234384229e-07
3.46980829843e-07
1.42364884672e-07
4.60753563611e-08
2.7461829473e-08
2.74054729948e-08
2.79405701465e-08
2.71531267014e-08
2.67510087132e-08
2.92790349535e-08
8.13170311311e-08
4.44850619496e-06
3.58122718262e-06
2.75441256675e-06
2.12644816661e-06
1.69866605357e-06
1.40210777062e-06
1.18365346988e-06
1.00209200021e-06
8.07650749152e-07
5.83087934498e-07
3.50253129599e-07
1.52586952503e-07
5.06085606915e-08
2.84776778086e-08
2.77366307215e-08
2.79207875789e-08
2.69228544081e-08
2.6583431992e-08
2.83742246537e-08
6.17493813494e-08
4.39437829691e-06
3.50531538867e-06
2.70479925394e-06
2.12233992541e-06
1.72749477382e-06
1.43093560903e-06
1.19070441291e-06
9.85837953428e-07
7.871927132e-07
5.8031633043e-07
3.6368233318e-07
1.66701713895e-07
5.59104161014e-08
2.96070444332e-08
2.79479220672e-08
2.772764578e-08
2.65899303377e-08
2.62771040644e-08
2.77490566147e-08
4.86885080552e-08
4.26337329404e-06
3.38999567464e-06
2.66283625543e-06
2.15494171693e-06
1.78340530971e-06
1.4581039711e-06
1.18180091905e-06
9.62481514835e-07
7.76089521831e-07
5.88698409219e-07
3.82165159441e-07
1.81506978023e-07
6.13668795186e-08
3.07589231191e-08
2.80013398184e-08
2.74440459642e-08
2.62558943205e-08
2.58739336662e-08
2.70865722185e-08
3.43646896549e-08
4.05534569402e-06
3.26329091652e-06
2.67113005875e-06
2.247644522e-06
1.85825151522e-06
1.47025131463e-06
1.15947286938e-06
9.41655277023e-07
7.73048036415e-07
6.01515064054e-07
4.00274257283e-07
1.94892558901e-07
6.68083214716e-08
3.1979588866e-08
2.79648678024e-08
2.71584545115e-08
2.5965886477e-08
2.5439439468e-08
2.63744886682e-08
3.09756825233e-08
3.85704915905e-06
3.25656701989e-06
2.80917450033e-06
2.41148760827e-06
1.92915584981e-06
1.46060338012e-06
1.12918204487e-06
9.23059450529e-07
7.72152420443e-07
6.12282921871e-07
4.13913556859e-07
2.0586484297e-07
7.23866748056e-08
3.34050913136e-08
2.79179861135e-08
2.68880324663e-08
2.57171403779e-08
2.50229823535e-08
2.57188503617e-08
2.90455873294e-08
3.91152262631e-06
3.56102486374e-06
3.16854611693e-06
2.63291311049e-06
1.97099890124e-06
1.42715021194e-06
1.09279356101e-06
9.05577218208e-07
7.69938722379e-07
6.17302556552e-07
4.21572734947e-07
2.14751976238e-07
7.86114297965e-08
3.52559783891e-08
2.79297842245e-08
2.66134384776e-08
2.54978299782e-08
2.46834648075e-08
2.51188991789e-08
2.76318101775e-08
4.52479479827e-06
4.34207065952e-06
3.74327566461e-06
2.84204492239e-06
1.96776875965e-06
1.38132748465e-06
1.06603660731e-06
8.96849578192e-07
7.68554292996e-07
6.18616593057e-07
4.268801295e-07
2.24670801782e-07
8.67798022846e-08
3.79361033366e-08
2.81122495858e-08
2.63206967072e-08
2.5285868792e-08
2.44376362787e-08
2.45744020325e-08
2.64124313352e-08
5.67022619721e-06
5.36816039045e-06
4.30943813733e-06
2.9842395731e-06
1.98135113471e-06
1.39393010026e-06
1.08657064014e-06
9.12641090413e-07
7.77033320077e-07
6.25846676896e-07
4.40109200528e-07
2.42976801806e-07
9.98408115079e-08
4.22884890481e-08
2.8716935813e-08
2.60775835184e-08
2.50854341438e-08
2.42696361137e-08
2.40562624274e-08
2.53180114737e-08
7.20729783353e-06
6.48255877174e-06
4.73481149634e-06
3.21034897369e-06
2.19514729373e-06
1.57394879108e-06
1.20514198445e-06
9.78287606702e-07
8.12800366187e-07
6.54309421514e-07
4.74617971881e-07
2.79706740043e-07
1.22952805347e-07
4.99821273585e-08
3.02336557136e-08
2.61200714745e-08
2.50048105116e-08
2.41749130522e-08
2.35511171295e-08
2.42371163274e-08
8.11255709056e-06
7.20667249202e-06
5.32046262388e-06
3.83885132915e-06
2.76069643428e-06
1.99552738112e-06
1.47352839826e-06
1.13078806622e-06
8.98631930975e-07
7.1539919463e-07
5.35875656877e-07
3.40282479987e-07
1.61932858171e-07
6.35035579217e-08
3.33377575628e-08
2.67442450049e-08
2.52406079952e-08
2.42008763361e-08
2.31673341596e-08
2.3256097154e-08
8.07017853774e-06
7.54044097659e-06
6.06447810486e-06
4.70538360365e-06
3.52283639228e-06
2.56230934492e-06
1.85014323892e-06
1.3642741569e-06
1.03803594858e-06
8.06439338053e-07
6.14217506325e-07
4.16401762649e-07
2.16539760903e-07
8.47064026469e-08
3.86101829529e-08
2.80018851475e-08
2.58216480776e-08
2.44354698899e-08
2.29795990738e-08
2.24754074753e-08
8.18884415408e-06
7.96511616313e-06
6.64885274126e-06
5.33338030732e-06
4.14903739219e-06
3.08386919484e-06
2.21185805799e-06
1.60708600729e-06
1.19739778123e-06
9.11517535726e-07
6.9501619262e-07
4.91737041605e-07
2.76356407457e-07
1.11974867488e-07
4.60399181952e-08
2.97793669372e-08
2.65104373176e-08
2.48432647667e-08
2.29641710096e-08
2.1937956223e-08
7.96133367653e-06
8.02825856784e-06
6.90703093371e-06
5.64839776603e-06
4.46752133776e-06
3.3905386087e-06
2.47264455504e-06
1.79671359299e-06
1.33222726768e-06
1.00689508804e-06
7.66451568943e-07
5.54475440012e-07
3.28685087407e-07
1.39804545892e-07
5.44848008739e-08
3.16999051171e-08
2.7114742386e-08
2.52791176405e-08
2.30757613402e-08
2.16448768517e-08
7.5725577645e-06
7.79855213205e-06
6.87758503594e-06
5.71582068342e-06
4.57051702158e-06
3.50435554217e-06
2.59173200015e-06
1.9045857954e-06
1.41953488016e-06
1.07442326331e-06
8.19303816896e-07
5.98535408925e-07
3.6536578128e-07
1.62062588355e-07
6.21558073736e-08
3.33991403781e-08
2.74625065477e-08
2.56059877356e-08
2.32559616097e-08
2.15560848057e-08
7.2324711608e-06
7.49568300811e-06
6.67170140773e-06
5.58952980412e-06
4.49358779129e-06
3.46559123885e-06
2.60428072389e-06
1.94152782062e-06
1.4576417486e-06
1.10824863118e-06
8.48238284401e-07
6.20143078438e-07
3.80748080172e-07
1.72749213801e-07
6.6872898808e-08
3.4483301843e-08
2.75082189689e-08
2.57276000199e-08
2.34245219643e-08
2.15989339955e-08
7.03625485923e-06
7.22701004775e-06
6.35819238373e-06
5.33573203618e-06
4.30334783397e-06
3.34398506475e-06
2.55064875138e-06
1.92165322188e-06
1.45186394906e-06
1.11088439993e-06
8.53699064546e-07
6.20280138456e-07
3.75159841972e-07
1.69548613886e-07
6.65727369627e-08
3.43017443112e-08
2.71811771511e-08
2.5605737951e-08
2.35283451901e-08
2.17154757664e-08
6.92374675937e-06
6.85597726242e-06
5.89398037804e-06
4.98518098131e-06
4.07593448844e-06
3.19986190119e-06
2.45010468191e-06
1.8551892067e-06
1.41099869054e-06
1.0893218475e-06
8.39361755006e-07
6.00325376848e-07
3.51116791948e-07
1.55248821306e-07
6.20400674062e-08
3.29696220697e-08
2.65334151605e-08
2.52593528412e-08
2.3560853806e-08
2.18891425234e-08
6.91707499341e-06
6.51756985032e-06
5.51346104115e-06
4.66627004462e-06
3.81279004739e-06
3.00520935219e-06
2.30895096676e-06
1.75781220938e-06
1.34995905752e-06
1.05313094749e-06
8.0896807351e-07
5.62384863563e-07
3.131882625e-07
1.34601687537e-07
5.53049812875e-08
3.09791488306e-08
2.56583083879e-08
2.47532816379e-08
2.35512125206e-08
2.21504491158e-08
7.07906316726e-06
6.42492449626e-06
5.2918718129e-06
4.36412184484e-06
3.54551553047e-06
2.79709846842e-06
2.15633657151e-06
1.65346178781e-06
1.28453836248e-06
1.00841709811e-06
7.64813619786e-07
5.10366236007e-07
2.68299074706e-07
1.12869705048e-07
4.83949188282e-08
2.88705894853e-08
2.46739260334e-08
2.41701154105e-08
2.3530030557e-08
2.2536035746e-08
7.17006398011e-06
6.35961018541e-06
5.10328021541e-06
4.12096462685e-06
3.32198112505e-06
2.61824132691e-06
2.02285807434e-06
1.56080827795e-06
1.22088819825e-06
9.56651150806e-07
7.10758046063e-07
4.50718275444e-07
2.24388201114e-07
9.40951969285e-08
4.26345336215e-08
2.70291843332e-08
2.3699152058e-08
2.35716821048e-08
2.35150327024e-08
2.30548197329e-08
7.45695293729e-06
6.37692257461e-06
4.98359532697e-06
3.93541611443e-06
3.14150115646e-06
2.47167697996e-06
1.9122908548e-06
1.47820927282e-06
1.15667234045e-06
9.03260788174e-07
6.53599184643e-07
3.92177936544e-07
1.88143570405e-07
8.0310035911e-08
3.85635223477e-08
2.56552006222e-08
2.28409653211e-08
2.30047590438e-08
2.3508644292e-08
2.3675711667e-08
7.6422582535e-06
6.3141690078e-06
4.89551543359e-06
3.79769754376e-06
2.9895794684e-06
2.34024742751e-06
1.80676077222e-06
1.3950712378e-06
1.09889751859e-06
8.58205248549e-07
6.00000701808e-07
3.43609839437e-07
1.63052189806e-07
7.18639436893e-08
3.6229302563e-08
2.48387682233e-08
2.21948995459e-08
2.25055439379e-08
2.35024172084e-08
2.43851980862e-08
7.40860578405e-06
6.02841404763e-06
4.69631318037e-06
3.60938565923e-06
2.81390655357e-06
2.19302207433e-06
1.69414895881e-06
1.3252689327e-06
1.0644377925e-06
8.26331820514e-07
5.56798972906e-07
3.11224923188e-07
1.49643877624e-07
6.83191999335e-08
3.55203502262e-08
2.4614757251e-08
2.18485981857e-08
2.21105055894e-08
2.34776384081e-08
2.51479516136e-08
6.74467718218e-06
5.51925193224e-06
4.3430264418e-06
3.32619571363e-06
2.59337398254e-06
2.03970438591e-06
1.61070028787e-06
1.29715655063e-06
1.05801411521e-06
8.07744613166e-07
5.30828473272e-07
2.97424423193e-07
1.47047549535e-07
6.9151738055e-08
3.63348261502e-08
2.49954707127e-08
2.18759786454e-08
2.18480931484e-08
2.34267174809e-08
2.58992997132e-08
5.99524481628e-06
4.88287544559e-06
3.85389664373e-06
3.00512257274e-06
2.40635067095e-06
1.96088137939e-06
1.59875614752e-06
1.3136156765e-06
1.0701994729e-06
8.03386642788e-07
5.26762418608e-07
3.02158389003e-07
1.5451642092e-07
7.42498746286e-08
3.87196193893e-08
2.59851494742e-08
2.22866770957e-08
2.18145487845e-08
2.33840644199e-08
2.65642352565e-08
5.13672764103e-06
4.15836383785e-06
3.44500212827e-06
2.84270531463e-06
2.39377820425e-06
2.0083902051e-06
1.65230141351e-06
1.35350370427e-06
1.09121809906e-06
8.17503320381e-07
5.47554199501e-07
3.26191586834e-07
1.73076872077e-07
8.42468926631e-08
4.28097227618e-08
2.7531696327e-08
2.30145121651e-08
2.21423862806e-08
2.33872044435e-08
2.7095928619e-08
4.75602017604e-06
4.00461682196e-06
3.50426994983e-06
3.04248085643e-06
2.60135495311e-06
2.15062427628e-06
1.73175440443e-06
1.399597655e-06
1.126117695e-06
8.57504690398e-07
5.95811910162e-07
3.71920761405e-07
2.05396675789e-07
1.00923375149e-07
4.92935349479e-08
2.9798059401e-08
2.39973082683e-08
2.28263391799e-08
2.35964173258e-08
2.74966156869e-08
5.09728827284e-06
4.61287278818e-06
4.10386298687e-06
3.52372779898e-06
2.91196610671e-06
2.32642887135e-06
1.83504811798e-06
1.47188615369e-06
1.18974828642e-06
9.28438281162e-07
6.75320305247e-07
4.46022546829e-07
2.58952816245e-07
1.29114337555e-07
6.00504036102e-08
3.33119562806e-08
2.52730481482e-08
2.36650152996e-08
2.42555109687e-08
2.7721513564e-08
6.04053168033e-06
5.59375248683e-06
4.8830620398e-06
4.08111676267e-06
3.29313981664e-06
2.58652822168e-06
2.01709114284e-06
1.60482826101e-06
1.29822281324e-06
1.03495484616e-06
7.88210952471e-07
5.54898379216e-07
3.44112741446e-07
1.77477552247e-07
7.88940382281e-08
3.92032480294e-08
2.71190414337e-08
2.45234546291e-08
2.51204825604e-08
2.79984566049e-08
6.88686861179e-06
6.30638634289e-06
5.50752431056e-06
4.65157869375e-06
3.77976532764e-06
2.9756304081e-06
2.3157446346e-06
1.8258826677e-06
1.46462360823e-06
1.1747782659e-06
9.22199210119e-07
6.87866594834e-07
4.6095190342e-07
2.5376022005e-07
1.11426115142e-07
4.94484291153e-08
3.01395692302e-08
2.54989058055e-08
2.58021961638e-08
2.86348652946e-08
6.88173903143e-06
6.39684248452e-06
5.78085868195e-06
5.0896188292e-06
4.29118807142e-06
3.44613339156e-06
2.71207227792e-06
2.13074002312e-06
1.68796642393e-06
1.34208338545e-06
1.06063951599e-06
8.18054410739e-07
5.8558877063e-07
3.50525946406e-07
1.60660396416e-07
6.64226944339e-08
3.52088634151e-08
2.69035012568e-08
2.62277444252e-08
2.89858469621e-08
6.54241117045e-06
6.29874692128e-06
5.84883242043e-06
5.3003491344e-06
4.63905869204e-06
3.88715082398e-06
3.13987096421e-06
2.47013861136e-06
1.94370740008e-06
1.5303126223e-06
1.20268265249e-06
9.36347100053e-07
6.95668061027e-07
4.47324219484e-07
2.2171111892e-07
9.14099774874e-08
4.32651616852e-08
2.92054573105e-08
2.66642379779e-08
2.89412121984e-08
5.96816236793e-06
5.91452788234e-06
5.66425770173e-06
5.28863458204e-06
4.78396126816e-06
4.14813195406e-06
3.44522993075e-06
2.7658220047e-06
2.18745963475e-06
1.72141249133e-06
1.34945300404e-06
1.05149168636e-06
7.92776417287e-07
5.34179655885e-07
2.871580281e-07
1.24100005004e-07
5.51370825781e-08
3.29271289677e-08
2.75224993793e-08
2.88270762864e-08
5.49308374974e-06
5.49350900267e-06
5.3543808644e-06
5.10861800985e-06
4.74373327916e-06
4.23617280751e-06
3.61703155489e-06
2.9719775706e-06
2.38382944464e-06
1.89194425971e-06
1.49059436398e-06
1.1647130681e-06
8.83868936111e-07
6.11912031274e-07
3.49971383558e-07
1.60380273382e-07
6.99617675297e-08
3.79993175287e-08
2.89345151965e-08
2.88285231922e-08
5.19201747673e-06
5.16444821638e-06
5.03208701184e-06
4.84432628276e-06
4.57604841606e-06
4.18176972489e-06
3.65765749805e-06
3.07298245403e-06
2.50804106666e-06
2.01761089706e-06
1.60620626499e-06
1.26416435797e-06
9.66445958352e-07
6.81761640138e-07
4.07449997664e-07
1.9674756408e-07
8.63995194059e-08
4.40938043808e-08
3.08660218283e-08
2.9045207707e-08
4.81587158579e-06
4.81444206756e-06
4.6902805893e-06
4.53797909298e-06
4.33255135243e-06
4.02239760443e-06
3.58341674518e-06
3.06754643731e-06
2.55009029253e-06
2.08288911353e-06
1.6794404403e-06
1.33576555858e-06
1.03203123683e-06
7.4033187107e-07
4.56766353171e-07
2.29839780433e-07
1.02600162683e-07
5.05297579247e-08
3.30903898655e-08
2.94499704074e-08
4.68772771634e-06
4.64333661838e-06
4.42846021658e-06
4.23962881854e-06
4.05101930083e-06
3.79020446987e-06
3.41816359528e-06
2.97049546594e-06
2.51105194097e-06
2.08225588407e-06
1.70197594514e-06
1.37106965596e-06
1.07330864192e-06
7.81954053738e-07
4.93246799971e-07
2.55448558183e-07
1.16071685106e-07
5.62876038027e-08
3.52459462153e-08
2.99422363902e-08
4.57943322852e-06
4.495488415e-06
4.18443720164e-06
3.94266977386e-06
3.74051343628e-06
3.49949252604e-06
3.17901512311e-06
2.7987985444e-06
2.40163242968e-06
2.02125458823e-06
1.67669149082e-06
1.37091648137e-06
1.0885787711e-06
8.02910382987e-07
5.12788238245e-07
2.70067081144e-07
1.24702461607e-07
6.04859148496e-08
3.70384471418e-08
3.04457289857e-08
4.55692267136e-06
4.3391364789e-06
3.91905914033e-06
3.61926308667e-06
3.39191251082e-06
3.15915936189e-06
2.88524284896e-06
2.57196310361e-06
2.24110806099e-06
1.91754732246e-06
1.61818845523e-06
1.34543619004e-06
1.08256228493e-06
8.03504933439e-07
5.14381837117e-07
2.72965019505e-07
1.28070421942e-07
6.29773851735e-08
3.84593619195e-08
3.1010540595e-08
4.71673737019e-06
4.31014012191e-06
3.6854433065e-06
3.26111777596e-06
2.99742717344e-06
2.78526928844e-06
2.5683420821e-06
2.32642020894e-06
2.06551776629e-06
1.80320213242e-06
1.55253732688e-06
1.31314264805e-06
1.0652781443e-06
7.88294191813e-07
5.01706437739e-07
2.67409038323e-07
1.27964636286e-07
6.45063619268e-08
3.98046525199e-08
3.18120961378e-08
4.9841188573e-06
4.41279697713e-06
3.6182986235e-06
2.9994740261e-06
2.64410128085e-06
2.43762309807e-06
2.28151943913e-06
2.11409662071e-06
1.92318806618e-06
1.71905728059e-06
1.51055826201e-06
1.29283395053e-06
1.04580879622e-06
7.64658932232e-07
4.82990410401e-07
2.59826128824e-07
1.27555860327e-07
6.62469324364e-08
4.15493006745e-08
3.30701774674e-08
5.22284312932e-06
4.44689933275e-06
3.61975413863e-06
2.90323236073e-06
2.44171992351e-06
2.19652594093e-06
2.08061839552e-06
1.98359068179e-06
1.85654641253e-06
1.69758201604e-06
1.51121951145e-06
1.2904946924e-06
1.02925197087e-06
7.42796023732e-07
4.68878424044e-07
2.57161434271e-07
1.29910950519e-07
6.94118796101e-08
4.40835028366e-08
3.48066296154e-08
5.25908428097e-06
4.40434383404e-06
3.60314070503e-06
2.9082749605e-06
2.40422200134e-06
2.11640049232e-06
2.01412938099e-06
1.96866481248e-06
1.88520387275e-06
1.74270798238e-06
1.54531444251e-06
1.3006000325e-06
1.02291335046e-06
7.33831701399e-07
4.68721009232e-07
2.65221459836e-07
1.3800115962e-07
7.47811723062e-08
4.727962913e-08
3.67456745599e-08
5.07009209157e-06
4.33541112164e-06
3.63180894396e-06
2.99990428517e-06
2.49890852966e-06
2.19662403155e-06
2.09705744055e-06