/*--------------------------------*- C++ -*----------------------------------*\
| =========                 |                                                 |
| \\      /  F ield         | OpenFOAM: The Open Source CFD Toolbox           |
|  \\    /   O peration     | Version:  2312                                  |
|   \\  /    A nd           | Website:  www.openfoam.com                      |
|    \\/     M anipulation  |                                                 |
\*---------------------------------------------------------------------------*/
FoamFile
{
    version     2.0;
    format      ascii;
    arch        "LSB;label=32;scalar=64";
    class       volScalarField;
    location    "0.92/water";
    object      alphat.gas;
}
// * * * * * * * * * * * * * * * * * * * * * * * * * * * * * * * * * * * * * //

dimensions      [1 -1 -1 0 0 0 0];

internalField   nonuniform List<scalar> 
6000
(
1.92718011377e-07
8.05172422434e-08
3.43273822422e-08
2.37803875728e-08
9.86631844113e-08
7.41879847223e-07
3.07558308208e-06
6.80415734837e-06
1.01586077354e-05
1.2274784046e-05
1.33824066082e-05
1.38983095844e-05
1.41144842763e-05
1.41922837916e-05
1.42116100546e-05
1.42091246992e-05
1.42004488148e-05
1.4191612339e-05
1.41845578639e-05
1.41796443489e-05
8.95731435737e-07
6.44034189721e-07
3.34008892563e-07
1.76414958903e-07
7.21320746576e-08
5.40711517822e-08
1.25937234537e-07
7.54626787248e-07
3.1817812304e-06
7.09522144272e-06
1.04356488043e-05
1.24653261505e-05
1.34978436859e-05
1.39631828587e-05
1.41475836983e-05
1.42057617415e-05
1.42129243149e-05
1.4202882635e-05
1.41896590776e-05
1.41784481827e-05
1.23619425742e-06
1.07363936704e-06
7.16090205529e-07
4.01690563806e-07
2.15008590777e-07
9.9655681035e-08
7.25613546461e-08
1.85861831591e-07
1.00725628486e-06
3.53804745293e-06
7.18839173777e-06
1.03303987525e-05
1.23496472382e-05
1.34416992596e-05
1.39609598552e-05
1.4176201802e-05
1.42470222021e-05
1.42567570585e-05
1.42450887987e-05
1.42293431164e-05
1.46815715545e-06
1.33042402116e-06
9.79711859014e-07
6.15717893863e-07
4.03257537398e-07
1.85929125737e-07
9.72172487872e-08
9.65208058976e-08
3.79258738375e-07
1.75522412946e-06
4.71828783926e-06
8.15574185505e-06
1.0887145356e-05
1.26253657585e-05
1.35787296903e-05
1.40393598683e-05
1.42311298871e-05
1.42920386142e-05
1.42969520766e-05
1.42827229298e-05
1.64071558026e-06
1.5217397976e-06
1.17079729386e-06
7.9954033574e-07
4.81418734858e-07
3.19473618105e-07
1.36661571574e-07
8.78761637947e-08
1.77240632146e-07
8.90153989855e-07
3.05794302993e-06
6.29804495005e-06
9.38368775724e-06
1.16401198408e-05
1.30344332211e-05
1.37908273915e-05
1.41519456038e-05
1.42973100499e-05
1.43379272089e-05
1.43346797963e-05
1.74671621058e-06
1.65516150226e-06
1.31344173318e-06
9.41267974008e-07
6.17257849567e-07
3.52678392757e-07
2.15969061164e-07
9.23222482153e-08
1.04160007801e-07
4.51938066618e-07
1.95435379272e-06
4.80754585463e-06
7.98664038229e-06
1.05989890843e-05
1.23813077712e-05
1.34429805405e-05
1.40030205102e-05
1.42605263584e-05
1.43559772765e-05
1.4374713163e-05
1.78478266605e-06
1.72232107637e-06
1.40347517206e-06
1.04385829078e-06
7.23982576229e-07
4.55319070711e-07
2.40237602392e-07
1.25796519819e-07
6.99908219562e-08
2.23360441984e-07
1.21358019073e-06
3.63570392233e-06
6.75120938087e-06
9.57846942621e-06
1.16729952776e-05
1.30206367433e-05
1.37900563314e-05
1.41785740483e-05
1.43454291081e-05
1.43972791182e-05
1.77111582238e-06
1.73001885045e-06
1.44181948422e-06
1.10930245557e-06
8.03394754638e-07
5.37692890887e-07
3.13417436267e-07
1.55488185426e-07
6.7496395833e-08
1.01203698278e-07
7.02764301618e-07
2.71336369463e-06
5.68099734335e-06
8.6171220878e-06
1.09487904483e-05
1.25486026851e-05
1.35234071853e-05
1.40529817026e-05
1.4304132421e-05
1.43992301083e-05
1.74840723793e-06
1.7214942413e-06
1.46161902817e-06
1.15507171502e-06
8.62774883235e-07
6.0175030074e-07
3.777684594e-07
1.93235817596e-07
9.23116297021e-08
5.22022261297e-08
3.36848417783e-07
1.94376633218e-06
4.73293993124e-06
7.71286028256e-06
1.02259321241e-05
1.20450776642e-05
1.32143385554e-05
1.38883936431e-05
1.42323804695e-05
1.43795228006e-05
1.74357133497e-06
1.73615337937e-06
1.4977282569e-06
1.20152565097e-06
9.11165729134e-07
6.51477887896e-07
4.30902857062e-07
2.43954871094e-07
9.92307563902e-08
4.65993428333e-08
1.24269458869e-07
1.22130668709e-06
3.79415324891e-06
6.79787184631e-06
9.48024837676e-06
1.15070896962e-05
1.28661739179e-05
1.36876805828e-05
1.4132559039e-05
1.43395124661e-05
1.78575134742e-06
1.80069330865e-06
1.56310596331e-06
1.25303126405e-06
9.50840747036e-07
6.90284576826e-07
4.75611991595e-07
2.91104443722e-07
1.33297584799e-07
5.09601157339e-08
4.79365639905e-08
5.30214932839e-07
2.67858213732e-06
5.73369942674e-06
8.64874486069e-06
1.09179285116e-05
1.24806201214e-05
1.34573274904e-05
1.40096681319e-05
1.42821864851e-05
1.88159675067e-06
1.90366136642e-06
1.63629015475e-06
1.29168866566e-06
9.76226273838e-07
7.20100119187e-07
5.14793309286e-07
3.36645574937e-07
1.72900998797e-07
5.88749283799e-08
3.44463690922e-08
1.41600134555e-07
1.47591497517e-06
4.45300191946e-06
7.6707358845e-06
1.02544197517e-05
1.20549109827e-05
1.32010735099e-05
1.38681627577e-05
1.42107860044e-05
1.9866932165e-06
1.96810043224e-06
1.64987344497e-06
1.29102473119e-06
9.84980689317e-07
7.42808700074e-07
5.49935451869e-07
3.81713871757e-07
2.19658910549e-07
8.36320915698e-08
2.93167727274e-08
4.25463532089e-08
5.28387701853e-07
2.98060855035e-06
6.47477909848e-06
9.47288173969e-06
1.15734316328e-05
1.29161189391e-05
1.37093608235e-05
1.41270352459e-05
1.97836029613e-06
1.93453684277e-06
1.62399909418e-06
1.27883249013e-06
9.8772585272e-07
7.60161728413e-07
5.80452685159e-07
4.24310632009e-07
2.68042364651e-07
1.15752439823e-07
3.42854776242e-08
2.87706232547e-08
1.12956841405e-07
1.53584348514e-06
5.05830488838e-06
8.53174749485e-06
1.10115187407e-05
1.25918292921e-05
1.35296592205e-05
1.40298583946e-05
1.99391773313e-06
1.94129923463e-06
1.62218761536e-06
1.27513649471e-06
9.90019768205e-07
7.7305516892e-07
6.05439143766e-07
4.61210900639e-07
3.11769484395e-07
1.48511039042e-07
4.35215925787e-08
2.08101499531e-08
4.08828492532e-08
4.81704342274e-07
3.50116944121e-06
7.41314053762e-06
1.03421203743e-05
1.22109988978e-05
1.33205622193e-05
1.39153359302e-05
1.9978086176e-06
1.9449891121e-06
1.6235493013e-06
1.27464478512e-06
9.9204104558e-07
7.82197446208e-07
6.24685707335e-07
4.91319469871e-07
3.48227002025e-07
1.76756145669e-07
5.20061119524e-08
2.12384775813e-08
2.51954867138e-08
1.10445069504e-07
1.96002534659e-06
6.15771342432e-06
9.54860593635e-06
1.17533083886e-05
1.30700778309e-05
1.37775677738e-05
1.98635176648e-06
1.94411846584e-06
1.62404466085e-06
1.27444746221e-06
9.9296693722e-07
7.88224680014e-07
6.39648186976e-07
5.15909295751e-07
3.77374764289e-07
1.98537683754e-07
5.83410921567e-08
2.13842160485e-08
2.01786502248e-08
5.49166175706e-08
7.71851762895e-07
4.80359942392e-06
8.61381868979e-06
1.11946911898e-05
1.27635614423e-05
1.36093428839e-05
1.97599420765e-06
1.94393732434e-06
1.62399406429e-06
1.27324774271e-06
9.93043642689e-07
7.93191210584e-07
6.5289062415e-07
5.37216050871e-07
4.00417279559e-07
2.13652441272e-07
6.24397438466e-08
2.12061538931e-08
1.82806612237e-08
3.73757349111e-08
2.67763881968e-07
3.44873105498e-06
7.53067954056e-06
1.05113262791e-05
1.23848973866e-05
1.34023092656e-05
1.97339854244e-06
1.94599258146e-06
1.62294778122e-06
1.27169581894e-06
9.94644745407e-07
8.00507632148e-07
6.67712866195e-07
5.57856804614e-07
4.18514202416e-07
2.2341547406e-07
6.55142235718e-08
2.1176993049e-08
1.69679890959e-08
2.34563301158e-08
1.24590662191e-07
2.20223935398e-06
6.28842846676e-06
9.67990194891e-06
1.19166328732e-05
1.31466983698e-05
1.98795509194e-06
1.95523517412e-06
1.62655029393e-06
1.27466105044e-06
1.00183541158e-06
8.13598841916e-07
6.87030948438e-07
5.78511836491e-07
4.3240724475e-07
2.31168522614e-07
6.98160716612e-08
2.19260823294e-08
1.63570806055e-08
1.90813271255e-08
6.41675912971e-08
1.19167808382e-06
4.91493959931e-06
8.68224523331e-06
1.13399257313e-05
1.28309062465e-05
2.00444912924e-06
1.96448025754e-06
1.63233905726e-06
1.28370282186e-06
1.01757785723e-06
8.34569892478e-07
7.09742374288e-07
5.97705267003e-07
4.44539860173e-07
2.41154138694e-07
7.75781889254e-08
2.39929996934e-08
1.64031831847e-08
1.74798413816e-08
3.94514710382e-08
5.71022964981e-07
3.52947961492e-06
7.51483654878e-06
1.06354437876e-05
1.24414765809e-05
2.01556639316e-06
1.96381100852e-06
1.63526972882e-06
1.30060312909e-06
1.04507351583e-06
8.63429233884e-07
7.3424398814e-07
6.15286737693e-07
4.55701081114e-07
2.54260188527e-07
9.0347657483e-08
2.72208786905e-08
1.68755815988e-08
1.72841998359e-08
3.06815509449e-08
2.34754284501e-07
2.25181575369e-06
6.18423784919e-06
9.78310797239e-06
1.19638242277e-05
2.00427919686e-06
1.94755995111e-06
1.64444272949e-06
1.3364086505e-06
1.08889099579e-06
8.99555925055e-07
7.58755856218e-07
6.28175997731e-07
4.62175473075e-07
2.68966084846e-07
1.0746558966e-07
3.14593224422e-08
1.74933201382e-08
1.76807836233e-08
2.15422782888e-08
8.32616846026e-08
1.23986223378e-06
4.76382782391e-06
8.77640693717e-06
1.13862986524e-05
1.99663406198e-06
1.96057260151e-06
1.6999354682e-06
1.41001058468e-06
1.15051741436e-06
9.38274126702e-07
7.77583760884e-07
6.30826385037e-07
4.65086951586e-07
2.87898037448e-07
1.2722027047e-07
3.66201043495e-08
1.79760693965e-08
1.80480640825e-08
2.12027358321e-08
4.44744516111e-08
5.5021083026e-07
3.39722979345e-06
7.63533699018e-06
1.0704808774e-05
2.06231229594e-06
2.07098202189e-06
1.82986131946e-06
1.51975151101e-06
1.21830615419e-06
9.69158829689e-07
7.84594572845e-07
6.28575511173e-07
4.73415496945e-07
3.11894619041e-07
1.50060881612e-07
4.29571927166e-08
1.8396710837e-08
1.79836425891e-08
2.11690200418e-08
2.87198947866e-08
1.68172565483e-07
2.18347006897e-06
6.40239592271e-06
9.92267628407e-06
2.1835965105e-06
2.23601095708e-06
1.98819621959e-06
1.63085247152e-06
1.2735494321e-06
9.89571720118e-07
7.87432928422e-07
6.30506997721e-07
4.8941943063e-07
3.42115663364e-07
1.77766660763e-07
5.13201717128e-08
1.89852982331e-08
1.76545572698e-08
2.05994385997e-08
2.59530928403e-08
7.03327948421e-08
1.14191951799e-06
5.13545883434e-06
9.04684767258e-06
2.31773163463e-06
2.40454531301e-06
2.12404124723e-06
1.71544797682e-06
1.31693763117e-06
1.00779586085e-06
7.93409177893e-07
6.38743260449e-07
5.11655166539e-07
3.78283193873e-07
2.1140883427e-07
6.27674772562e-08
2.00479059113e-08
1.73994633505e-08
1.97774517953e-08
2.39374437364e-08
4.6913685548e-08
4.15779226736e-07
3.87307734575e-06
8.08636378272e-06
2.43171146847e-06
2.52550020549e-06
2.20510956496e-06
1.76248151123e-06
1.34721083826e-06
1.02451044533e-06
8.02472835465e-07
6.50373175239e-07
5.35743193363e-07
4.1650541306e-07
2.49436407329e-07
7.82200197363e-08
2.19477110606e-08
1.73785803415e-08
1.91542272787e-08
2.21549211702e-08
3.07209795433e-08
1.46735087607e-07
2.61856104056e-06
7.04844390925e-06
2.52632334004e-06
2.60888579163e-06
2.25026316088e-06
1.7812030394e-06
1.35790327833e-06
1.03411364106e-06
8.1080074697e-07
6.61846374e-07
5.57557883376e-07
4.51360400103e-07
2.87780651283e-07
9.77369187911e-08
2.50260421308e-08
1.7655660839e-08
1.89235054255e-08
2.09239049366e-08
2.59594237758e-08
8.05173612355e-08
1.45972787335e-06
5.92836233006e-06
2.61475883218e-06
2.68389272633e-06
2.28540756018e-06
1.78676928203e-06
1.35539578672e-06
1.03497166819e-06
8.15559466144e-07
6.71350385976e-07
5.75385690565e-07
4.7892149733e-07
3.21206415194e-07
1.1965052922e-07
2.93806492307e-08
1.82262883569e-08
1.90071259181e-08
2.02823521713e-08
2.31419573317e-08
5.5049727061e-08
6.42628778476e-07
4.73829871138e-06
2.70057770737e-06
2.75399182208e-06
2.31123057291e-06
1.78140138944e-06
1.34431196729e-06
1.03105931839e-06
8.18437477001e-07
6.79959187521e-07
5.90659480371e-07
4.99408007727e-07
3.44448343023e-07
1.3869795858e-07
3.46408377216e-08
1.89996963599e-08
1.92411523935e-08
2.01137801967e-08
2.16365297334e-08
3.2499114218e-08
2.4846118331e-07
3.52642287382e-06
2.79092668104e-06
2.81842262241e-06
2.31702622354e-06
1.75797668991e-06
1.32489173169e-06
1.02396751873e-06
8.20011105995e-07
6.88305165221e-07
6.04182941678e-07
5.14101536731e-07
3.58357603363e-07
1.50482657538e-07
3.88564235549e-08
1.98134059709e-08
1.94961883475e-08
2.01501539653e-08
2.08715737131e-08
2.6760398356e-08
1.12611127205e-07
2.34019197467e-06
2.89366768037e-06
2.87330235539e-06
2.28789222158e-06
1.7107311501e-06
1.29886986639e-06
1.0156232445e-06
8.21348701253e-07
6.96666913457e-07
6.15752181138e-07
5.23236622923e-07
3.6337190897e-07
1.54603690546e-07
4.10125295401e-08
2.03635273039e-08
1.96994063511e-08
2.01914486372e-08
2.04253918457e-08
2.38404770066e-08
7.11973133382e-08
1.29209120328e-06
3.02367450212e-06
2.92619366823e-06
2.2377225039e-06
1.64798442306e-06
1.26757086098e-06
1.00571148756e-06
8.2227521013e-07
7.0455476138e-07
6.24701167193e-07
5.2693165026e-07
3.60640349256e-07
1.52609207276e-07
4.13962170779e-08
2.06285166589e-08
1.98024354409e-08
2.01787008028e-08
2.01063719358e-08
2.19739118311e-08
5.08362858441e-08
5.9191701761e-07
3.15967762327e-06
2.97875835646e-06
2.20034772877e-06
1.59128848946e-06
1.23484354464e-06
9.93611192346e-07
8.22086970333e-07
7.11116301135e-07
6.30301321558e-07
5.25566638631e-07
3.5210367496e-07
1.47214062766e-07
4.0960653265e-08
2.07622697061e-08
1.98497123988e-08
2.01509897299e-08
1.98367607594e-08
2.06736945683e-08
3.23469969276e-08
2.61918880074e-07
3.27012574807e-06
3.008523993e-06
2.17120029016e-06
1.55207977225e-06
1.20831130394e-06
9.81829028737e-07
8.21250371732e-07
7.15647136467e-07
6.32165596695e-07
5.19746821059e-07
3.39984573841e-07
1.40985167819e-07
4.05877464352e-08
2.09286608347e-08
1.98885066926e-08
2.01315748195e-08
1.96469632558e-08
1.97956059611e-08
2.61121441055e-08
1.34009750457e-07
3.33356128629e-06
2.98433921315e-06
2.12525354817e-06
1.5212153516e-06
1.18863261228e-06
9.7227995602e-07
8.20435862142e-07
7.1748401339e-07
6.30229691336e-07
5.10222001212e-07
3.26400025164e-07
1.35623137206e-07
4.07690967211e-08
2.12179538197e-08
1.99499277355e-08
2.01438959618e-08
1.95491192188e-08
1.92720273883e-08
2.28752734468e-08
8.24439014963e-08
3.28532153511e-06
2.89186169198e-06
2.06703205899e-06
1.49178720587e-06
1.17185444587e-06
9.64843386234e-07
8.19414606589e-07
7.16098824056e-07
6.2466964321e-07
4.97658469875e-07
3.12727217929e-07
1.31656405783e-07
4.15199501562e-08
2.16260891765e-08
2.00597034255e-08
2.01836360724e-08
1.95154302926e-08
1.90116648443e-08
2.09927558239e-08
5.832383561e-08
3.17991164399e-06
2.77782201186e-06
2.01089056933e-06
1.4651281144e-06
1.15647010004e-06
9.58846716367e-07
8.17042275723e-07
7.10997116306e-07
6.15494755488e-07
4.82685364093e-07
2.99755591626e-07
1.28984780204e-07
4.26420591265e-08
2.21248505089e-08
2.02220094726e-08
2.02210882256e-08
1.9497065803e-08
1.89253700175e-08
2.00109757237e-08
4.47923340009e-08
3.10461091487e-06
2.70592514831e-06
1.97863618883e-06
1.45113514474e-06
1.14831461996e-06
9.5651362483e-07
8.13107200856e-07
7.02338725492e-07
6.027300302e-07
4.65832877155e-07
2.87757494914e-07
1.27273314693e-07
4.3967215452e-08
2.2702643842e-08
2.04026440266e-08
2.02241579958e-08
1.94338162184e-08
1.88707034114e-08
1.95283197111e-08
3.31548718194e-08
2.98985176909e-06
2.62489652379e-06
1.94791561058e-06
1.44381364355e-06
1.14965310207e-06
9.59519737602e-07
8.08389254241e-07
6.90869214738e-07
5.86633953788e-07
4.47444336485e-07
2.76646385885e-07
1.26231218168e-07
4.54228162779e-08
2.33400950264e-08
2.0538728646e-08
2.01383897644e-08
1.92872207083e-08
1.87559536323e-08
1.92388974059e-08
2.46830132642e-08
2.82113747936e-06
2.503408697e-06
1.89610967088e-06
1.43611290607e-06
1.1623014761e-06
9.71261466354e-07
8.05556442354e-07
6.76684648911e-07
5.66391273666e-07
4.27367066389e-07
2.66496846136e-07
1.25512570423e-07
4.68096577921e-08
2.39081236136e-08
2.05378397986e-08
1.99272738804e-08
1.90758927783e-08
1.85802651587e-08
1.89782883339e-08
2.19742143848e-08
2.58527031896e-06
2.33995141781e-06
1.82951833646e-06
1.44095327916e-06
1.19881384381e-06
9.9876741507e-07
8.04367090467e-07
6.58439186525e-07
5.43070884852e-07
4.07719088832e-07
2.57318447643e-07
1.24155863188e-07
4.76227532074e-08
2.42191297727e-08
2.03602106408e-08
1.9619417907e-08
1.88379409588e-08
1.8356316459e-08
1.8699403848e-08
2.06499564005e-08
2.32536647523e-06
2.14635189534e-06
1.77575039855e-06
1.49533668861e-06
1.28326761425e-06
1.04638365506e-06
8.03470159894e-07
6.39841436078e-07
5.20686101466e-07
3.90528382967e-07
2.48733817214e-07
1.21710427915e-07
4.78673851896e-08
2.43605153295e-08
2.00686413486e-08
1.92655003866e-08
1.85869558388e-08
1.81024440571e-08
1.84143515211e-08
1.97919010499e-08
2.05661306049e-06
2.01507552193e-06
1.86742265595e-06
1.68866376848e-06
1.44069680721e-06
1.10693887863e-06
8.02644646123e-07
6.23391443388e-07
5.02278573894e-07
3.77439589534e-07
2.41083407953e-07
1.19502191351e-07
4.86712481783e-08
2.47822549133e-08
1.98020457858e-08
1.8890149833e-08
1.83259743194e-08
1.78603449821e-08
1.81052222154e-08
1.91324554614e-08
2.10632664495e-06
2.31414871999e-06
2.30281753222e-06
2.0559117059e-06
1.62666911134e-06
1.15092559113e-06
8.01031017391e-07
6.14296855239e-07
4.93040549945e-07
3.70628951812e-07
2.38218984397e-07
1.21812075576e-07
5.19436533792e-08
2.59112155112e-08
1.96603146844e-08
1.85001528557e-08
1.8053238587e-08
1.76445648332e-08
1.77540385699e-08
1.85065858678e-08
2.77626910806e-06
3.16491350302e-06
2.99794130653e-06
2.42254149822e-06
1.74627860621e-06
1.18214632892e-06
8.20851889787e-07
6.26618630421e-07
4.99958938262e-07
3.77527415579e-07
2.48469678924e-07
1.33391216548e-07
5.92434316257e-08
2.82028150182e-08
1.98027711158e-08
1.81549190445e-08
1.77713852089e-08
1.74399115001e-08
1.7333834652e-08
1.78843069525e-08
3.7983877141e-06
4.12949728873e-06
3.59993364075e-06
2.66738917461e-06
1.86358305579e-06
1.28085142119e-06
9.02840308739e-07
6.79626618676e-07
5.35185990217e-07
4.09157788056e-07
2.80767017383e-07
1.60708254686e-07
7.43861140771e-08
3.30944781584e-08
2.05588950542e-08
1.79963653641e-08
1.75482042702e-08
1.72710647677e-08
1.69414038353e-08
1.72161311368e-08
4.40056950195e-06
4.6642585624e-06
3.94343976707e-06
2.95251480664e-06
2.14416275547e-06
1.52886223192e-06
1.08891403414e-06
7.99769781692e-07
6.12852266055e-07
4.71949760116e-07
3.3988425928e-07
2.10019630976e-07
1.02852102171e-07
4.30959333129e-08
2.27498121375e-08
1.82244743239e-08
1.75383694115e-08
1.71981891243e-08
1.66934615306e-08
1.66164625638e-08
3.80822125617e-06
4.63308201424e-06
4.17220621576e-06
3.36722387479e-06
2.56423764752e-06
1.88008063288e-06
1.36107411493e-06
9.89155499198e-07
7.35003488867e-07
5.59387065678e-07
4.16725566399e-07
2.77735352148e-07
1.47070457882e-07
6.04556683256e-08
2.73686661213e-08
1.92260650163e-08
1.78451638914e-08
1.73214638506e-08
1.66551208478e-08
1.61955727775e-08
3.24509089753e-06
4.50659428178e-06
4.32052666883e-06
3.65582110266e-06
2.92825514802e-06
2.21592914132e-06
1.62790520446e-06
1.18870677267e-06
8.75489243097e-07
6.56220823215e-07
4.940332453e-07
3.47485052592e-07
1.99218594781e-07
8.42171317179e-08
3.42223670081e-08
2.1144971517e-08
1.84476365505e-08
1.77087739885e-08
1.68316285735e-08
1.60234370394e-08
3.03450846425e-06
4.40459555581e-06
4.36513488286e-06
3.77152152105e-06
3.09732020998e-06
2.43417756543e-06
1.83151915786e-06
1.34604741127e-06
9.95545256687e-07
7.44215325788e-07
5.61226408096e-07
4.06245833768e-07
2.46778681291e-07
1.09155232992e-07
4.20244772448e-08
2.32378754858e-08
1.92683586316e-08
1.82233649555e-08
1.71805893032e-08
1.61127028008e-08
2.87472926147e-06
4.26632704977e-06
4.32236626863e-06
3.77946541555e-06
3.14342993576e-06
2.51126882075e-06
1.92727216388e-06
1.44441916342e-06
1.07975566838e-06
8.11068616136e-07
6.13587685717e-07
4.50248672165e-07
2.83024107141e-07
1.30250037006e-07
4.93164011766e-08
2.50460669268e-08
1.98447507676e-08
1.86690055128e-08
1.76315791177e-08
1.64030803739e-08
2.76260865815e-06
4.14132362466e-06
4.22920148301e-06
3.71506819878e-06
3.10932192625e-06
2.50256410516e-06
1.94399799126e-06
1.4842478557e-06
1.12537691178e-06
8.53068488981e-07
6.48792740691e-07
4.78830393851e-07
3.06151224363e-07
1.45185073803e-07
5.52141761264e-08
2.64908641303e-08
2.01067517811e-08
1.90052300995e-08
1.80922632211e-08
1.68112078155e-08
2.69749097874e-06
4.06941528237e-06
4.13044619679e-06
3.61299169834e-06
3.02715048907e-06
2.44593592812e-06
1.921439219e-06
1.49041624453e-06
1.14310722973e-06
8.72823065291e-07
6.66577196875e-07
4.91671652492e-07
3.14162107952e-07
1.51068515707e-07
5.85935604949e-08
2.74883404537e-08
2.01731695413e-08
1.91633662734e-08
1.84865195819e-08
1.72740766629e-08
2.68883265226e-06
4.05644147053e-06
4.00920615259e-06
3.47607159985e-06
2.91343288412e-06
2.36574566925e-06
1.88307045193e-06
1.47408971305e-06
1.13832822199e-06
8.73991508017e-07
6.69390988333e-07
4.90740476511e-07
3.08751911949e-07
1.47393704852e-07
5.80952709735e-08
2.75025093623e-08
2.00191433529e-08
1.91449323876e-08
1.87805385112e-08
1.77584491942e-08
2.73457095069e-06
4.01873837258e-06
3.8182867715e-06
3.28474896551e-06
2.77643920123e-06
2.27631390634e-06
1.82449523901e-06
1.43443719313e-06
1.11247484294e-06
8.59314603389e-07
6.5918827149e-07
4.76992467883e-07
2.91570004777e-07
1.36221730502e-07
5.45244456184e-08
2.66246962844e-08
1.96620456622e-08
1.89868105495e-08
1.89568206362e-08
1.82543851604e-08
2.81513214189e-06
3.93715973651e-06
3.56195089831e-06
3.05531051714e-06
2.59744573091e-06
2.14823270012e-06
1.7319934726e-06
1.36857396733e-06
1.06880053445e-06
8.3231043464e-07
6.37257480202e-07
4.51170897081e-07
2.64889189022e-07
1.20464650379e-07
4.92832097373e-08
2.52353674752e-08
1.91851865658e-08
1.87504128011e-08
1.90234160962e-08
1.87503685917e-08
2.98079804819e-06
3.92530926143e-06
3.37600988337e-06
2.79606070924e-06
2.36201473832e-06
1.97432953725e-06
1.60908406826e-06
1.28466446318e-06
1.01517557058e-06
7.96589070276e-07
6.04733804403e-07
4.15109052655e-07
2.3243337186e-07
1.03450302203e-07
4.37772074379e-08
2.37469736698e-08
1.86847236014e-08
1.84624068854e-08
1.89932652811e-08
1.92275970516e-08
3.28495097456e-06
4.06920452842e-06
3.35110137697e-06
2.60019443105e-06
2.13819443201e-06
1.79303344419e-06
1.47968012257e-06
1.19859481791e-06
9.59728495956e-07
7.54607170118e-07
5.64152259562e-07
3.72701196319e-07
1.99405567877e-07
8.82215419716e-08
3.90738884088e-08
2.24842554827e-08
1.82425596087e-08
1.8135789616e-08
1.88871140793e-08
1.96764880132e-08
3.65383353117e-06
4.27870156234e-06
3.45695982665e-06
2.54888463751e-06
1.99481397977e-06
1.64793045017e-06
1.36819752278e-06
1.12201715063e-06
9.04960412107e-07
7.0951682974e-07
5.20493148102e-07
3.29916699945e-07
1.7113970272e-07
7.67997409626e-08
3.57858073319e-08
2.1649652961e-08
1.79160157935e-08
1.78051139916e-08
1.8750976469e-08
2.00966628203e-08
3.95797831863e-06
4.27158634337e-06
3.52054748952e-06
2.56963147285e-06
1.92741061552e-06
1.54893124804e-06
1.28095854176e-06
1.05485790646e-06
8.54425882907e-07
6.69166439869e-07
4.7973537232e-07
2.93857010994e-07
1.51393246784e-07
7.00398627915e-08
3.4161341928e-08
2.1346857088e-08
1.77634689855e-08
1.75360154703e-08
1.86318005149e-08
2.0490127835e-08
3.94302532432e-06
4.10409752161e-06
3.4497299026e-06
2.53721458941e-06
1.86387425608e-06
1.46673746151e-06
1.20846944167e-06
1.00269682746e-06
8.20749434134e-07
6.40312654394e-07
4.48148011023e-07
2.70482658973e-07
1.41718748876e-07
6.80611422878e-08
3.42729106119e-08
2.16243397705e-08
1.78455227677e-08
1.74217069705e-08
1.85725735338e-08
2.08585434777e-08
3.61022033148e-06
3.77267873242e-06
3.23650812603e-06
2.40383520347e-06
1.76034466665e-06
1.39215903751e-06
1.16586992252e-06
9.83153346054e-07
8.09989582709e-07
6.25037424384e-07
4.31606349013e-07
2.62813105012e-07
1.42209383488e-07
7.08161095809e-08
3.62007248754e-08
2.25424547025e-08
1.82176192041e-08
1.75471233055e-08
1.86012693843e-08
2.12118363641e-08
3.14107519682e-06
3.26748905497e-06
2.85095541212e-06
2.18390551824e-06
1.66685982111e-06
1.37538326166e-06
1.1771954656e-06
9.9717287989e-07
8.15880333821e-07
6.24119088354e-07
4.33783315188e-07
2.71654315813e-07
1.53006297263e-07
7.86716694566e-08
4.0164104984e-08
2.41547128851e-08
1.88686719695e-08
1.78904516218e-08
1.87893257693e-08
2.15636722708e-08
2.81847958264e-06
2.83600065915e-06
2.53836735724e-06
2.07435202611e-06
1.7015846916e-06
1.4494606099e-06
1.23348991319e-06
1.02741857491e-06
8.32584012925e-07
6.41236839191e-07
4.57215981607e-07
2.97708590803e-07
1.74933078909e-07
9.23741671213e-08
4.65202609055e-08
2.65780011019e-08
1.97714314301e-08
1.83219655187e-08
1.91441881187e-08
2.19125072913e-08
2.79208454853e-06
2.82538195578e-06
2.59836545195e-06
2.23296149859e-06
1.88167806891e-06
1.57712522298e-06
1.30554025596e-06
1.06929842035e-06
8.66545334505e-07
6.80186417057e-07
5.02862999124e-07
3.42974431224e-07
2.11121432926e-07
1.14624791014e-07
5.66768133202e-08
3.02710077187e-08
2.09984187188e-08
1.87432206878e-08
1.94699818935e-08
2.23599766236e-08
3.12538752191e-06
3.21691454361e-06
2.98027320677e-06
2.55544041679e-06
2.11517590877e-06
1.7317605098e-06
1.40759560477e-06
1.14217694358e-06
9.29839962521e-07
7.46500030057e-07
5.74693728021e-07
4.13058974201e-07
2.6849833491e-07
1.51357592904e-07
7.3707084534e-08
3.62691390429e-08
2.28537428332e-08
1.92083647959e-08
1.95965104419e-08
2.26558293242e-08
3.65171435833e-06
3.73954414478e-06
3.41004090288e-06
2.8807044776e-06
2.37282828761e-06
1.9387512652e-06
1.56769591007e-06
1.26647376273e-06
1.03454255625e-06
8.4418210394e-07
6.72286535811e-07
5.08886005717e-07
3.52291983907e-07
2.09887969465e-07
1.02560525793e-07
4.65042138042e-08
2.59650824989e-08
1.99461911181e-08
1.95438986512e-08
2.24498394168e-08
3.72189031124e-06
3.88815417259e-06
3.6004809929e-06
3.12528335396e-06
2.64673557353e-06
2.19552514028e-06
1.77776679997e-06
1.43763275656e-06
1.17479290432e-06
9.62911836992e-07
7.80321367269e-07
6.13528321733e-07
4.51053455207e-07
2.88007775462e-07
1.46350423159e-07
6.32773266665e-08
3.12205098019e-08
2.13210358551e-08
1.95084514117e-08
2.18319446193e-08
3.029994893e-06
3.90641833513e-06
3.79943035465e-06
3.37522570608e-06
2.92139663928e-06
2.46616562507e-06
2.01048557119e-06
1.63108632163e-06
1.32701182888e-06
1.0823315078e-06
8.79358196427e-07
7.04399608441e-07
5.40287455001e-07
3.67745942341e-07
1.99262659859e-07
8.69086444158e-08
3.9293385726e-08
2.36870614457e-08
1.97736407279e-08
2.11486436771e-08
2.66871170862e-06
3.86279531264e-06
3.95741624322e-06
3.59320874757e-06
3.15322613099e-06
2.69780266951e-06
2.2331679785e-06
1.82192147353e-06
1.47476000178e-06
1.19289446086e-06
9.64263029731e-07
7.76373650311e-07
6.09093114288e-07
4.33565425849e-07
2.50820964826e-07
1.14911788043e-07
5.02820279388e-08
2.73056627973e-08
2.05997178765e-08
2.07596966839e-08
2.50347024239e-06
3.75647297664e-06
3.98062120981e-06
3.70885141767e-06
3.31931024102e-06
2.8862457084e-06
2.42601967554e-06
1.99332611382e-06
1.61138291638e-06
1.29422760426e-06
1.03868581182e-06
8.3526471251e-07
6.61303012861e-07
4.8253362932e-07
2.93206080712e-07
1.42112151661e-07
6.26116469174e-08
3.18072836545e-08
2.19008015643e-08
2.06590177473e-08
2.32837317193e-06
3.5287456917e-06
3.84128986088e-06
3.68448535052e-06
3.38199469245e-06
3.00096482247e-06
2.56325682683e-06
2.12383029102e-06
1.72031934905e-06
1.37671681955e-06
1.09938991717e-06
8.82647429215e-07
7.00967636429e-07
5.17198624741e-07
3.23721027458e-07
1.63998443893e-07
7.39368186185e-08
3.64178786534e-08
2.34309290912e-08
2.07642109716e-08
2.15335328418e-06
3.22086485077e-06
3.57320795665e-06
3.52674549958e-06
3.3264484142e-06
3.01618462678e-06
2.61728419904e-06
2.18755973765e-06
1.77883318142e-06
1.4236712453e-06
1.13657608389e-06
9.14245785675e-07
7.27673966546e-07
5.39058947008e-07
3.42779003297e-07
1.79249189751e-07
8.3055319498e-08
4.06048427491e-08
2.49893730923e-08
2.09944032634e-08
2.00143993255e-06
2.93178891022e-06
3.25996011808e-06
3.28076308505e-06
3.16928816126e-06
2.92859662554e-06
2.57466675943e-06
2.16884291217e-06
1.77209104439e-06
1.42390094805e-06
1.14343995458e-06
9.2657752663e-07
7.40293926026e-07
5.48528221159e-07
3.51233337004e-07
1.88048530331e-07
8.97045806449e-08
4.41798317196e-08
2.65001697082e-08
2.13219021133e-08
1.8529894644e-06
2.77491633349e-06
2.98497245933e-06
3.00743633782e-06
2.94734197534e-06
2.75509106958e-06
2.44103379996e-06
2.06917867767e-06
1.70133266077e-06
1.37976590064e-06
1.12313679373e-06
9.22281540624e-07
7.40143699922e-07
5.46501221778e-07
3.50672154627e-07
1.9185654837e-07
9.45852545861e-08
4.7426695042e-08
2.81066867204e-08
2.18371502433e-08
1.84579125371e-06
2.62141409976e-06
2.69999626526e-06
2.71634678256e-06
2.67891954997e-06
2.51296095272e-06
2.23588380751e-06
1.90809079012e-06
1.58672435209e-06
1.31001933995e-06
1.09034207997e-06
9.0997565713e-07
7.30738937158e-07
5.35412665005e-07
3.44413041395e-07
1.93618199904e-07
9.93901227052e-08
5.11559487142e-08
3.02200264464e-08
2.27752294452e-08
1.94341550728e-06
2.630575166e-06
2.48487835853e-06
2.38075227614e-06
2.3451414077e-06
2.21793106259e-06
1.99410458587e-06
1.72659017209e-06
1.46711522133e-06
1.24613342178e-06
1.06574456934e-06
8.99010547858e-07
7.16332949409e-07
5.20242261457e-07
3.38089701397e-07
1.97612868457e-07
1.06627829575e-07
5.66467687007e-08
3.35001058645e-08
2.44902799469e-08
2.03780288707e-06
2.74351223063e-06
2.43503192061e-06
2.12107280552e-06
2.02105533661e-06
1.92891331071e-06
1.77265631976e-06
1.57846301089e-06
1.38731740299e-06
1.21919805432e-06
1.06352424207e-06
8.93624956899e-07
7.02387203693e-07
5.08875778749e-07
3.38834531787e-07
2.08650679259e-07
1.19241876774e-07
6.55007667998e-08
3.87594214378e-08
2.73803588891e-08
2.27924456619e-06
2.64425402351e-06
2.41422928295e-06
2.01193342507e-06
1.82267779957e-06
1.73102941056e-06
1.63160848699e-06
1.50832116205e-06
1.37721984976e-06
1.24040150564e-06
1.08168029665e-06
8.95089695983e-07
6.9699906718e-07
5.10413627564e-07
3.53223022204e-07
2.31024865739e-07
1.4020141278e-07
7.96028246991e-08
4.69890960521e-08
3.18942760794e-08
2.57120889854e-06
2.68815048091e-06
2.43769356222e-06
2.04433031204e-06