/*--------------------------------*- C++ -*----------------------------------*\
| =========                 |                                                 |
| \\      /  F ield         | OpenFOAM: The Open Source CFD Toolbox           |
|  \\    /   O peration     | Version:  2312                                  |
|   \\  /    A nd           | Website:  www.openfoam.com                      |
|    \\/     M anipulation  |                                                 |
\*---------------------------------------------------------------------------*/
FoamFile
{
    version     2.0;
    format      ascii;
    arch        "LSB;label=32;scalar=64";
    class       volScalarField;
    location    "0.965/water";
    object      k.gas;
}
// * * * * * * * * * * * * * * * * * * * * * * * * * * * * * * * * * * * * * //

dimensions      [0 2 -2 0 0 0 0];

internalField   nonuniform List<scalar> 
1497
(
0.0528585822756
0.0400487724292
0.030160793355
0.022629163862
0.0173175078288
0.0137422402861
0.0109338668799
0.0082001699785
0.00559526502135
0.00351465764829
0.00219294905655
0.00150499322015
0.00121392065378
2.22663860899
0.87255353654
0.420309989718
0.226348672513
0.1377692239
0.0922091428716
0.0657100239945
0.0486100712115
0.0366255518912
0.0278815510134
0.0215475697666
0.0171878862787
0.0140594780016
0.0112953584374
0.00853314135181
0.00592210144992
0.00381990407347
0.002434950039
0.00165835209223
0.00127587754838
2.28269178021
0.877145465464
0.41500981189
0.2215593609
0.134552619249
0.089405266331
0.0628351088841
0.0458782767236
0.0344859489763
0.0266342644143
0.0212489641575
0.0175155378069
0.0145691254916
0.0117979579087
0.00904068351753
0.00642223448035
0.00425544171496
0.00275474176041
0.00184852198263
0.00134529665821
2.15662772841
0.878744304326
0.415472194959
0.221601321595
0.134211834817
0.0886432868939
0.0617318426953
0.0447405951276
0.0337350157917
0.0265477148102
0.0217333053818
0.0182385186391
0.0153182296202
0.012594251956
0.00987259018266
0.00719901986255
0.00485920020579
0.00313672828972
0.0020346913669
0.00141556639028
1.95407575265
0.861950415508
0.417613487892
0.225442412769
0.136557457261
0.0899479276142
0.062440945555
0.0452246087705
0.0343564758602
0.0274785995698
0.0227998458716
0.0193087609575
0.0164463106162
0.0138183912027
0.0111217988221
0.00825028973232
0.00551501143784
0.00344395720582
0.00219328766735
0.00148812926642
1.83064529681
0.852198936977
0.425152016062
0.232899063307
0.141593757632
0.0934428896934
0.065050679743
0.0473321402425
0.0362201449287
0.0291787169447
0.0243480560541
0.0208091742417
0.0179806618641
0.0153678180078
0.0124792126683
0.00907345674316
0.00586244591779
0.00367918619455
0.00236010606949
0.00155860654268
1.85179145461
0.877428400087
0.444864425847
0.246222668215
0.150239936942
0.0994547278778
0.0695752004687
0.0508836642754
0.0390684527655
0.0314510951372
0.0262618231165
0.0224969686556
0.0193949255256
0.0162516853394
0.0127717354366
0.0091228964112
0.00603804677683
0.00392758310924
0.00253478743845
0.00163370165841
1.87703833779
0.917448987727
0.47294239568
0.262183179864
0.159532642539
0.10534240614
0.0737881527814
0.0541652395229
0.0416336805324
0.0333723045428
0.0276298505282
0.0232692923912
0.0194106241605
0.0156975704535
0.0122369292266
0.0089798893362
0.00621357116852
0.00415611629426
0.0026946670911
0.00170919748401
1.77222710301
0.857204375082
0.442197876552
0.24925474195
0.154843296215
0.103874702686
0.0734413266419
0.0541733851982
0.0416734512288
0.0332286012292
0.027182554192
0.0224599893287
0.0184118515177
0.0148736615722
0.0117833760453
0.00888288537415
0.00631948509987
0.00429540094081
0.0027969298825
0.0017587544837
1.65613843069
0.749959319833
0.380877733432
0.217285302885
0.137961161061
0.0946773073497
0.0681466424939
0.0506935817048
0.0390294465415
0.0310460496131
0.0253136638142
0.0209043896036
0.017280003654
0.0141826240923
0.0113766705473
0.00868051334713
0.00625781757168
0.00429395437897
0.0028065086651
0.00176117418408
1.54621165913
0.680371650871
0.337483962164
0.191073546256
0.122227048054
0.0850165805635
0.0619446636675
0.0462762574473
0.0355346569882
0.0282227814348
0.0230610211886
0.0191956464328
0.0160850589902
0.0133709177037
0.0107858503849
0.00827190242097
0.00601042594447
0.00415523925655
0.00272853316542
0.0017199802517
1.49260031617
0.648280423002
0.3150101791
0.176146298221
0.112326615306
0.0780785306185
0.0567969545358
0.0421146373685
0.0321406050364
0.0254523750614
0.020844577301
0.0174807284093
0.0147978025425
0.0123878984856
0.0100232185306
0.00771720930784
0.00564765928007
0.00393299521307
0.00259619665878
0.00165117054259
1.4814438381
0.637483775756
0.306483858688
0.169718403426
0.107114669948
0.0733381540511
0.0524228368628
0.0382865525477
0.0290128589776
0.0229262779168
0.0188261321598
0.0158836242705
0.0135302892982
0.011366795468
0.00921872986431
0.00713069679341
0.00525797844322
0.00368335217307
0.00243900997955
0.00156797673165
1.49461523165
0.641652202707
0.30847282906
0.168594225056
0.104320807699
0.0696080681943
0.0484543900839
0.0349241871869
0.0263043661713
0.0207727330541
0.0171090617949
0.0144968371505
0.0123876188813
0.0104268089941
0.00847847748377
0.00659670869256
0.00489807634317
0.00343544009378
0.00226860001366
0.00148800744069
1.53295663426
0.673015027723
0.321811363168
0.170449726462
0.102430958068
0.0665052484628
0.045245212399
0.032166047352
0.024072305853
0.0190081338439
0.0157034939264
0.0133459185611
0.0114225304865
0.00963133015837
0.00786048308885
0.00615748368248
0.00458654365471
0.00318871435023
0.00210214248568
0.00142556733772
1.69880790028
0.720710607751
0.336555541024
0.171571554772
0.100386745102
0.0639420461416
0.0427245455325
0.0299491264862
0.0222621322879
0.0175876873506
0.0145817740565
0.0124280991287
0.0106548493897
0.00900594570413
0.00738699414711
0.00581870650846
0.00430614428674
0.00295057254035
0.00195772130069
0.00138846713249
2.04895019198
0.807849174855
0.360580413968
0.175496535678
0.0993355843843
0.0620775728622
0.0408107674416
0.0282086096568
0.0208405956889
0.0164916275189
0.0137302301664
0.011738119243
0.0100845041091
0.00854918792283
0.00704613319684
0.00554662264351
0.0040494256298
0.0027368093003
0.00184461134364
0.00137791715397
2.40488453688
0.909736449367
0.39341376537
0.184083072242
0.100651960711
0.0614527198412
0.0396306902471
0.0269868849477
0.0198297706183
0.0157213703916
0.0131328425958
0.0112512152609
0.0096793269362
0.00822025793293
0.00678497866164
0.00531799415175
0.00381713626479
0.00255441813332
0.00176718759601
0.00138674483631
2.54095645353
0.963689653481
0.417753366729
0.195256016786
0.104737787566
0.0623759812539
0.0393206698191
0.0263410458149
0.0192235049135
0.015226704341
0.0127242129282
0.0108996852308
0.00937406526246
0.00796528631497
0.00657276728341
0.00510454544164
0.00360457663627
0.00241617017819
0.00172240403799
0.00140540904921
2.34704773667
0.956586114326
0.431350782687
0.207857057716
0.110906418858
0.0646274127692
0.039849563624
0.0262173391931
0.0189271516858
0.0149233637137
0.0124379202379
0.0106314923037
0.00912804244901
0.00774696966553
0.00636617633602
0.00489687117437
0.00343953098262
0.00233059431857
0.00170369709763
0.00142588648219
2.10551925172
0.950150453712
0.45207591329
0.223384149299
0.118614905473
0.0684137039275
0.041520078344
0.0267842509853
0.0189894998512
0.0147773091307
0.0122165763593
0.0103890975795
0.00889398521081
0.00753338912988
0.00616926939677
0.00472538438026
0.0033261957743
0.0022811888775
0.00169903400956
0.00144477835543
2.08650384471
1.005423189
0.49189365951
0.24537437922
0.131825541269
0.0756650847893
0.0451727593554
0.0283601914034
0.0195037069024
0.0148171027893
0.0120630944146
0.0101718126666
0.00868243054611
0.00735831215183
0.00603467777136
0.00462948203397
0.00327547726957
0.002269100662
0.00170914178349
0.00146746075587
2.33272612231
1.1453631476
0.562616311217
0.282419467984
0.153156287296
0.0879780207747
0.0517729619484
0.0314645708085
0.0207462448983
0.015189496528
0.0120716021
0.0100583296455
0.00856753972282
0.00729397873687
0.00602669065457
0.00465600905826
0.00331891496444
0.00231734834529
0.00175577353719
0.00151574033277
2.65369367751
1.30293696513
0.643437411001
0.332134057305
0.182967321248
0.104863683795
0.0610849643131
0.0361307747711
0.0228613060852
0.0160301002777
0.0123551235018
0.0101525751218
0.008642145462
0.0074197805481
0.00620689004892
0.00484889801809
0.00349109951796
0.00245796627405
0.0018694037002
0.00161794544414
2.76109961514
1.27343276425
0.637921171627
0.347069493044
0.201914519103
0.121195051057
0.071989129444
0.0418366488706
0.0256763186265
0.0173448457107
0.0129608467682
0.0104981335771
0.00895156436362
0.00777269991211
0.00659562587398
0.00521922125801
0.00380814812094
0.00271436204399
0.00207636040668
0.001800281973
2.55442746652
1.16343292401
0.590743500048
0.329698058253
0.199181072454
0.125500111451
0.0787773265184
0.0478381980605
0.0290090567398
0.0190396593663
0.0138585925402
0.0110802188978
0.00947424532918
0.00832553828701
0.00715545734283
0.00573441061024
0.00425598623269
0.00309062127392
0.00239199404817
0.00208422571384
2.31103483518
1.05855275989
0.540260519344
0.305670813277
0.189355171744
0.123324124883
0.0805219687189
0.0511011982326
0.0317933688833
0.0208276768168
0.0149449671654
0.0118467306585
0.0101606040529
0.00901821695206
0.00782012592554
0.00634113291583
0.00480189831743
0.00357418312086
0.00282068614787
0.00247819059789
2.15909086055
0.986116641181
0.503890452722
0.286879569223
0.179994514006
0.119188323998
0.0795561258706
0.0519059100812
0.0332322956081
0.0220814408363
0.0159010105024
0.012650478756
0.0109399438938
0.00978232575623
0.00851425231486
0.00698196426201
0.00541116511585
0.0041457822783
0.00335571528205
0.00296436551914
2.07980701264
0.943382983159
0.482395948761
0.274237109403
0.171995452926
0.114042586061
0.0765833176557
0.0506674036531
0.0332849780454
0.0226229038256
0.016590733963
0.0134341791299
0.0117842333242
0.0105739214884
0.00920285330555
0.00761487926688
0.00603692476332
0.00477923889377
0.00397630927878
0.00348371077057
2.05342869882
0.928923492973
0.474068769726
0.265989380939
0.164748282064
0.108265823315
0.0724205429605
0.0483384338509
0.0324503900781
0.0226555357177
0.0171095202195
0.014242843251
0.0126706331714
0.0113490854472
0.00986747114972
0.00823063767767
0.00666402763534
0.00544215195128
0.00463817354555
0.00398582132127
2.06655931394
0.943367780972
0.475947105595
0.2601181965
0.158101521605
0.102722522789
0.0683241969583
0.0458410436193
0.0313308096024
0.0225224634606
0.0176425391786
0.0151185818879
0.0135457244658
0.0120827959089
0.0104967827615
0.00882082341929
0.00728002959839
0.00610792265937
0.0052681599053
0.004483119835
2.22208151556
0.960611982111
0.473282241782
0.25265387032
0.151400380731
0.0976339495159
0.0647173878561
0.0435941504658
0.0303247389018
0.0225243635287
0.018332275327
0.0160452710341
0.0143690467899
0.0127678695618
0.0110818110736
0.00937290420117
0.0078672953167
0.00672956472968
0.0057896021478
0.00499441697112
2.54819847961
1.0118891204
0.474732762855
0.245263587557
0.144975307419
0.0931173906563
0.0617610703672
0.0419047603755
0.0297798078204
0.0229333369568
0.019246522266
0.0169722146948
0.0151451830632
0.0134031766188
0.0116128096939
0.00987015355892
0.00839736935676
0.00723777357811
0.00620937330172
0.00551816316654
2.80214047631
1.05723826267
0.480427460051
0.242997891352
0.141797224306
0.0906333189297
0.0602099242258
0.0412957510143
0.0301162783366
0.0239121009786
0.020347064192
0.0179032596013
0.0159034399929
0.0139989063411
0.012085726369
0.0102964986565
0.00880227635696
0.00758631548819
0.00661129672584
0.00602966101933
2.723120241
1.07705240472
0.490911545137
0.248913815411
0.144337026219
0.0916959094057
0.0609870669606
0.0423574991218
0.0315956899354
0.0254429494425
0.0216352205125
0.0189468766714
0.0167150849837
0.0145948019272
0.0125172775181
0.0106070445505
0.00903455665263
0.00786364364267
0.00703305424462
0.00650709005632
2.50651504628
1.08553884595
0.513543843416
0.265609837487
0.153954852233
0.0973919007921
0.0649101786305
0.0455464614904
0.0343149294161
0.0276466428454
0.0234094418019
0.0203351869646
0.0177382166513
0.0152678979931
0.0128635576164
0.0107312880895
0.00918891468175
0.00817693581708
0.00746251918806
0.00693809029224
2.45186560881
1.13927811223
0.561665065226
0.297190343163
0.172980955956
0.109581460979
0.0731776490439
0.0515267265813
0.0388006586071
0.0311276987946
0.0260988403424
0.0223154597978
0.0190273395435
0.0158890844969
0.0130166007166
0.0108213722725
0.00943011288824
0.00853563791268
0.00788335518703
0.00731461616368
2.65203443036
1.29745222091
0.658797285667
0.351320580649
0.204066576127
0.128235548068
0.0852892052661
0.0599875231292
0.0450032435736
0.035827428217
0.0295646071613
0.0245920038457
0.0202060069337
0.0163380676792
0.0132537726035
0.0111191168762
0.00979303343763
0.00893035095776
0.00827995854753
0.00764013504548
0.00121392701848
0.00155829389045
0.00233897602894
0.00318183623312
0.0038506514428
0.0042923399994
0.00451324680063
0.00456455234841
0.00452785934361
0.00445951947169
0.00442708185612
0.00493253669502
0.00665295823657
0.00784652879563
0.00961406181263
0.0112552032016
0.0118734787127
0.0106913985622
0.00700514153797
0.0160291793361
0.00118419721007
0.00139119438892
0.00193309452905
0.00261332863385
0.00318315330533
0.00358472122295
0.00383001949821
0.00394486550504
0.00395309345705
0.00390815151336
0.00396118233764
0.00482387788319
0.00688963045078
0.00783344364254
0.0111816850085
0.0128525183214
0.0132136578312
0.0118249587529
0.00681408751417
0.0155437472936
0.00115129387318
0.00122924275224
0.0015564045007
0.00203145168318
0.00249963249764
0.00286451856836
0.00312988062576
0.00329253850573
0.00336080897402
0.00337886420076
0.00357255700543
0.00479893448533
0.00716804450242
0.00865747811068
0.0122678435783
0.0135048568443
0.0134950948419
0.0119249083879
0.00632304686761
0.0148984764337
0.00112545707631
0.0010875970046
0.00125082445828
0.00154528227051
0.00187734657313
0.00219457548591
0.00248394578619
0.0027174821812
0.00286587930178
0.0029522763888
0.003300327575
0.00485798246616
0.00744706381384
0.0105216216287
0.0129848451996
0.0136872341804
0.0129817397351
0.00959215495351
0.00542394835861
0.0142845016869
0.0011135227256
0.000978292168683
0.00102748411202
0.00120246514306
0.00143625316806
0.00168234526458
0.00193829415058
0.00222563019219
0.00247831094335
0.00265208505946
0.00315529815875
0.00498354727724
0.00766453528909
0.0122991185079
0.01407906788
0.0142189440947
0.0125449198919
0.00667922960003
0.00464720607044
0.014325672723
0.00110959741634
0.000903038494662
0.000875549595675
0.00098047196508
0.00116162591344
0.00137219757116
0.00160025415656
0.0018690847756
0.00218471543621
0.00246019834028
0.00313584895389
0.0052038325392
0.00804158668659
0.013979997444
0.0155846304868
0.0147166336086
0.0102249780732
0.00515393109136
0.00425369581306
0.014553212524
0.00111285112774
0.00085711169207
0.00078350054726
0.000849211443362
0.00100299856372
0.00119883857254
0.00141875873597
0.00167650477175
0.00199735744867
0.00236562795514
0.00323510416443
0.00563761234215
0.00851271651867
0.0159703321366
0.0171904145213
0.0144665659331
0.00744585095026
0.00449814753153
0.00405496388526
0.0149538476299
0.00112696679746
0.000835195869188
0.000737743582385
0.000785953911633
0.000928403705602
0.00112056287531
0.00134057625681
0.00159718688055
0.00192253870305
0.00237056802104
0.00348842958436
0.00632057818848
0.00888760331312
0.0182467050577
0.0183366584487
0.0116264108531
0.00601437506922
0.0041947619715
0.00393585939662
0.015660490873
0.00113876722046
0.000829042292587
0.000725575298684
0.000772546685711
0.000915275818458
0.00111135129402
0.001335894944
0.00159559214774
0.00193801764471
0.00251890745343
0.00392392386693
0.00696179914063
0.00926307798594
0.0211173574026
0.0170510542627
0.0086877920262
0.00521800260712
0.0040161196058
0.0038410726759
0.0168671955122
0.00113725099438
0.00083137968182
0.000738493176759
0.000796963400193
0.000948684741334
0.00115432112038
0.00138730670502
0.00165877203884
0.0020513967777
0.00282171802556
0.00454777011007
0.00750564790903
0.00983536617947
0.0228874758883
0.0131679802945
0.006993411426
0.00472932579911
0.00389756988754
0.0037582146084
0.0188007267279
0.00112232650174
0.000841809670134
0.000774232108612
0.000852646936555
0.00101995451781
0.00123927765687
0.00148496428048
0.00178339294096
0.00226680430428
0.00324468086812
0.00528174487835
0.00799647736753
0.0104431169152
0.0206474986249
0.0100126861438
0.00589864590918
0.00439215256853
0.00380453928888
0.00369145138416
0.0225677847
0.0011026663254
0.000864655841217
0.000833430704771
0.000936270168893
0.00112400148987
0.00135924023025
0.00162155443524
0.00196465383908
0.00257675051702
0.0037872387023
0.00612871526577
0.00857126012826
0.0110442530057
0.0163823812649
0.00780293053051
0.00510350632012
0.0041274244623
0.0036899138186
0.00364122980998
0.0284605004285
0.00108920575331
0.000905539448281
0.000914774774187
0.00104560196459
0.00125617048748
0.00150767792522
0.00178977866094
0.00221220434202
0.00301238888141
0.0045030813802
0.00714730955891
0.00915790930894
0.0116214974118
0.0126615849533
0.00615901491805
0.00445470579676
0.0038275315482
0.00356200274078
0.00362707930319
0.0334827064418
0.00109093672209
0.000967782269
0.00101600234186
0.00117724087391
0.00140988713611
0.00167600128297
0.00199951838681
0.00257592326836
0.00365657127463
0.00556978071497
0.00825664025174
0.00966282775638
0.0115361721053
0.00948238396071
0.00486085466187
0.00388379610952
0.00352346845047
0.00345748221579
0.0048667228823
0.0357189037476
0.00111375556279
0.00104756273037
0.00113373649284
0.00132501786369
0.00157733074858
0.00186506038814
0.00230110697365
0.00315310625199
0.00461459807876
0.00696529163226
0.00891882505748
0.0101187464178
0.010546722887
0.00677136231011
0.00382998530287
0.00332619274542
0.00329031826434
0.00364489492357
0.00553768537529
0.0366128702818
0.00115697013899
0.00113944584772
0.00126186864023
0.00147975780126
0.00175191025377
0.00211206358123
0.00281559100108
0.00404943474517
0.00587650082431
0.00776914244688
0.00908893518647
0.0102506531277
0.00880558389091
0.00463791171652
0.00301187898374
0.00287531900118
0.00313693050339
0.0047668083284
0.00957835444282
0.0376446720639
0.00121255169643
0.00123713430179
0.00139136136256
0.00163256723981
0.00195182795536
0.00254023154401
0.00367968440204
0.0051504006517
0.00652436101631
0.00761957333691
0.00914784834602
0.00948291800083
0.00660216472298
0.00319014076643
0.00231850499618
0.00254763820117
0.00388823877531
0.00560907895322
0.0147424152727
0.0390623214167
0.00127256941126
0.00133149438548
0.00151157996735
0.0017834340228
0.00225110546375
0.00331479532633
0.00467924724855
0.00562278999099
0.0062782386181
0.0073232997234
0.00851633224717
0.00783326571806
0.00451244544188
0.00231297784613
0.00182983513203
0.00238377759877
0.00448998582225
0.00666570383322
0.0127021977914
0.0411038510231
0.00132768450517
0.00141193602907
0.0016141159341
0.00195926568165
0.0027200822788
0.00413800656246
0.00517061275121
0.00554615156261
0.00589647206741
0.00667658264979
0.00718146322229
0.00584543316914
0.0030326386135
0.00170138547164
0.0015268935944
0.0030731829369
0.0080936588187
0.00611033030812
0.00800699698019
0.0437028261979
0.00137091623133
0.00147288634221
0.00170485896593
0.00218427778168
0.00315860420827
0.00467763578608
0.00539947010798
0.00535531561042
0.00539480457651
0.0057291123982
0.00563127292892
0.00407445948474
0.00214666810202
0.00123978395764
0.00152329185199
0.00386341692157
0.0207566505137
0.00551791098565
0.00666118019817
0.045801284652
0.00140420912771
0.0015217580291
0.00180870446745
0.00230952626161
0.00343732258952
0.00504799831735
0.00550954705302
0.00509276672284
0.00481241834835
0.00473259831603
0.00422080897687
0.00278812929419
0.0015262724264
0.000940731889236
0.00186407386524
0.0109537892931
0.0261550105395
0.00423985638399
0.00645360073625
0.0457022853095
0.00143965386103
0.00157938933168
0.00187099549274
0.0023289820222
0.00360589663005
0.0051964359522
0.00548047580926
0.00478661459162
0.00423220827164
0.00382468859876
0.00307442739526
0.00196128037713
0.00104181661453
0.00103540960839
0.00412785153702
0.0182357965447
0.0259877910236
0.00402606013635
0.00533109500773
0.042323188372
0.00150048850338
0.00165983931878
0.00185532510724
0.00230263451376
0.00355076547038
0.00505618711472
0.00528930200705
0.00445839814194
0.00370729137235
0.00305421086654
0.0022427535557
0.00138140203953
0.000734833071487
0.00125457369852
0.010291179937
0.0191895676326
0.0257753741875
0.00398978855518
0.005454085935
0.0340613715848
0.00161277257828
0.0017378333715
0.0018322448777
0.00224018924497
0.00330491590029
0.00466779314311
0.00495946994295
0.00411511757175
0.00324917599354
0.00243777256018
0.0016820407035
0.000950681213286
0.000789200487861
0.00364444065628
0.0122522786694
0.0197421085059
0.0260927528297
0.00395268154787
0.00567395987527
0.0235793707196
0.00179595845463
0.00182262500658
0.00184608511205
0.00216941406392
0.00301481434038
0.00418301213901
0.00454450567956
0.00376503459602
0.00283699713155
0.00195822403268
0.00124994822355
0.000675217041584
0.00101256754851
0.00643988221516
0.0129833902641
0.0204926731965
0.0269345758758
0.00394641012504
0.00587024960426
0.0173950993122
0.00204602253625
0.0019458219895
0.00190532489657
0.00212301095923
0.00276637883026
0.00371967629991
0.00408952183808
0.00340820202556
0.00243425353589
0.00157987550111
0.000899000478666
0.000738876001877
0.0032054065624
0.00727526713317
0.0137828434886
0.0213280519537
0.0280520590558
0.00402397218507
0.00599886189071
0.0159474879504
0.00232903086125
0.00212225203743
0.00201572476031
0.00211961316682
0.00257980282919
0.00331596802867
0.00362415638623
0.00303698140056
0.00204856308837
0.00123855114165
0.000666937307057
0.00134217814711
0.00468853023259
0.00796259630354
0.0147063509324
0.0222631044526
0.0294879470355
0.00427326337407
0.00611797910104
0.0180482334758
0.00264756735666
0.00236993632619
0.00218712018425
0.00217199448036
0.00246373311845
0.00298469114435
0.00318135678304
0.00265263194056
0.00172237925403
0.000944041563376
0.000815046501067
0.00387007187986
0.00507559819892
0.00888694786881
0.0159467968309
0.0237742625858
0.0320475768553
0.00522714629138
0.0062644701477
0.0271592017644
0.00302229320296
0.00270511984038
0.00243011524076
0.0022919864425
0.00242555235332
0.00273249925819
0.00278987203729
0.00227292231856
0.00142640716819
0.000786786449767
0.00271528535586
0.00434335452514
0.00562599240838
0.0101875187295
0.0178277559641
0.0265202675288
0.0370107207659
0.00537090762231
0.00633872748959
0.0406740730886
0.00348392469414
0.00313413412983
0.00275272789451
0.00248774067345
0.00246443692661
0.00256431550166
0.00246850164834
0.00196037162929
0.00114408315142
0.00115631580026
0.00455914843863
0.00455989196241
0.00646034730157
0.0121042747056
0.020625101147
0.0307795385827
0.0442770735517
0.00617657109391
0.00619509280011
0.0496693229039
0.0040414765901
0.00365193660945
0.0031562817452
0.00275867044633
0.00257419961626
0.00248192275958
0.0022268682346
0.00171786996175
0.00111297201211
0.00398525043075
0.00470299973151
0.00486943707196
0.00761542152609
0.014783179608
0.0246121901284
0.0362918008286
0.0184517319298
0.00633856596715
0.0058039779527
0.0518399955264
0.00466819307546
0.00424048889057
0.00363144384931
0.00309580665504
0.0027448921587
0.00247669777268
0.00208605975573
0.00147490024866
0.00155666027349
0.00540242074171
0.00484826294316
0.00519798662655
0.00886326578621
0.0177977881113
0.0295601187081
0.0426584290652
0.00692605923019
0.00617103837567
0.00542816129239
0.0503049274927
0.00530629763453
0.00486403177173
0.00415223461707
0.00347804817441
0.00295392380048
0.00253704271982
0.00205308179926
0.00141461718242
0.00444606380594
0.00566789733741
0.00504044006307
0.00543741806754
0.00982029530348
0.0205264595218
0.0347474551221
0.0447781813265
0.00749668098026
0.00604124503089
0.00524359974145
0.0493729856343
0.00588223784385
0.00546310192358
0.00466734750446
0.00386117225808
0.00316899966162
0.00263744879458
0.00209217894148
0.00205572458712
0.00680506213295
0.0059390628653
0.00527683766763
0.00557439257229
0.0102972022442
0.0226628516888
0.0395709679847
0.0476137073054
0.00804554919062
0.00590506972195
0.00516617577571
0.0491358129881
0.00633216937855
0.00595302591785
0.00511054946508
0.00420245187174
0.00337017624014
0.00274326286055
0.00221331014922
0.00298072410996
0.00763239355476
0.00629286488506
0.00556181032913
0.00570681042555
0.0103120545938
0.0240279812526
0.0439291421017
0.0497948802696
0.00842684506245
0.00580329330441
0.0051235694759
0.0490617439894
0.00663898186565
0.00627073953353
0.00543392503702
0.00446142629375
0.00352770184763
0.00282091057071
0.00233346591541
0.00320450258611
0.00821104599176
0.00672268183683
0.00589983774026
0.00591005136625
0.010245025338
0.0248525977802
0.0483868109055
0.0423709076452
0.00877691559049
0.00572709499014
0.00509631927667
0.0489269523778
0.00684379020723
0.00640842095911
0.00560096511383
0.00460170977099
0.00361021037116
0.0028402605716
0.00238796304805
0.00295246112197
0.00870164021804
0.00722373642068
0.0063026322351
0.00619651607684
0.010376064455
0.0260469091724
0.0542576545526
0.0195535269252
0.00899594441031
0.00567960405548
0.00507412802924
0.0485786891425
0.00699885078189
0.00641087767842
0.00560074711179
0.00459810015207
)
;

boundaryField
{
    emptyPatch
    {
        type            empty;
    }
    minY
    {
        type            fixedValue;
        value           nonuniform List<scalar> 0();
    }
    maxY
    {
        type            inletOutlet;
        inletValue      nonuniform List<scalar> 0();
        value           nonuniform List<scalar> 0();
    }
    water_to_cooler
    {
        type            kqRWallFunction;
        value           nonuniform List<scalar> 
37
(
0.0160291793361
0.0155437472936
0.0148984764337
0.0142845016869
0.014325672723
0.014553212524
0.0149538476299
0.015660490873
0.0168671955122
0.0188007267279
0.0225677847
0.0284605004285
0.0334827064418
0.0357189037476
0.0366128702818
0.0376446720639
0.0390623214167
0.0411038510231
0.0437028261979
0.045801284652
0.0457022853095
0.042323188372
0.0340613715848
0.0235793707196
0.0173950993122
0.0159474879504
0.0180482334758
0.0271592017644
0.0406740730886
0.0496693229039
0.0518399955264
0.0503049274927
0.0493729856343
0.0491358129881
0.0490617439894
0.0489269523778
0.0485786891425
)
;
    }
    water_to_heater
    {
        type            kqRWallFunction;
        value           nonuniform List<scalar> 
60
(
2.22663860899
2.22663860899
2.28269178021
2.28269178021
2.15662772841
2.15662772841
1.95407575265
1.83064529681
1.85179145461
1.85179145461
1.87703833779
1.87703833779
1.77222710301
1.77222710301
1.65613843069
1.54621165913
1.49260031617
1.49260031617
1.4814438381
1.4814438381
1.49461523165
1.49461523165
1.53295663426
1.69880790028
2.04895019198
2.04895019198
2.40488453688
2.40488453688
2.54095645353
2.54095645353
2.34704773667
2.10551925172
2.08650384471
2.08650384471
2.33272612231
2.33272612231
2.65369367751
2.65369367751
2.76109961514
2.55442746652
2.31103483518
2.31103483518
2.15909086055
2.15909086055
2.07980701264
2.07980701264
2.05342869882
2.06655931394
2.22208151556
2.22208151556
2.54819847961
2.54819847961
2.80214047631
2.80214047631
2.723120241
2.50651504628
2.45186560881
2.45186560881
2.65203443036
2.65203443036
)
;
    }
    procBoundary1to0
    {
        type            processor;
        value           nonuniform List<scalar> 
41
(
3.04626852336
1.49575127522
0.741116000603
0.391078555953
0.226903501552
0.142369536393
0.0947828187114
0.0669456946962
0.0503676747199
0.0398636298231
0.0323635982408
0.0263157391381
0.0211694950452
0.0169744681473
0.0138195139701
0.0116601398531
0.0102754170174
0.00934633247393
0.00863718167263
0.00791617372433
0.00359036820108
0.00278087449757
0.00233637036271
0.0024578696829
0.00846609048427
0.00778794450853
0.00681344712925
0.0066458038547
0.0109982111074
0.028556456988
0.0642644510617
0.0144874191351
0.00884043250179
0.00566567290855
0.00504204824066
0.0480172039731
0.00711457741281
0.00632659222607
0.0054450835314
0.00359036820108
0.00443871587833
)
;
    }
    procBoundary1to3
    {
        type            processor;
        value           nonuniform List<scalar> 
41
(
0.0586241521843
0.0446459031952
0.0332529913634
0.0242664403547
0.0178155269325
0.0135952057746
0.0106152110394
0.00791872246829
0.00533931389665
0.00327672786204
0.00200000662505
0.0013772572761
0.00115449108436
2.09916621823
0.871591464646
0.427603641064
0.232409251178
0.142252994748
0.0963221802906
0.0700802730391
0.0700802730391
0.00122907055115
0.00171431103235
0.00270084610704
0.00369074972543
0.00444785727216
0.00489809378361
0.00504712974574
0.00501422236285
0.00492821118424
0.00487048105727
0.00485722928398
0.00509192075128
0.00635903397024
0.00826921168115
0.00887355337705
0.00914026237063
0.0109773659008
0.00998677165342
0.0073550644916
0.017527727571
)
;
    }
}


// ************************************************************************* //
