/*--------------------------------*- C++ -*----------------------------------*\
| =========                 |                                                 |
| \\      /  F ield         | OpenFOAM: The Open Source CFD Toolbox           |
|  \\    /   O peration     | Version:  2312                                  |
|   \\  /    A nd           | Website:  www.openfoam.com                      |
|    \\/     M anipulation  |                                                 |
\*---------------------------------------------------------------------------*/
FoamFile
{
    version     2.0;
    format      ascii;
    arch        "LSB;label=32;scalar=64";
    class       volScalarField;
    location    "0.875/water";
    object      alphat.gas;
}
// * * * * * * * * * * * * * * * * * * * * * * * * * * * * * * * * * * * * * //

dimensions      [1 -1 -1 0 0 0 0];

internalField   nonuniform List<scalar> 
1496
(
2.65783524883e-06
4.07686219201e-06
4.09525497023e-06
3.59352331621e-06
3.11326219248e-06
2.66678663272e-06
2.23475131616e-06
1.85299466107e-06
1.5545113404e-06
1.34185964976e-06
1.19803795664e-06
1.09652727906e-06
1.01691719152e-06
9.48098682385e-07
8.85487465727e-07
8.25277832862e-07
7.59883927707e-07
6.76263196636e-07
5.61308605036e-07
4.13511922535e-07
2.72996488859e-06
4.25769652511e-06
4.34970249129e-06
3.79981206024e-06
3.23459160285e-06
2.71577965216e-06
2.23132553975e-06
1.82739576214e-06
1.51227403456e-06
1.29143350104e-06
1.14448714301e-06
1.04397882361e-06
9.69630998596e-07
9.09325757738e-07
8.5513902393e-07
7.98133228665e-07
7.24953431746e-07
6.20359758743e-07
4.80042280808e-07
3.15257638983e-07
2.79860221393e-06
4.38606927214e-06
4.59150543102e-06
4.0437784642e-06
3.40663147425e-06
2.8138992307e-06
2.27971050289e-06
1.84082089773e-06
1.49850184379e-06
1.25314285647e-06
1.08929597545e-06
9.848957026e-07
9.18263127677e-07
8.71346246958e-07
8.28311132836e-07
7.71744781453e-07
6.82578222106e-07
5.50553775708e-07
3.9067677232e-07
2.24930555457e-07
2.8342690785e-06
4.46316099909e-06
4.78258851298e-06
4.28726038159e-06
3.62283119092e-06
2.97701567674e-06
2.40021144682e-06
1.92236894801e-06
1.53668604532e-06
1.24658493925e-06
1.04715649524e-06
9.27084045003e-07
8.65378775059e-07
8.34207704876e-07
8.03028177216e-07
7.41218339027e-07
6.27325529862e-07
4.69346212094e-07
3.06850066708e-07
1.5370054524e-07
2.80687793778e-06
4.46186537826e-06
4.89549476668e-06
4.50992306129e-06
3.88184216008e-06
3.2230354552e-06
2.61463050081e-06
2.08476025358e-06
1.64183843072e-06
1.29153952226e-06
1.03926209491e-06
8.87479688723e-07
8.20804703947e-07
8.00831770278e-07
7.75791764444e-07
6.98966995857e-07
5.57541947664e-07
3.89989320138e-07
2.35033127336e-07
9.73717910038e-08
2.67620689392e-06
4.3050777461e-06
4.85593535399e-06
4.62683181626e-06
4.09751969852e-06
3.47438586415e-06
2.85249562206e-06
2.27802385284e-06
1.7788246173e-06
1.36896918865e-06
1.06212829975e-06
8.72452134869e-07
7.91578394408e-07
7.73036705515e-07
7.4397266143e-07
6.45871294399e-07
4.87338184977e-07
3.24174431628e-07
1.67708287507e-07
5.86009590253e-08
2.48883504967e-06
3.97199550147e-06
4.58694914117e-06
4.5304595438e-06
4.14558803059e-06
3.60356290292e-06
3.00219243992e-06
2.41177774187e-06
1.87933644213e-06
1.43069648708e-06
1.08674894801e-06
8.68627996953e-07
7.73433816144e-07
7.51596350704e-07
7.11978910762e-07
5.94168559429e-07
4.31208910491e-07
2.61513451218e-07
1.09706760122e-07
3.99710235228e-08
2.41827288266e-06
3.52446958323e-06
4.10714062599e-06
4.20234271302e-06
3.97524841549e-06
3.54150287737e-06
2.99602492714e-06
2.42552678699e-06
1.89400040239e-06
1.43833316449e-06
1.08519724474e-06
8.58549470432e-07
7.60902841342e-07
7.38995993842e-07
6.85503062442e-07
5.55431449367e-07
3.83080706817e-07
1.97649814163e-07
7.57394312425e-08
3.42413180846e-08
2.37896642893e-06
3.12367017265e-06
3.60129085248e-06
3.7686720899e-06
3.65484172735e-06
3.3194060202e-06
2.84166553959e-06
2.31571302183e-06
1.81468441223e-06
1.38214895049e-06
1.04785731263e-06
8.36910233762e-07
7.54731872811e-07
7.36014995717e-07
6.68374044586e-07
5.28217823238e-07
3.2896738031e-07
1.49160560261e-07
6.60219804459e-08
3.568820275e-08
2.15869631111e-06
2.72350958705e-06
3.12015963404e-06
3.30534991824e-06
3.26699155201e-06
3.00368795721e-06
2.58799989305e-06
2.11634068949e-06
1.66412844306e-06
1.27687479091e-06
9.84380869691e-07
8.11848693533e-07
7.59112498933e-07
7.4075201476e-07
6.59959569216e-07
4.93154256729e-07
2.78291355879e-07
1.3446278493e-07
7.43923726466e-08
4.47543142359e-08
1.91366467856e-06
2.3352851142e-06
2.65061017275e-06
2.87246958264e-06
2.87930636456e-06
2.65839897271e-06
2.28996732063e-06
1.87217057299e-06
1.47788759931e-06
1.15031241749e-06
9.16114731721e-07
7.97824459429e-07
7.75912102348e-07
7.49091687817e-07
6.44365142529e-07
4.45757179333e-07
2.53539700468e-07
1.50350715445e-07
9.67049466728e-08
6.36878810749e-08
1.70083702688e-06
2.01020915815e-06
2.310992147e-06
2.53934390242e-06
2.54221496033e-06
2.32835310545e-06
1.99042925063e-06
1.62346692967e-06
1.29236838981e-06
1.03298229881e-06
8.66724791443e-07
8.06341395936e-07
7.99791351024e-07
7.50578188259e-07
6.07297887488e-07
4.06149386727e-07
2.60277543739e-07
1.81281294839e-07
1.30167672241e-07
9.2602914658e-08
1.54806733156e-06
1.83584071448e-06
2.15059056574e-06
2.32157229198e-06
2.26519550631e-06
2.03281825466e-06
1.71834360425e-06
1.40344456195e-06
1.13941989078e-06
9.50596562183e-07
8.53772685363e-07
8.36277812685e-07
8.18876618006e-07
7.29855938049e-07
5.60379223137e-07
3.9257909262e-07
2.85187802713e-07
2.17948780468e-07
1.68750366224e-07
1.27440999641e-07
1.40551817699e-06
1.78662766521e-06
2.09947256039e-06
2.16502621816e-06
2.0302694428e-06
1.78148476703e-06
1.49730919753e-06
1.23876332458e-06
1.03983747122e-06
9.18796904491e-07
8.79253004971e-07
8.71002268784e-07
8.17939804472e-07
6.91281599796e-07
5.33762394012e-07
4.05536399751e-07
3.18828742082e-07
2.56304936169e-07
2.05902763977e-07
1.60707616206e-07
1.35613779772e-06
1.86005446132e-06
2.10878775754e-06
2.04017115284e-06
1.84053435546e-06
1.59273918906e-06
1.34608497115e-06
1.13950578457e-06
9.99597943912e-07
9.36848025117e-07
9.22008323248e-07
8.90169763282e-07
8.0028450045e-07
6.68688875952e-07
5.38766801378e-07
4.35321025887e-07
3.56102631996e-07
2.92228919286e-07
2.3798747486e-07
1.87549411686e-07
1.4319730152e-06
1.9452557986e-06
2.10849036652e-06
1.94797887593e-06
1.72059376087e-06
1.47956024919e-06
1.2583374674e-06
1.09642969535e-06
1.01049478843e-06
9.8018081618e-07
9.56656724103e-07
8.95083963547e-07
7.93153169061e-07
6.77501014018e-07
5.69438329745e-07
4.75977011765e-07
3.94495320879e-07
3.23661602081e-07
2.61971914558e-07
2.06061728863e-07
1.60399493208e-06
2.0083929811e-06
2.12850803222e-06
1.94512992616e-06
1.6959310487e-06
1.43265294541e-06
1.21889920845e-06
1.09712323136e-06
1.04739487335e-06
1.02175016041e-06
9.78047454596e-07
9.03597830676e-07
8.11252493877e-07
7.1385690192e-07
6.17954587789e-07
5.24627867329e-07
4.35429746563e-07
3.53479496151e-07
2.80358805902e-07
2.15535370086e-07
1.89725673781e-06
2.21966856234e-06
2.308921568e-06
2.099993048e-06
1.77836846446e-06
1.44855484241e-06
1.21996950676e-06
1.11925445965e-06
1.08191120414e-06
1.04766813752e-06
9.94583601381e-07
9.26267693494e-07
8.49132444916e-07
7.66011441105e-07
6.76613545167e-07
5.81068235978e-07
4.82786668401e-07
3.86913023918e-07
2.98096572493e-07
2.19051718384e-07
2.37112599577e-06
2.74199843137e-06
2.75800269305e-06
2.41546085694e-06
1.94964293082e-06
1.52512475685e-06
1.25739555168e-06
1.14313198012e-06
1.09621181579e-06
1.0585760183e-06
1.01274252039e-06
9.57327772164e-07
8.93480645118e-07
8.21420852624e-07
7.38794920485e-07
6.44090267472e-07
5.38744284471e-07
4.27636641179e-07
3.18477551441e-07
2.18924033262e-07
3.04716957701e-06
3.45135422028e-06
3.34842327316e-06
2.84396439823e-06
2.2295698407e-06
1.7021784289e-06
1.35549860895e-06
1.17931195141e-06
1.10170117958e-06
1.06195294388e-06
1.02737925453e-06
9.84840208426e-07
9.32315412266e-07
8.7039855677e-07
7.96683886103e-07
7.07330173846e-07
5.99825061901e-07
4.75498256859e-07
3.4274303871e-07
2.16898730656e-07
3.66611325497e-06
4.02584596809e-06
3.87367057121e-06
3.35416690329e-06
2.66905300732e-06
2.04123966489e-06
1.57968505097e-06
1.29681893925e-06
1.14736633434e-06
1.07426052922e-06
1.03440899387e-06
9.99678110134e-07
9.57534869273e-07
9.05840569787e-07
8.42202059666e-07
7.60705296498e-07
6.54568536384e-07
5.20612618922e-07
3.65487041381e-07
2.12256610706e-07
3.57010539114e-06
4.04902492316e-06
4.06892035055e-06
3.75337986931e-06
3.18132627042e-06
2.51977144586e-06
1.94935132126e-06
1.54759956252e-06
1.29405474144e-06
1.14276729127e-06
1.05439115167e-06
1.00455144714e-06
9.66588042562e-07
9.24440959778e-07
8.7084970059e-07
7.97120113745e-07
6.92644861581e-07
5.50821244829e-07
3.77263517003e-07
2.02839244527e-07
3.08276889764e-06
3.89219992289e-06
4.09987121112e-06
3.92882898177e-06
3.50352934366e-06
2.94375445961e-06
2.38359702501e-06
1.90254273701e-06
1.53295503931e-06
1.27951279145e-06
1.10970038165e-06
1.01354693324e-06
9.64383075392e-07
9.28508382912e-07
8.8427750966e-07
8.17335205029e-07
7.13867042501e-07
5.65661370418e-07
3.79369993848e-07
1.93331690947e-07
2.59127254693e-06
3.5280139641e-06
3.8990863662e-06
3.8899773855e-06
3.62305675831e-06
3.18977472479e-06
2.69211626021e-06
2.2158466549e-06
1.807926295e-06
1.45537252095e-06
1.19031234089e-06
1.03309029237e-06
9.58589100615e-07
9.237822984e-07
8.88564132035e-07
8.28188812466e-07
7.2591810307e-07
5.73614052943e-07
3.80133298251e-07
1.89295510133e-07
2.28207805851e-06
3.12898605439e-06
3.5482131752e-06
3.66980964894e-06
3.55539882621e-06
3.25709335231e-06
2.84913767927e-06
2.40642513506e-06
1.98422117093e-06
1.6007916943e-06
1.270106709e-06
1.05365836361e-06
9.51622336917e-07
9.15593213766e-07
8.89554134561e-07
8.36242466184e-07
7.3586326546e-07
5.81768619618e-07
3.8540433355e-07
1.92984201024e-07
2.0494626922e-06
2.78033435196e-06
3.17481338535e-06
3.36099655961e-06
3.35616913057e-06
3.17395270416e-06
2.86005725428e-06
2.47260165701e-06
2.06305387916e-06
1.66947242428e-06
1.31740358092e-06
1.06634681554e-06
9.42528071379e-07
9.06670650325e-07
8.90941923514e-07
8.45239207425e-07
7.47090754444e-07
5.92901174869e-07
3.96991332493e-07
2.04740268254e-07
1.88985225706e-06
2.55058542374e-06
2.89808534063e-06
3.06879417398e-06
3.10083208645e-06
2.9912554449e-06
2.75539715983e-06
2.42751230122e-06
2.04971421789e-06
1.66724011072e-06
1.31853416025e-06
1.06282481069e-06
9.33405591229e-07
9.00730959314e-07
8.95396794756e-07
8.57022930756e-07
7.60583539471e-07
6.07143986393e-07
4.14414383615e-07
2.24323554876e-07
1.83585972479e-06
2.51385992469e-06
2.7947951918e-06
2.84970602402e-06
2.83550353823e-06
2.74948643251e-06
2.56555930579e-06
2.28824472122e-06
1.94887172059e-06
1.59683975094e-06
1.27708649566e-06
1.04443899685e-06
9.28821784696e-07
9.05550012575e-07
9.07571428256e-07
8.72648086992e-07
7.76109304177e-07
6.23305719676e-07
4.35859382719e-07
2.50484721684e-07
1.92296274811e-06
2.74267224028e-06
2.8290557088e-06
2.67706133709e-06
2.57085451166e-06
2.47683325316e-06
2.31992027235e-06
2.08033577789e-06
1.78285690396e-06
1.47707056799e-06
1.20900023567e-06
1.02042097209e-06
9.35119384638e-07
9.27343201329e-07
9.32625093842e-07
8.9379676999e-07
7.91666488794e-07
6.39084686147e-07
4.58745843635e-07
2.80537760083e-07
2.0709821491e-06
2.83304767679e-06
2.68791809802e-06
2.43008266689e-06
2.29035822532e-06
2.19488328135e-06
2.05469555773e-06
1.84770576451e-06
1.59706008261e-06
1.34772361149e-06
1.14071270652e-06
1.00843113288e-06
9.62771885686e-07
9.70782406119e-07
9.71864160604e-07
9.20123598969e-07
8.06851907256e-07
6.5220799937e-07
4.79029015914e-07
3.10777237736e-07
2.15376835115e-06
2.79808814011e-06
2.50827889572e-06
2.16895118739e-06
2.00948258546e-06
1.92854277153e-06
1.81043929812e-06
1.63745304137e-06
1.4353967004e-06
1.24564964954e-06
1.10396458588e-06
1.03171552671e-06
1.02334163177e-06
1.03752873562e-06
1.02210966896e-06
9.47195831502e-07
8.19045965492e-07
6.62646337252e-07
4.96008233985e-07
3.37121615037e-07
2.27753345448e-06
2.63780619004e-06
2.37304138552e-06
1.9957011341e-06
1.79308049674e-06
1.71585433891e-06
1.62583589434e-06
1.48869755846e-06
1.33609829739e-06
1.20743405182e-06
1.1297390332e-06
1.10798501807e-06
1.11928789751e-06
1.12026045404e-06
1.07243318017e-06
9.67293978186e-07
8.25636136847e-07
6.69078089918e-07
5.08686035196e-07
3.58990932701e-07
2.46060763643e-06
2.59759021547e-06
2.34907341099e-06
1.98394227253e-06
1.73723042963e-06
1.62642572948e-06
1.54249317329e-06
1.43543930651e-06
1.3300402939e-06
1.25738695495e-06
1.22887344447e-06
1.23121273306e-06
1.23269933458e-06
1.19720737637e-06
1.10721714461e-06
9.7508263885e-07
8.23777325396e-07
6.68813014739e-07
5.17176048543e-07
3.77496902645e-07
2.63718884579e-06
2.7383516058e-06
2.49498388784e-06
2.13620223837e-06
1.84135884517e-06
1.67350733819e-06
1.56894463981e-06
1.4818108049e-06
1.41675073293e-06
1.3828660284e-06
1.37199178656e-06
1.36203781273e-06
1.32706876471e-06
1.24547687402e-06
1.11777498126e-06
9.64158986796e-07
8.07556090649e-07
6.62297838873e-07
5.27859930579e-07
3.959898135e-07
2.92458128171e-06
3.06695928732e-06
2.81582311589e-06
2.40553326504e-06
2.04127563694e-06
1.80788917004e-06
1.67412375607e-06
1.59688553237e-06
1.55477819858e-06
1.52862166718e-06
1.49938502055e-06
1.45305197987e-06
1.37559625203e-06
1.25226559923e-06
1.09486710794e-06
9.30910832282e-07
7.83078430814e-07
6.57292910366e-07
5.40904712531e-07
4.16975153092e-07
3.31875425728e-06
3.48457990494e-06
3.19485452877e-06
2.70733615981e-06
2.27401564976e-06
1.98505267609e-06
1.82067637758e-06
1.73704061145e-06
1.68923620795e-06
1.63851586682e-06
1.56906569057e-06
1.48077234979e-06
1.36488557118e-06
1.21150339433e-06
1.04392667382e-06
8.91162871989e-07
7.66090276941e-07
6.6215129208e-07
5.58762102598e-07
4.37274922449e-07
3.57849172305e-06
3.77991292765e-06
3.4516621488e-06
2.9166550876e-06
2.44286441912e-06
2.11507589347e-06
1.92259264636e-06
1.82015328493e-06
1.74818240114e-06
1.66224017717e-06
1.55541197314e-06
1.44169458575e-06
1.31161444471e-06
1.15771031247e-06
1.00431748074e-06
8.74596420268e-07
7.72497941908e-07
6.82977969907e-07
5.81289414982e-07
4.54159702312e-07
4.36297157728e-08
3.83358390841e-08
4.09049340851e-08
4.75744170936e-08
5.57387550531e-08
3.66940710799e-08
1.02707605197e-08
3.42254326883e-09
1.31412282194e-08
1.18945151875e-07
7.52669981523e-07
2.00070033224e-06
1.51757924232e-06
3.44864092975e-07
3.86279435728e-07
5.49055508917e-07
2.59288800921e-07
1.39795736921e-07
7.10942060564e-08
4.21524389162e-08
3.44582994989e-08
3.64140448704e-08
4.15291542653e-08
4.70036708882e-08
5.19964702543e-08
3.65210927865e-08
9.15826075778e-09
3.09489699851e-09
1.00547946708e-08
9.66639247745e-08
6.71758884297e-07
1.81008665325e-06
2.38477168267e-06
4.53830696873e-07
3.76663020066e-07
6.28415283912e-07
1.69570051446e-07
8.01460631323e-08
4.02574263619e-08
2.84665828296e-08
2.95447333547e-08
3.48941375057e-08
3.99390111353e-08
4.3213683524e-08
4.46397972149e-08
3.18007580808e-08
8.60318100522e-09
3.00042106836e-09
8.23995669153e-09
8.37388295494e-08
6.45845561863e-07
1.61231519052e-06
2.16465809049e-06
6.2748343205e-07
3.56798605802e-07
6.21241487991e-07
1.03468687458e-07
4.31418002169e-08
2.37339961636e-08
2.25329404337e-08
2.74206217794e-08
3.30090712656e-08
3.68312608747e-08
3.80474286904e-08
3.65329114088e-08
2.44088372283e-08
6.89790190697e-09
2.80768500867e-09
8.4590619411e-09
8.21714868792e-08
6.67204627359e-07
1.45236677442e-06
1.9417621009e-06
8.99880191424e-07
3.31873133872e-07
4.26927403433e-07
5.81631926497e-08
2.30961717886e-08
1.73804108067e-08
2.0255834662e-08
2.53931192642e-08
3.01307001251e-08
3.27371028344e-08
3.23927455906e-08
2.8516650827e-08
1.64596847607e-08
5.13975125147e-09
2.87952427252e-09
9.90651786281e-09
8.61885710423e-08
6.57043945085e-07
1.30685130367e-06
1.74122041575e-06
1.13112033326e-06
2.97087076043e-07
3.42213177147e-07
3.13751008912e-08
1.57427627109e-08
1.51037469336e-08
1.8446226584e-08
2.29836185054e-08
2.67688492663e-08
2.83426538071e-08
2.68120979782e-08
2.11906209081e-08
1.01302735391e-08
4.25057875477e-09
3.54010513144e-09
1.26625630178e-08
9.1209570068e-08
6.16917360957e-07
1.17482395281e-06
1.56462205872e-06
1.32602028042e-06
2.64941290128e-07
2.9453860301e-07
2.07027731704e-08
1.3458602218e-08
1.38517411043e-08
1.69185927133e-08
2.06442925381e-08
2.34222142327e-08
2.40332074202e-08
2.15252741615e-08
1.49877867383e-08
7.01707881264e-09
4.39093343717e-09
4.9650199312e-09
1.73611246134e-08
9.78850670389e-08
5.77805398659e-07
1.06463645852e-06
1.40796718103e-06
1.37001457143e-06
2.41829715615e-07
2.65587979773e-07
1.77391541005e-08
1.27552035464e-08
1.33272651481e-08
1.59057354181e-08
1.87114103704e-08
2.03717599351e-08
1.99223325877e-08
1.65691577142e-08
1.02591663467e-08
6.24905704343e-09
5.37341185563e-09
7.16885445081e-09
2.4771733551e-08
1.09278549393e-07
5.59924421234e-07
9.83985181595e-07
1.27640926351e-06
1.28715830976e-06
2.26405323588e-07
2.52453338974e-07
1.7660739765e-08
1.32325652298e-08
1.35972671674e-08
1.55233134329e-08
1.7303995886e-08
1.77614568799e-08
1.63308280605e-08
1.25775374833e-08
8.32578406473e-09
6.95669965476e-09
7.01696314257e-09
1.0115989916e-08
3.38024358021e-08
1.31710341762e-07
5.66233716388e-07
9.22511326713e-07
1.16793773631e-06
1.11949087107e-06
2.15093474737e-07
2.44869702289e-07
2.03480156024e-08
1.52683123746e-08
1.48588979025e-08
1.58449428633e-08
1.64922633999e-08
1.58427458756e-08
1.37625970676e-08
1.0793779984e-08
8.96237847924e-09
8.49293825254e-09
9.0113348081e-09
1.38961469389e-08
4.26093115201e-08
1.76318673268e-07
5.89978111774e-07
8.72817862116e-07
1.07777871307e-06
8.10580810055e-07
1.9754332654e-07
2.39283212362e-07
2.75515264865e-08
2.0069869612e-08
1.77020834866e-08
1.71289811717e-08
1.65465094741e-08
1.51851164278e-08
1.33388260772e-08
1.16744767428e-08
1.05817251835e-08
1.00935310771e-08
1.1446988477e-08
1.94640451518e-08
5.47791772089e-08
2.52064594772e-07
6.08281795915e-07
8.29769591638e-07
1.00077850066e-06
3.66577776349e-07
1.78434672709e-07
2.59528920903e-07
4.18734973757e-08
2.95460023149e-08
2.31887929171e-08
1.98426803587e-08
1.79732944436e-08
1.65270380554e-08
1.51591808552e-08
1.36203928389e-08
1.2159738605e-08
1.183518819e-08
1.52428774562e-08
3.56201885059e-08
8.23953936001e-08
3.46761327035e-07
6.09543410884e-07
7.88479930323e-07
7.97317036328e-07
1.77628105878e-07
1.66550547502e-07
3.6729277781e-07
6.46071338558e-08
4.50880802953e-08
3.2268745364e-08
2.47232439557e-08
2.14358376177e-08
1.96146418983e-08
1.78828120067e-08
1.56735247869e-08
1.39670964115e-08
1.50423509797e-08
2.89108499982e-08
5.32531870315e-08
1.54264256639e-07
4.11873703905e-07
6.15292669693e-07
6.52180489775e-07
1.70145078365e-07
1.23814685255e-07
1.61629555478e-07
8.32378353458e-07
9.35685470284e-08
6.53783272636e-08
4.48906098667e-08
3.26829735828e-08
2.68341281877e-08
2.35360793445e-08
2.05352497485e-08
1.76354778923e-08
1.68961731644e-08
2.31279948867e-08
4.31773714126e-08
8.22770996644e-08
2.27726617547e-07
4.55364002484e-07
5.00166441219e-07
1.3707909856e-07
1.12523551632e-07
1.17519573758e-07
1.55315635755e-07
1.07671311105e-06
1.22001485897e-07
8.60478130399e-08
5.92842333438e-08
4.23990488431e-08
3.28846185209e-08
2.68774099076e-08
2.18655095416e-08
1.89503693503e-08
2.06747150938e-08
3.19336976815e-08
5.46336710078e-08
1.07194291243e-07
2.52917580979e-07
1.74314148555e-07
8.96895363291e-08
9.55778093091e-08
1.02511087478e-07
1.12558335392e-07
1.32938641157e-07
1.43908973491e-06
1.43203012419e-07
1.00371170524e-07
7.02514531524e-08
5.01354535901e-08
3.65809357746e-08
2.72431715659e-08
2.05342162411e-08
1.9224215489e-08
2.48994073729e-08
4.17278469929e-08
6.62469127906e-08
9.4499072566e-08
6.97478252878e-08
7.42855760725e-08
7.48695933361e-08
7.90511341588e-08
9.01665399239e-08
1.04595424687e-07
1.16638623525e-07
2.11791565832e-06
1.54249969099e-07
1.04569216121e-07
7.37039410384e-08
5.1721343465e-08
3.44852875968e-08
2.32087596742e-08
1.69621834011e-08
1.95418363474e-08
2.92006546315e-08
4.96408095576e-08
5.59769483877e-08
5.74998799694e-08
5.79259143194e-08
5.82079763663e-08
6.07786289637e-08
6.64394951806e-08
7.67707482058e-08
9.61180501448e-08
1.26034882925e-07
2.1147382764e-06
1.56036029623e-07
9.91413213865e-08
6.90046951633e-08
4.50210634517e-08
2.67949174846e-08
1.69008096786e-08
1.34883905741e-08
2.07275743004e-08
3.27265267002e-08
4.45442641622e-08
4.74236132771e-08
4.58498226625e-08
4.52187599095e-08
4.75773222838e-08
5.18119637553e-08
5.61641738337e-08
6.6317843251e-08
9.2146029464e-08
1.34925098619e-07
2.03719463478e-06
1.49105535549e-07
8.71690543369e-08
5.85032137345e-08
3.28996043424e-08
1.86305433133e-08
1.17639120156e-08
1.14122984679e-08
2.15106900124e-08
3.23638110256e-08
3.92284848681e-08
3.8757041631e-08
3.67019030087e-08
3.51189601278e-08
3.82979243199e-08
4.74349196725e-08
5.21770079829e-08
5.72499283712e-08
9.23087525603e-08
2.02346997964e-07
8.83212371438e-07
1.35065143131e-07
7.24044229475e-08
4.54774729834e-08
2.33812475037e-08
1.38598808884e-08
8.99722534516e-09
1.0081925721e-08
1.90920123787e-08
2.67942261286e-08
3.22388653656e-08
3.23555379988e-08
2.98697188764e-08
2.65235395308e-08
2.72788450366e-08
3.89533512306e-08
5.1910887792e-08
5.453631428e-08
8.48169423905e-08
2.21764358384e-07
3.81921606088e-07
1.17513411673e-07
5.77132145382e-08
3.22953444507e-08
1.9055548522e-08
1.21798314538e-08
7.7741601054e-09
7.75774358171e-09
1.37047890321e-08
2.03956146177e-08
2.55698203558e-08
2.60384843781e-08
2.3688181901e-08
2.00197167836e-08
1.84058311008e-08
2.67787244647e-08
4.7752527733e-08
6.22631728364e-08
7.16315711757e-08
2.09021221498e-07
2.68682377757e-07
9.89759439432e-08
4.26566117224e-08
2.09784166896e-08
1.7009311554e-08
1.17309547026e-08
7.60926900462e-09
5.37486677778e-09
7.71966626144e-09
1.31919403603e-08
1.83355341605e-08
1.94589744571e-08
1.77050293949e-08
1.48385472319e-08
1.32250214407e-08
1.87345200763e-08
4.09606303264e-08
7.39264934482e-08
9.99426345024e-08
1.97275288778e-07
2.60386613409e-07
8.24764400354e-08
3.09253955518e-08
1.52231677832e-08
1.52511678087e-08
1.11229579074e-08
8.09520892897e-09
4.67893358962e-09
3.96515853539e-09
6.37445796712e-09
1.06694860397e-08
1.31045464864e-08
1.25219145174e-08
1.0738433809e-08
1.01537676091e-08
1.47775564814e-08
3.48507818088e-08
7.12627958683e-08
1.12459827837e-07
1.689157123e-07
2.56885475933e-07
7.2607316873e-08
2.61803160188e-08
1.351574183e-08
1.34663335405e-08
1.01613220095e-08
8.32648811166e-09
4.87925966263e-09
2.8146397195e-09
2.9209691111e-09
4.96770294045e-09
7.41118145583e-09
8.22366260617e-09
7.63703215984e-09
7.95931530283e-09
1.22768616745e-08
2.77788531884e-08
5.91453521782e-08
1.05648042907e-07
1.69113921437e-07
2.40194648476e-07
7.02190921668e-08
2.64576251535e-08
1.4134621186e-08
1.21294311097e-08
9.31398942679e-09
8.168399311e-09
4.90356854486e-09
2.63126769121e-09
1.88331062428e-09
2.48265081431e-09
3.88174988811e-09
5.08182543728e-09
5.74216778502e-09
6.73741078811e-09
1.11516186104e-08
2.23879934584e-08
4.610511065e-08
9.4548306321e-08
1.77401049184e-07
2.34744180822e-07
7.40130930503e-08
2.99647273364e-08
1.65976956517e-08
1.23409665397e-08
9.3639158656e-09
8.14065012329e-09
4.75014631984e-09
2.68560670558e-09
1.82392878696e-09
1.85875212809e-09
2.56206793126e-09
3.7213601851e-09
5.3011421331e-09
6.85015021079e-09
1.1451798542e-08
2.0307609017e-08
3.58701597501e-08
8.50875988757e-08
1.8763361359e-07
2.3918640275e-07
8.346103137e-08
3.61759269852e-08
2.07466901532e-08
1.46678909088e-08
1.11141842742e-08
9.02331890396e-09
5.14724956169e-09
3.17450459597e-09
2.36671193347e-09
2.27299179786e-09
2.78032233009e-09
4.07235051653e-09
6.41951731781e-09
8.47289850207e-09
1.3134254401e-08
2.06429091263e-08
3.04577939483e-08
7.68127281136e-08
1.97281956846e-07
2.46242616765e-07
9.91841897484e-08
4.57273500705e-08
2.67422379279e-08
1.88764930656e-08
1.46572254883e-08
1.15837136179e-08
6.94809682454e-09
4.74840689421e-09
3.90114029843e-09
3.78813680955e-09
4.3229495822e-09
5.81996107168e-09
8.66993931989e-09
1.12705029707e-08
1.58342098879e-08
2.18380625692e-08
2.80042573792e-08
7.07784784824e-08
2.01274473733e-07
2.57169940176e-07
1.21724016238e-07
5.99768851898e-08
3.52298459488e-08
2.4600842518e-08
1.92995844757e-08
1.55743975601e-08
1.05764798439e-08
7.93385887199e-09
6.79275525248e-09
6.47886075065e-09
6.91177030527e-09
8.43284418512e-09
1.13886138399e-08
1.45851199324e-08
1.89138793896e-08
2.31547141694e-08
2.75724456757e-08
7.02987915155e-08
2.00655047455e-07
2.91055206841e-07
1.50105318764e-07
7.98038002112e-08
4.72137256321e-08
3.19987352794e-08
2.45027867181e-08
2.00403840225e-08
1.52897524419e-08
1.22724856092e-08
1.0522638124e-08
9.69668279538e-09
9.8518298839e-09
1.13352728382e-08
1.42478636134e-08
1.78905674879e-08
2.17476515733e-08
2.4129134805e-08
3.03561414842e-08
7.67546019485e-08
2.08624803508e-07
3.70540145373e-07
1.81497580408e-07
1.04172540744e-07
6.30548946808e-08
4.15478160984e-08
3.04632490891e-08
2.46306169222e-08
2.01904001758e-08
1.68951963227e-08
1.44488344115e-08
1.29653710098e-08
1.27564500128e-08
1.4167827923e-08
1.69908010985e-08
2.09873335512e-08
2.34390408383e-08
2.48820256999e-08
3.97512264216e-08
9.29522857072e-08
2.39422724796e-07
4.0622407018e-07
2.11761648407e-07
1.30169106624e-07
8.09792101007e-08
5.22942739819e-08
3.68452368045e-08
2.917283364e-08
2.47341139214e-08
2.12378618788e-08
1.79637399483e-08
1.57306173249e-08
1.49859078695e-08
1.6269230407e-08
1.99978500648e-08
2.31305540968e-08
2.2479039837e-08
2.78539925611e-08
5.87251034054e-08
1.15817599093e-07
2.88981161624e-07
3.89908299976e-07
2.38907536141e-07
1.54615564189e-07
9.76601119288e-08
6.1761149214e-08
4.20565296278e-08
3.26677768246e-08
2.79941801771e-08
2.4138214483e-08
1.94790367225e-08
1.64100280052e-08
1.53926282085e-08
1.76291098711e-08
2.29698792354e-08
2.07068120335e-08
2.04574113136e-08
3.84237220587e-08
8.42582703922e-08
1.38492734816e-07
3.31683166931e-07
3.71116821856e-07
2.62808479823e-07
1.75318881229e-07
1.10619151125e-07
6.83490349683e-08
4.53419189393e-08
3.48006735704e-08
2.96843455192e-08
2.50133517992e-08
1.80624220881e-08
1.2997346665e-08
1.38433551196e-08
2.06702717203e-08
2.22361669485e-08
1.65351950456e-08
2.53998484693e-08
5.43598546634e-08
1.122021191e-07
1.79760724329e-07
3.8673523141e-07
3.54030190339e-07
2.8400345718e-07
1.91183590549e-07
1.19053641262e-07
7.17311030064e-08
4.67789544266e-08
3.56834478959e-08
2.97824639527e-08
2.37260229351e-08
1.43238484814e-08
8.43453792857e-09
1.23778945724e-08
2.14604706317e-08
1.8835901646e-08
1.58226763542e-08
3.2591126404e-08
8.2381850261e-08
1.73241901682e-07
2.82287713711e-07
4.42685527923e-07
3.4762882725e-07
3.02337413736e-07
2.01614578497e-07
1.22444721618e-07
7.16914499558e-08
4.63492532184e-08
3.50234088132e-08
2.77943025091e-08
1.97075617206e-08
9.84666719149e-09
7.2939395134e-09
1.18966000354e-08
1.70932255314e-08
1.5799300908e-08
1.23790692765e-08
3.56753455074e-08
1.29416585545e-07
2.89645686597e-07
3.99843197764e-07
4.09435647674e-07
3.60737217271e-07
3.15732279691e-07
2.04792285651e-07
1.19262608513e-07
6.7563398116e-08
4.3668022513e-08
3.1954192032e-08
2.28212012145e-08
1.29258022707e-08
6.60986351756e-09
8.90166724531e-09
1.15897912524e-08
1.40102249198e-08
1.47427753249e-08
4.05100501325e-09
2.62561006084e-08
1.71882983801e-07
2.94844811498e-07
2.89192930845e-07
2.36268172687e-07
2.93868296754e-07
3.19784598513e-07
1.97256044153e-07
1.07962005991e-07
5.94479575532e-08
3.87116655355e-08
2.55370148472e-08
1.53137607974e-08
7.75959656555e-09
7.32233879587e-09
1.07807189067e-08
1.32746998569e-08
1.1977676598e-08
1.47309699564e-08
2.66068480813e-09
1.61150019429e-08
1.06460779537e-07
1.28483137616e-07
8.36958394901e-08
5.73748642307e-08
2.48943207942e-07
)
;

boundaryField
{
    emptyPatch
    {
        type            empty;
    }
    minY
    {
        type            zeroGradient;
    }
    maxY
    {
        type            calculated;
        value           nonuniform List<scalar> 
40
(
3.57837636118e-06
3.7798275796e-06
3.45156255321e-06
2.91650918041e-06
2.44268669068e-06
2.1148914708e-06
1.92240615149e-06
1.81996136882e-06
1.74798352597e-06
1.66203780813e-06
1.5552129313e-06
1.44150385117e-06
1.31143050289e-06
1.15752930439e-06
1.00413714789e-06
8.74415654008e-07
7.72318192689e-07
6.82803336992e-07
5.81128427049e-07
4.54024468287e-07
3.19683260386e-07
1.97190426743e-07
1.0792480992e-07
5.94271259202e-08
3.86982176763e-08
2.55285198246e-08
1.53092352403e-08
7.75796582231e-09
7.3217493168e-09
1.07804068462e-08
1.32744640693e-08
1.19774583189e-08
1.47309505248e-08
2.66048519105e-09
1.61131552807e-08
2.37615852003e-09
2.37633981122e-09
2.37633982978e-09
2.37633983713e-09
2.48939239619e-07
)
;
    }
    water_to_cooler
    {
        type            compressible::alphatWallBoilingWallFunction;
        phaseType       vapor;
        relax           constant 1;
        partitioningModel
        {
            type            Lavieville;
            alphaCrit       0.2;
        }
        otherPhase      liquid;
        dmdt            uniform 0;
        dDep            uniform 1e-05;
        qQuenching      uniform 0;
        alphatConv      uniform 0;
        value           nonuniform List<scalar> 
38
(
1.9229604955e-11
2.49572994634e-11
2.49466071485e-11
1.68596444347e-11
4.65217129633e-11
1.43724958599e-10
2.10954351462e-10
2.10246658133e-10
2.10688123119e-10
2.09977284951e-10
9.85031941639e-11
2.28742105826e-11
2.46301741049e-11
4.25516428776e-11
7.74699670836e-11
2.08520991366e-10
2.40460464895e-10
2.39389666276e-10
5.04915729198e-11
1.71493342971e-11
1.76646996788e-11
2.84097139906e-11
6.32695957652e-11
1.67232650114e-10
5.38399987011e-10
5.30841360947e-10
5.23376986432e-10
4.82682804727e-10
1.98582889682e-10
4.93023311949e-11
2.22169180263e-11
2.22025097388e-11
2.2174871681e-11
2.58703190117e-11
2.69360987736e-11
2.924297979e-11
6.7155164796e-11
1.20226294631e-06
)
;
    }
    water_to_heater
    {
        type            compressible::alphatWallBoilingWallFunction;
        phaseType       vapor;
        relax           constant 1;