/*--------------------------------*- C++ -*----------------------------------*\
| =========                 |                                                 |
| \\      /  F ield         | OpenFOAM: The Open Source CFD Toolbox           |
|  \\    /   O peration     | Version:  2312                                  |
|   \\  /    A nd           | Website:  www.openfoam.com                      |
|    \\/     M anipulation  |                                                 |
\*---------------------------------------------------------------------------*/
FoamFile
{
    version     2.0;
    format      ascii;
    arch        "LSB;label=32;scalar=64";
    class       volScalarField;
    location    "0.35/water";
    object      alphat.gas;
}
// * * * * * * * * * * * * * * * * * * * * * * * * * * * * * * * * * * * * * //

dimensions      [1 -1 -1 0 0 0 0];

internalField   nonuniform List<scalar> 
1504
(
2.84792837583e-06
2.76614395171e-06
2.25173387265e-06
1.73402873022e-06
1.3369590878e-06
1.05315616174e-06
8.67012419329e-07
7.53075130616e-07
6.65747006951e-07
5.54358981986e-07
3.80859541094e-07
1.78771071762e-07
5.53751297492e-08
2.35744572688e-08
1.99318915157e-08
2.00615194173e-08
1.94453526364e-08
1.8912893918e-08
2.00460931919e-08
3.26067532949e-08
2.88164684716e-06
2.75598263776e-06
2.22618224853e-06
1.71202863741e-06
1.32279468769e-06
1.04699289862e-06
8.68953987533e-07
7.56782426028e-07
6.64535363062e-07
5.43752548408e-07
3.64724482421e-07
1.70350189896e-07
5.43691380961e-08
2.36358062803e-08
2.00225374514e-08
2.01742728698e-08
1.94951986721e-08
1.88697975041e-08
1.95303883295e-08
2.63635864625e-08
2.89485414117e-06
2.72901998817e-06
2.19730543426e-06
1.69166646643e-06
1.31031000954e-06
1.0431592739e-06
8.71918802682e-07
7.59077416334e-07
6.61380622345e-07
5.31470339904e-07
3.50052932186e-07
1.64549066664e-07
5.41829506673e-08
2.38131829522e-08
2.01734332132e-08
2.02883539157e-08
1.94962986299e-08
1.87790610488e-08
1.91922044262e-08
2.35764484271e-08
2.87239364962e-06
2.68883396172e-06
2.16955125598e-06
1.67439170442e-06
1.30103357765e-06
1.04268889692e-06
8.7548382785e-07
7.60400107577e-07
6.56678690988e-07
5.19004483942e-07
3.38581087835e-07
1.61903747647e-07
5.49978889614e-08
2.42114452094e-08
2.03823561978e-08
2.03544163661e-08
1.94100683065e-08
1.86152730265e-08
1.88851915523e-08
2.17258507099e-08
2.83161763968e-06
2.64203693556e-06
2.13951451946e-06
1.65839948543e-06
1.29581069382e-06
1.0457454177e-06
8.7955813594e-07
7.60882254028e-07
6.50380735228e-07
5.07403738896e-07
3.3077852616e-07
1.62366628547e-07
5.70345598021e-08
2.49448068352e-08
2.06153847763e-08
2.03210072539e-08
1.92460504025e-08
1.84013841003e-08
1.85745950842e-08
2.04373853453e-08
2.80794525162e-06
2.59188687534e-06
2.09870069069e-06
1.63718172555e-06
1.29149218523e-06
1.05042849557e-06
8.83326004599e-07
7.59416968977e-07
6.41819513934e-07
4.95739132871e-07
3.26121589848e-07
1.66147733581e-07
6.05859266405e-08
2.60668196289e-08
2.0811686018e-08
2.01780456886e-08
1.90484227528e-08
1.81760357392e-08
1.82306824181e-08
1.94767687929e-08
2.76207459359e-06
2.53584565502e-06
2.05564670305e-06
1.61509926476e-06
1.28886036542e-06
1.05660967596e-06
8.86081648644e-07
7.53001887063e-07
6.26874634151e-07
4.8331008774e-07
3.2610572976e-07
1.73345228819e-07
6.54636324866e-08
2.74940558993e-08
2.09450048247e-08
1.99571284461e-08
1.8845961109e-08
1.79741554221e-08
1.78901524494e-08
1.86905447403e-08
2.69122885169e-06
2.46495801026e-06
2.00632109742e-06
1.59304574434e-06
1.29047823177e-06
1.06584968807e-06
8.83499940299e-07
7.35460598284e-07
6.07011934217e-07
4.7513448115e-07
3.30847247889e-07
1.82042879055e-07
7.07449691457e-08
2.90622619937e-08
2.1039346833e-08
1.96840750214e-08
1.86363922253e-08
1.78208086727e-08
1.75891837569e-08
1.79936583245e-08
2.55900761354e-06
2.363794177e-06
1.94900586704e-06
1.57672361218e-06
1.30432246247e-06
1.07905984397e-06
8.72531042106e-07
7.13124358177e-07
5.90706672841e-07
4.7150947364e-07
3.36319162098e-07
1.88922593995e-07
7.51683657591e-08
3.0605142818e-08
2.11176043243e-08
1.93539925593e-08
1.83932618006e-08
1.76878558513e-08
1.7282171084e-08
1.73992059149e-08
2.39943263887e-06
2.24873766228e-06
1.90167086208e-06
1.59100096844e-06
1.3501674039e-06
1.10333228888e-06
8.64012515323e-07
6.96901724795e-07
5.79752306525e-07
4.69300446637e-07
3.38511363464e-07
1.91366585706e-07
7.79451163211e-08
3.20015823908e-08
2.11892622842e-08
1.89659978315e-08
1.80715353473e-08
1.74917179894e-08
1.6932492183e-08
1.68923085382e-08
2.22056319288e-06
2.1279717278e-06
1.90475216771e-06
1.68792370816e-06
1.45815147319e-06
1.15380371155e-06
8.68090167827e-07
6.89493766064e-07
5.75065524458e-07
4.67746736273e-07
3.36095114335e-07
1.8954153525e-07
7.96081549524e-08
3.3475846618e-08
2.13580175786e-08
1.85692471603e-08
1.76658476561e-08
1.72143310173e-08
1.66019582603e-08
1.63752238421e-08
2.10361959315e-06
2.18484751809e-06
2.13039842285e-06
1.9612248539e-06
1.64486196893e-06
1.22651238613e-06
8.87391546609e-07
6.97259589931e-07
5.80165098116e-07
4.67553255307e-07
3.30965421602e-07
1.86970696338e-07
8.23861042987e-08
3.58757098912e-08
2.18841960869e-08
1.82594006306e-08
1.72313850583e-08
1.68722894376e-08
1.62904423352e-08
1.58166805547e-08
2.35790469348e-06
2.72210030334e-06
2.7221394814e-06
2.39191787879e-06
1.85133052405e-06
1.30528931174e-06
9.32418109111e-07
7.28579679163e-07
5.97524015016e-07
4.72489811246e-07
3.31637290402e-07
1.91742096797e-07
8.96211857239e-08
3.99652269449e-08
2.29547005669e-08
1.81458283987e-08
1.68605354914e-08
1.65040411624e-08
1.60030772614e-08
1.52855481524e-08
3.19886234177e-06
3.66513635639e-06
3.46540253076e-06
2.79923868995e-06
2.0372559675e-06
1.42236600756e-06
1.02752739601e-06
7.93570432649e-07
6.3510254099e-07
4.9468390825e-07
3.50291383293e-07
2.10923384165e-07
1.04387234785e-07
4.69423279572e-08
2.50025033124e-08
1.83776514879e-08
1.6648258471e-08
1.62077690881e-08
1.57861819737e-08
1.48653905806e-08
4.16221590699e-06
4.54105530096e-06
4.07022522329e-06
3.12568831196e-06
2.28175018767e-06
1.64559708736e-06
1.20450747902e-06
9.11786505451e-07
7.09819855985e-07
5.47818754656e-07
3.96357565838e-07
2.51623959966e-07
1.31779389772e-07
5.89768864526e-08
2.8699515957e-08
1.92510928491e-08
1.6699775925e-08
1.61174482701e-08
1.56472909315e-08
1.45482082501e-08
4.37536305738e-06
4.82322004055e-06
4.3837765366e-06
3.50051220302e-06
2.68028715077e-06
2.00024642129e-06
1.47676471913e-06
1.09988678602e-06
8.34088411688e-07
6.36130782716e-07
4.69576035487e-07
3.15006678252e-07
1.7585932564e-07
7.86401918013e-08
3.46280536216e-08
2.08820488732e-08
1.72471904182e-08
1.6322131282e-08
1.55978789829e-08
1.43030277239e-08
3.59004448782e-06
4.70395899939e-06
4.54176480127e-06
3.88589931437e-06
3.11887113104e-06
2.37578043062e-06
1.7703309375e-06
1.31655954764e-06
9.87493796239e-07
7.45069359311e-07
5.55162353869e-07
3.88312311295e-07
2.30950180773e-07
1.05605904792e-07
4.26719472216e-08
2.29948738e-08
1.81091870833e-08
1.67451481888e-08
1.56441989315e-08
1.40832745571e-08
3.16036545201e-06
4.57894591894e-06
4.61759202656e-06
4.08785665505e-06
3.39967814353e-06
2.65155766347e-06
1.99897252249e-06
1.4910457602e-06
1.11993198755e-06
8.44892641782e-07
6.33308963972e-07
4.54057950006e-07
2.82026380991e-07
1.32883198428e-07
5.12419943442e-08
2.50090886253e-08
1.87922167754e-08
1.717183102e-08
1.57275713837e-08
1.38622752431e-08
2.99970605896e-06
4.49063597734e-06
4.62492625893e-06
4.13911202247e-06
3.48478831808e-06
2.77017403735e-06
2.11526038736e-06
1.58991633081e-06
1.20230993892e-06
9.13010622649e-07
6.90227046049e-07
5.02440287139e-07
3.18903345376e-07
1.52700644301e-07
5.77445540523e-08
2.63460106181e-08
1.90100595082e-08
1.73640690256e-08
1.57371173155e-08
1.361312954e-08
2.929198277e-06
4.44336122834e-06
4.56064551706e-06
4.06404170848e-06
3.41761775125e-06
2.72993147887e-06
2.1070848224e-06
1.60554883027e-06
1.22864000806e-06
9.43519350446e-07
7.21538600561e-07
5.3066355089e-07
3.38774627892e-07
1.62563623099e-07
6.10759649868e-08
2.68862002497e-08
1.88187558827e-08
1.72460414687e-08
1.56104470115e-08
1.33326628326e-08
2.93034955828e-06
4.40637353081e-06
4.40252055273e-06
3.86998382717e-06
3.25021065247e-06
2.60439262079e-06
2.02842244369e-06
1.56319545362e-06
1.20921700366e-06
9.40279759111e-07
7.28429680569e-07
5.38397841871e-07
3.40643420372e-07
1.61909688895e-07
6.11138756228e-08
2.67597271137e-08
1.83829460566e-08
1.68489139315e-08
1.53440171961e-08
1.30266254103e-08
2.96414824613e-06
4.40630756901e-06
4.29001716625e-06
3.70654328794e-06
3.0904079299e-06
2.46952755813e-06
1.92452465387e-06
1.48910305143e-06
1.16011922845e-06
9.1381311593e-07
7.17392139049e-07
5.2960796065e-07
3.27717578829e-07
1.52128548292e-07
5.77954890811e-08
2.58255936457e-08
1.77447267935e-08
1.62146543788e-08
1.49384160106e-08
1.26937759081e-08
3.01839961026e-06
4.51288480856e-06
4.335147726e-06
3.66750704214e-06
2.98957118778e-06
2.36952525675e-06
1.83736619636e-06
1.41440778871e-06
1.1018268931e-06
8.76416360024e-07
6.94569446527e-07
5.0852231924e-07
3.05253569854e-07
1.37784123054e-07
5.29975119222e-08
2.45118144212e-08
1.70123844664e-08
1.5437696068e-08
1.43595633382e-08
1.23292045922e-08
3.20306324596e-06
4.5299250829e-06
4.34761348905e-06
3.65855859384e-06
2.96427624246e-06
2.34228463659e-06
1.80608425417e-06
1.37359664392e-06
1.05799374042e-06
8.3992758574e-07
6.65189618939e-07
4.80469642829e-07
2.79222277722e-07
1.23221355488e-07
4.84263400919e-08
2.32729141664e-08
1.63049072918e-08
1.46123204913e-08
1.36108645148e-08
1.1897287083e-08
3.58577303755e-06
4.3777857606e-06
4.23937339599e-06
3.64688545564e-06
2.98892247105e-06
2.37687825799e-06
1.83126165739e-06
1.37557534113e-06
1.03856977735e-06
8.09783403908e-07
6.34277356613e-07
4.51142481134e-07
2.54451568075e-07
1.11141416416e-07
4.49914617994e-08
2.23694804812e-08
1.57080142986e-08
1.38069545722e-08
1.27717467125e-08
1.13115611079e-08
3.87474095306e-06
4.33885933509e-06
4.16205626488e-06
3.62827859469e-06
3.012494602e-06
2.41845241202e-06
1.86913321546e-06
1.39340253373e-06
1.02999248688e-06
7.83735255801e-07
6.06852599175e-07
4.25129068076e-07
2.34315665126e-07
1.02835230518e-07
4.30351822446e-08
2.19159234984e-08
1.52815400803e-08
1.30949901817e-08
1.19073705947e-08
1.05941170145e-08
3.84238448586e-06
4.1705855472e-06
3.99044022378e-06
3.52602782374e-06
2.97050993153e-06
2.41044793389e-06
1.87306098696e-06
1.39250629123e-06
1.0133300282e-06
7.60023295178e-07
5.86940790722e-07
4.05777308029e-07
2.20987048194e-07
9.87858221809e-08
4.26536664679e-08
2.19622359004e-08
1.50676724983e-08
1.25429945971e-08
1.10921570988e-08
9.77586474328e-09
3.70666088951e-06
3.95649318973e-06
3.75202398742e-06
3.33503604265e-06
2.83994035132e-06
2.32543757018e-06
1.81879267181e-06
1.35441045224e-06
9.82474745978e-07
7.42013295868e-07
5.77140145777e-07
3.94858477133e-07
2.15260870475e-07
9.89500404976e-08
4.38400295298e-08
2.25358988681e-08
1.5085743751e-08
1.21812721618e-08
1.0398548543e-08
8.91003198538e-09
3.52216835892e-06
3.72326123223e-06
3.47978654685e-06
3.08242461063e-06
2.63531317347e-06
2.17209587371e-06
1.71284104671e-06
1.28559710438e-06
9.47036939046e-07
7.35838635043e-07
5.78097458663e-07
3.92335648785e-07
2.16765069689e-07
1.03057660856e-07
4.65930028285e-08
2.3668732098e-08
1.53432025248e-08
1.19991781367e-08
9.88125963952e-09
8.08570322879e-09
3.28384499878e-06
3.46413452032e-06
3.18405071746e-06
2.79617928329e-06
2.39496053231e-06
1.99139830943e-06
1.58982687345e-06
1.21286884945e-06
9.2556726513e-07
7.46956244623e-07
5.88439679366e-07
3.9743314358e-07
2.25058444157e-07
1.11138326208e-07
5.11118373557e-08
2.54692829521e-08
1.58681200708e-08
1.19726106643e-08
9.55740748909e-09
7.42986184032e-09
3.04723825281e-06
3.18458411977e-06
2.87917888526e-06
2.52070038368e-06
2.18229723507e-06
1.84490842091e-06
1.49652509077e-06
1.17164819076e-06
9.37149664622e-07
7.77014170332e-07
6.06700573411e-07
4.11160058816e-07
2.41227498449e-07
1.24207683644e-07
5.80803025538e-08
2.82818193942e-08
1.68013072424e-08
1.21281103694e-08
9.41297115359e-09
7.04407523168e-09
2.80571262238e-06
2.88344798798e-06
2.6317320002e-06
2.35452931483e-06
2.08533790064e-06
1.79126055265e-06
1.47420159403e-06
1.19219484041e-06
9.8931598006e-07
8.2234823486e-07
6.35041305562e-07
4.38069356482e-07
2.68732390287e-07
1.44960283902e-07
6.93311320847e-08
3.30181960404e-08
1.84940157601e-08
1.25740328896e-08
9.42698035463e-09
6.9229317992e-09
2.63204346497e-06
2.73078000616e-06
2.62007991116e-06
2.41876290703e-06
2.16228113259e-06
1.85720609881e-06
1.54210386973e-06
1.27575498136e-06
1.06916141348e-06
8.79673527875e-07
6.811633683e-07
4.85910387027e-07
3.14498769658e-07
1.79535070444e-07
8.89879015672e-08
4.15669452235e-08
2.1639610307e-08
1.35503745884e-08
9.63507597902e-09
6.96637419949e-09
2.7836612984e-06
3.00622411047e-06
2.95822595686e-06
2.71451385566e-06
2.37619090844e-06
2.01160125497e-06
1.6751013827e-06
1.39692810825e-06
1.16787960566e-06
9.59227428496e-07
7.5721439189e-07
5.64336621717e-07
3.87865458276e-07
2.3648033136e-07
1.2309743628e-07
5.68982401239e-08
2.73426835869e-08
1.54555873977e-08
1.01698098131e-08
7.1028620149e-09
3.2509498979e-06
3.54820095065e-06
3.43468615924e-06
3.07142702952e-06
2.64262925123e-06
2.2329008983e-06
1.86998249701e-06
1.56362489001e-06
1.30708333038e-06
1.08145225416e-06
8.7333651034e-07
6.77583319709e-07
4.93026586116e-07
3.22894260202e-07
1.79916953407e-07
8.42946744966e-08
3.76747959264e-08
1.8936499153e-08
1.12277383966e-08
7.35550638718e-09
3.68954664971e-06
3.8937712557e-06
3.68335682807e-06
3.29650912267e-06
2.87910653277e-06
2.4831841937e-06
2.1130738375e-06
1.78273174742e-06
1.5004893544e-06
1.25144332945e-06
1.02410767372e-06
8.14129457087e-07
6.18254693627e-07
4.32756243559e-07
2.61900871253e-07
1.29319492911e-07
5.56508173435e-08
2.49706447668e-08
1.30535653184e-08
7.78982024783e-09
3.38733315475e-06
3.65267106249e-06
3.55937179947e-06
3.3013092701e-06
2.99013929311e-06
2.6694860945e-06
2.33429223394e-06
2.00142133511e-06
1.70497831955e-06
1.43141095368e-06
1.17870844226e-06
9.4775714633e-07
7.38257894992e-07
5.42454353138e-07
3.53551721947e-07
1.88280759485e-07
8.21359172078e-08
3.41115175874e-08
1.57640232809e-08
8.41666398319e-09
2.66364575034e-06
3.41651656551e-06
3.48618531457e-06
3.28334386176e-06
3.01787658609e-06
2.74877634909e-06
2.46616807358e-06
5.27188964168e-06
3.98600689986e-06
2.67626439192e-06
1.76960778829e-06
1.35338773763e-06
1.34331440148e-06
1.61597254222e-06
2.02092741776e-06
2.41764140618e-06
2.7246402958e-06
2.90617751797e-06
2.94924757613e-06
2.85360008443e-06
2.63071873215e-06
2.31244218199e-06
1.99738427096e-06
1.92963097869e-06
2.57169747635e-07
3.15910999915e-06
5.07220587531e-06
4.78153163323e-06
3.57135774691e-06
2.38936913226e-06
1.63563969922e-06
1.3496335484e-06
1.43243522034e-06
1.75643998423e-06
2.17160326307e-06
2.55397583904e-06
2.83727762252e-06
2.99307071478e-06
3.01154839407e-06
2.8940774252e-06
2.6532944333e-06
2.31992781319e-06
1.98310286634e-06
1.88168737395e-06
1.37998389024e-07
2.41391458098e-06
4.49343943052e-06
4.31182722766e-06
3.1921819949e-06
2.14885338454e-06
1.54396451403e-06
1.37710625358e-06
1.5414944733e-06
1.90521233597e-06
2.32290519724e-06
2.68800070959e-06
2.9469808918e-06
3.07735848197e-06
3.07194340789e-06
2.93345053202e-06
2.67570288114e-06
2.32886619832e-06
1.97207820373e-06
1.8349055576e-06
8.56445523628e-08
1.72885610657e-06
3.92911493055e-06
3.87007948626e-06
2.85474630128e-06
1.95579716479e-06
1.49186428442e-06
1.43275311159e-06
1.6672127056e-06
2.05964348897e-06
2.47353453136e-06
2.81911662928e-06
3.05343512431e-06
3.15886648062e-06
3.13035689617e-06
2.97171443259e-06
2.69794990436e-06
2.33928364133e-06
1.96467298275e-06
1.78991916619e-06
6.04040720698e-08
1.14283590073e-06
3.38633556302e-06
3.46252963468e-06
2.56314213275e-06
1.80916929001e-06
1.47599243508e-06
1.51324477087e-06
1.80610733428e-06
2.21722691658e-06
2.6222055287e-06
2.94661907229e-06
3.15619784163e-06
3.23730871099e-06
3.18663059226e-06
3.00881137755e-06
2.71999944359e-06
2.35116593136e-06
1.96139069047e-06
1.74767233319e-06
4.65460031737e-08
6.998290502e-07
2.87418946971e-06
3.09411904944e-06
2.31934067917e-06
1.70642169555e-06
1.49264261749e-06
1.61486970058e-06
1.95451714293e-06
2.37551983357e-06
2.76756186918e-06
3.06966992964e-06
3.25469839902e-06
3.31229824127e-06
3.24053794118e-06
3.04464449305e-06
2.74178302668e-06
2.36441530548e-06
1.9626619311e-06
1.70925571859e-06
3.61114004873e-08
4.01862425382e-07
2.39146978686e-06
2.76720020492e-06
2.12312482947e-06
1.64388178977e-06
1.53774965757e-06
1.73347572237e-06
2.10869492829e-06
2.53213380991e-06
2.90818442923e-06
3.18733248894e-06
3.34827584466e-06
3.38337834068e-06
3.29180660826e-06
3.07909702681e-06
2.76321599339e-06
2.37884377144e-06
1.96880572806e-06
1.67589476984e-06
2.55206434547e-08
2.17711544082e-07
1.92502586934e-06
2.48062246567e-06
1.97208169472e-06
1.61701345996e-06
1.60683101448e-06
1.86456045566e-06
2.264967975e-06
2.68479233545e-06
3.04265897608e-06
3.29863784595e-06
3.43623056015e-06
3.45005702413e-06
3.34014129707e-06
3.1120526666e-06
2.78422808542e-06
2.39419059613e-06
1.97997205578e-06
1.64893964923e-06
2.071157058e-08
1.14032059645e-07
1.47216559922e-06
2.2304407206e-06
1.86197973338e-06
1.62069696253e-06
1.69505705665e-06
2.00353596149e-06
2.41994907814e-06
2.83144063939e-06
3.16967553258e-06
3.40266411371e-06
3.51788053148e-06
3.51184568166e-06
3.38525202391e-06
3.14342603938e-06
2.80480991852e-06
2.41017373501e-06
1.99609479509e-06
1.62985621499e-06
1.89950201012e-08
6.22767489882e-08
1.05944081783e-06
2.01107122886e-06
1.78744968449e-06
1.64963694336e-06
1.79758280824e-06
2.14615155631e-06
2.57077912406e-06
2.97037802976e-06
3.2881256137e-06
3.49860308773e-06
3.59260650977e-06
3.56829160297e-06
3.42688200449e-06
3.17319456796e-06
2.82506950893e-06
2.42657196225e-06
2.01687674618e-06
1.62024892881e-06
1.78812155596e-08
3.99869064169e-08
7.11508334679e-07
1.81302882581e-06
1.74249335805e-06
1.69874239111e-06
1.90990306445e-06
2.28877770849e-06
2.71518887507e-06
3.10024872477e-06
3.39708313793e-06
3.58574265769e-06
3.65984335393e-06
3.61898262362e-06
3.46482553052e-06
3.20143192447e-06
2.84529406406e-06
2.44333715418e-06
2.04181868305e-06
1.62193443701e-06
1.69637393864e-08
3.07617857557e-08
4.17329926278e-07
1.61672756476e-06
1.72074218067e-06
1.7632111849e-06
2.02784678825e-06
2.42828180102e-06
2.85127201752e-06
3.21986128673e-06
3.49569115251e-06
3.66341106633e-06
3.71907155907e-06
3.66357548592e-06
3.49898376168e-06
3.22838244529e-06
2.86604877938e-06
2.46073972484e-06
2.07027733494e-06
1.63702225344e-06
1.61228182983e-08
1.99915708092e-08
1.86566219511e-07
1.38967930656e-06
1.71529794392e-06
1.83854099045e-06
2.14754770623e-06
2.56189882565e-06
2.97734289393e-06
3.32812980992e-06
3.58317445227e-06
3.73103809093e-06
3.769908497e-06
3.70190498317e-06
3.52948366446e-06
3.25458574888e-06
2.88830830312e-06
2.4795347044e-06
2.10152451597e-06
1.66788157881e-06
1.53624257167e-08
1.75833213874e-08
7.4133004665e-08
1.09417795024e-06
1.71770370317e-06
1.92036996171e-06
2.26543495308e-06
2.68721903142e-06
3.09198070648e-06
3.42419570331e-06
3.65900102909e-06
3.7883263135e-06
3.81227354586e-06
3.73413820907e-06
3.55682604946e-06
3.28102667784e-06
2.91362383031e-06
2.50117932664e-06
2.13486788246e-06
1.71681348066e-06
1.46568791397e-08
1.61230333144e-08
4.24153232805e-08
7.07490365224e-07
1.71452273038e-06
2.00431636866e-06
2.37835689104e-06
2.8023876203e-06
3.19429620443e-06
3.5077194719e-06
3.72315301214e-06
3.835483052e-06
3.84658388554e-06
3.76095224361e-06
3.58207063226e-06
3.3093535079e-06
2.94439695902e-06
2.5282178981e-06
2.17004696824e-06
1.78523291256e-06
1.40333894279e-08
1.48738070493e-08
2.75141915155e-08
3.17145708855e-07
1.67108509253e-06
2.08658735692e-06
2.484419747e-06
2.90680749206e-06
3.28449604576e-06
3.57930824077e-06
3.77643575359e-06
3.87344864433e-06
3.87395150476e-06
3.78375542493e-06
3.60713532818e-06
3.34228800821e-06
2.98440777433e-06
2.56498333056e-06
2.2082164304e-06
1.8723968726e-06
1.34439492825e-08
1.37587906662e-08
1.96421367236e-08
1.25472334537e-07
1.47337887623e-06
2.16373555547e-06
2.58375643843e-06
3.00165429142e-06
3.36418373832e-06
3.64067892008e-06
3.82057470906e-06
3.90399279531e-06
3.89634396066e-06
3.80498369515e-06
3.63529773044e-06
3.38436608397e-06
3.03975651451e-06
2.61876287979e-06
2.25383056484e-06
1.97457048143e-06
1.28698033293e-08
1.2748129032e-08
1.69076059353e-08
7.80334082785e-08
9.77329615101e-07
2.22393500193e-06
2.67799923748e-06
3.0894137788e-06
3.43594968433e-06
3.694349703e-06
3.85801898784e-06
3.92960207759e-06
3.91650560106e-06
3.82801052623e-06
3.67109236214e-06
3.44188934416e-06
3.11898909213e-06
2.70031580232e-06
2.31654744765e-06
2.08619889636e-06
1.23273446892e-08
1.17937950584e-08
1.48381514085e-08
4.94479346775e-08
4.60706029401e-07
2.21338111388e-06
2.76846282042e-06
3.17265694834e-06
3.50256328827e-06
3.74310199454e-06
3.89145405283e-06
3.95269048631e-06
3.93632950211e-06
3.85398968449e-06
3.71502066238e-06
3.51552770002e-06
3.224729965e-06
2.8162809103e-06
2.40609544193e-06
2.19996081128e-06
1.17937462032e-08
1.09064022317e-08
1.31375189648e-08
3.26963808512e-08
2.36286051742e-07
2.0075786517e-06
2.85392023444e-06
3.25350187956e-06
3.56690218895e-06
3.7901915998e-06
3.92421661684e-06
3.97625346005e-06
3.95797139153e-06
3.88394462146e-06
3.76748339698e-06
3.60707279775e-06
3.36352975386e-06
2.98062212687e-06
2.54230453379e-06
2.31861511039e-06
1.1266397554e-08
1.00893229241e-08
1.17161796043e-08
2.54258347409e-08
1.64531265516e-07
1.54092377173e-06
2.92247313705e-06
3.33403855374e-06
3.63296310324e-06
3.84047268867e-06
3.96146889904e-06
4.00522891016e-06
3.9856756429e-06
3.9213877512e-06
3.83235291295e-06
3.72366793898e-06
3.55009686983e-06
3.21860895681e-06
2.758785855e-06
2.46461338579e-06
1.07558814415e-08
9.34811045276e-09
1.0561987128e-08
2.06742509727e-08
1.2788329314e-07
9.87105111985e-07
2.93817554701e-06
3.41644458999e-06
3.70643696996e-06
3.90027624791e-06
4.00878235676e-06
4.04296640207e-06
4.01840919119e-06
3.95758619844e-06
3.88907803009e-06
3.83140807206e-06
3.74596853015e-06
3.50820121977e-06
3.06327832849e-06
2.66104517429e-06
1.02743867118e-08
8.68880195956e-09
9.66164952174e-09
1.76797047778e-08
8.59498548752e-08
5.66604332752e-07
2.83507172593e-06
3.50028960376e-06
3.79187928942e-06
3.9735845224e-06
4.06705006867e-06
4.08490414875e-06
4.04217496682e-06
3.96113438959e-06
3.87499369539e-06
3.82256100711e-06
3.80920056786e-06
3.7298265391e-06
3.41365031548e-06
2.92956094482e-06
9.82678302049e-09
8.11632360718e-09
9.00748430938e-09
1.58736413233e-08
5.22549926673e-08
3.29382146912e-07
2.50191190661e-06
3.57143632006e-06
3.88537606203e-06
4.05591103301e-06
4.12781353686e-06
4.11752329849e-06
4.0380668527e-06
3.90571550158e-06
3.74507865339e-06
3.5966569202e-06
3.52054544938e-06
3.55047689724e-06
3.55299451323e-06
3.27344506459e-06
9.41066562636e-09
7.62658177286e-09
8.54106920554e-09
1.49509206492e-08
4.08118533231e-08
2.1314074925e-07
1.81540675278e-06
3.57867453479e-06
3.96800744808e-06
4.13316481404e-06
4.17638134824e-06
4.12581828294e-06
3.99586895419e-06
3.79851720817e-06
3.54750658941e-06
3.26403811199e-06
2.99135872312e-06
2.82717562937e-06
2.96267074345e-06
3.53136427303e-06
9.01508478366e-09
7.200379165e-09
8.22045882225e-09
1.47574863319e-08
3.63076958844e-08
1.54173213123e-07
9.60963489946e-07
3.40117825957e-06
4.00668141793e-06
4.18480455418e-06
4.19620044314e-06
4.09457434014e-06
3.90170176393e-06
3.63033085921e-06
3.29255922199e-06
2.90762777195e-06
2.51329278116e-06
2.19958576349e-06
2.21624383261e-06
3.5288712443e-06
8.55492794243e-09
6.8103058636e-09
8.00629968266e-09
1.53357578317e-08
3.60799810223e-08
9.73943589006e-08
4.2409979738e-07
2.77061586448e-06
3.94435518118e-06
4.15935895566e-06
4.12352445243e-06
3.93742767942e-06
3.63786648067e-06
3.24772514379e-06
2.79819504808e-06
2.34911421035e-06
1.97834393583e-06
1.71721377443e-06
1.63980017223e-06
2.22262090535e-06
7.99472191249e-09
6.43006368878e-09
7.86995329275e-09
1.64483923657e-08
3.86199946063e-08
8.46200330702e-08
2.54770179569e-07
1.53590976124e-06
3.59519553945e-06
3.84626600451e-06
3.66155972478e-06
3.28213479126e-06
2.80049669742e-06
2.30084961168e-06
1.90252702268e-06
1.65691960636e-06
1.53079118636e-06
1.48346631437e-06
1.53327419521e-06
1.95885745677e-06
7.35609336659e-09
6.04671025746e-09
7.70481352937e-09
1.76541666788e-08
4.29746778174e-08
8.57288003711e-08
1.80833892547e-07
5.60088209057e-07
2.54686794894e-06
2.95485441284e-06
2.55543965604e-06
2.06528845595e-06
1.66849013051e-06
1.46562789822e-06
1.41953223264e-06
1.46248265513e-06
1.54822730062e-06
1.64994928152e-06
1.81450282245e-06
2.27006370201e-06
6.67587169277e-09
5.63210166195e-09
7.38559209353e-09
1.85139921786e-08
4.75116722225e-08
8.81349170341e-08
1.3099478543e-07
2.62381600302e-07
1.02915607372e-06
1.8083893848e-06
1.50312468726e-06
1.26733830218e-06
1.22444060938e-06
1.29797631524e-06
1.42857288232e-06
1.58856567593e-06
1.75599790066e-06
1.92337495882e-06
2.15525076613e-06
2.6358816453e-06
5.9937962479e-09
5.17999285699e-09
6.95661193741e-09
1.81711274373e-08
4.98889153845e-08
9.00256405576e-08
1.15659546974e-07
1.42288026948e-07
2.68050234995e-07
9.15447217067e-07
1.04316601377e-06
1.0218203138e-06
1.11833214525e-06
1.27218986704e-06
1.45350471276e-06
1.65342972626e-06
1.86390634566e-06
2.07489369992e-06
2.34955416303e-06
2.84876338666e-06
5.36200351105e-09
4.70293202768e-09
6.38700870198e-09
1.66349138741e-08
4.76054960884e-08
8.92022948698e-08
1.05204024282e-07
9.98924533676e-08
1.21930482074e-07
2.03274238673e-07
5.4527726315e-07
7.34169454263e-07
9.39534240766e-07
1.13645851198e-06
1.20509909061e-06
1.28270651034e-06
1.54370940744e-06
2.0860357362e-06
2.44751053078e-06
2.9794563899e-06
4.93890730695e-09
4.19435884993e-09
5.6608269017e-09
1.47147615261e-08
4.20791146598e-08
7.95028330566e-08
9.73816082583e-08
7.91343094385e-08
5.06963580442e-08
4.09314084383e-08
5.0950771714e-08
2.51180171519e-07
5.95105467456e-07
8.95298760507e-07
6.31535032377e-07
3.92223411157e-07
3.87186991424e-07
8.90198593998e-07
2.16005682007e-06
3.06991404131e-06
4.81420991731e-09
3.70747524368e-09
4.8871574909e-09
1.26103075147e-08
3.56049216938e-08
6.64559954998e-08
8.37754692111e-08
7.62357848896e-08
5.08709579143e-08
2.22367232009e-08
1.51248835845e-08
2.86997675298e-08
6.01345589833e-08
2.42190406479e-07
4.41345267208e-07
2.30026509156e-07
2.46012330641e-07
2.91315232079e-07
4.09483286693e-07
2.83922508172e-06
4.85516473232e-09
3.47681779366e-09
4.15410594565e-09
1.04659735526e-08
2.90037831553e-08
5.34203780779e-08
6.95212567767e-08
6.97034619234e-08
5.66431270207e-08
3.75851861756e-08
2.28478326369e-08
1.62807788226e-08
2.59184511025e-08
4.74491114477e-08
1.50489844558e-07
2.60801863042e-07
2.06936730611e-07
1.89626649338e-07
2.51179420995e-07
6.64789916674e-07
4.93009643168e-09
3.472536352e-09
3.63992494126e-09
8.54057103055e-09
2.30727723362e-08
4.24659015444e-08
5.66749999058e-08
6.01776917223e-08
5.28934476511e-08
3.91466655186e-08
2.61793008587e-08
1.79284494307e-08
1.57143882698e-08
2.17593810351e-08
4.00249706636e-08
1.69835118511e-07
2.54543131796e-07
1.66950252585e-07
2.27436060136e-07
3.91562575564e-07
4.99882771909e-09
3.48332373605e-09
3.4189404676e-09
6.98321929738e-09
1.82166293621e-08
3.38761697223e-08
4.57695343791e-08
4.93679116834e-08
4.3968326474e-08
3.3238706298e-08
2.26509799078e-08
1.54060097914e-08
1.21917994622e-08
1.3257805292e-08
2.22318468166e-08
4.47568683266e-08
1.83297160107e-07
1.96292532496e-07
2.22968983749e-07
3.17788798904e-07
5.03998170495e-09
3.40181300963e-09
3.24895779489e-09
5.92853499203e-09
1.44793049759e-08
2.69579823337e-08
3.64942706677e-08
3.91750332487e-08
3.47241768356e-08
2.62203653842e-08
1.79705369163e-08
1.24604242161e-08
1.01121573263e-08
1.06852088969e-08
1.52383581214e-08
3.16436924494e-08
7.2272829843e-08
2.23891188595e-07
3.20084623913e-07
4.91478733043e-07
)
;

boundaryField
{
    emptyPatch
    {
        type            empty;
    }
    minY
    {
        type            zeroGradient;
    }
    maxY
    {
        type            calculated;
        value           nonuniform List<scalar> 0();
    }
    water_to_cooler
    {
        type            compressible::alphatWallBoilingWallFunction;
        phaseType       vapor;
        relax           constant 1;
        partitioningModel
        {
            type            Lavieville;
            alphaCrit       0.2;
        }
        otherPhase      liquid;
        dmdt            uniform 0;
        dDep            uniform 1e-05;
        qQuenching      uniform 0;
        alphatConv      uniform 0;
        value           nonuniform List<scalar> 
38
(
3.01273722487e-05
3.01273722487e-05
3.01273722487e-05
3.01273722487e-05
3.01273722487e-05
3.01273722487e-05
3.01273722487e-05
3.01273722487e-05
3.01273722487e-05
3.01273722487e-05
3.01273722487e-05
3.01273722487e-05
3.01273722487e-05
3.01273722487e-05
3.01273722487e-05
3.01273722487e-05
3.01273722487e-05
3.01273722487e-05
3.01273722487e-05
3.01273722487e-05
3.01273722487e-05
3.01273722487e-05
3.01273722487e-05
3.01273722487e-05
3.01273722487e-05
3.01273722487e-05
4.89520743753e-05
4.50613844874e-05
3.81669417836e-05
3.54024469167e-05
3.3954235362e-05
3.33048019902e-05
6.48849677307e-07
9.00698803963e-10
3.88985286393e-11
2.22311604609e-11
2.57589988187e-11
2.92301549596e-11
)
;
    }
    water_to_heater
    {
        type            compressible::alphatWallBoilingWallFunction;
        phaseType       vapor;
        relax           constant 1;
        partitioningModel
        {
            type            Lavieville;
            alphaCrit       0.2;
        }
        otherPhase      liquid;
        dmdt            uniform 0;
        dDep            uniform 1e-05;
        qQuenching      uniform 0;
        alphatConv      uniform 0;
        value           nonuniform List<scalar> 
60
(
2.84469620273e-07
2.84469620273e-07
2.84652000147e-07
3.07044812569e-07
3.73763674801e-07
3.73763674801e-07
4.87544666699e-07
4.87544666699e-07
5.26158371732e-07
5.26158371732e-07
4.87991302722e-07
5.40522486271e-07