/*--------------------------------*- C++ -*----------------------------------*\
| =========                 |                                                 |
| \\      /  F ield         | OpenFOAM: The Open Source CFD Toolbox           |
|  \\    /   O peration     | Version:  2312                                  |
|   \\  /    A nd           | Website:  www.openfoam.com                      |
|    \\/     M anipulation  |                                                 |
\*---------------------------------------------------------------------------*/
FoamFile
{
    version     2.0;
    format      ascii;
    arch        "LSB;label=32;scalar=64";
    class       volScalarField;
    location    "0.35/water";
    object      k.gas;
}
// * * * * * * * * * * * * * * * * * * * * * * * * * * * * * * * * * * * * * //

dimensions      [0 2 -2 0 0 0 0];

internalField   nonuniform List<scalar> 
1504
(
2.31799029991
0.969174669059
0.419350881945
0.196005244845
0.100926678285
0.0566082023026
0.0344750099833
0.0229414838857
0.0162532327057
0.011859525527
0.0084780715309
0.00535726706193
0.00285454508638
0.00184713805944
0.00174739985788
0.00178738320485
0.00173446739661
0.00153961008545
0.00119300939368
0.000665192350232
2.42401465731
0.994535420828
0.42400481996
0.19682667243
0.101076738621
0.0566516956888
0.0346430314292
0.0230241003709
0.0161813457084
0.0117449366365
0.00835950946153
0.00529911031957
0.0028716321839
0.00186916466027
0.00175443772522
0.00182217930595
0.00182987870008
0.00165977597156
0.00132957973209
0.000769050860567
2.53552124099
1.01744641623
0.428694686673
0.198293114663
0.101623196124
0.056948060378
0.0348929470911
0.0230132643374
0.0160463507587
0.0115878808467
0.00821723380846
0.00523901684325
0.00288318370389
0.00187406872541
0.00175211708744
0.00186231882684
0.00192998765849
0.00178391796379
0.00146366919061
0.000905130752571
2.63805685224
1.03396204948
0.433438391131
0.20057602255
0.102747291981
0.0576460610755
0.0352354843226
0.0229911331673
0.0159105949879
0.0114190744238
0.00806800055034
0.00518536438029
0.00289798281785
0.00187674245262
0.00175467158534
0.00190858300896
0.00202112366341
0.00190028486735
0.00157569458637
0.00103297102159
2.72735622269
1.0436268123
0.436983631769
0.203052177106
0.104376582161
0.0587295779627
0.0356846847042
0.0230345150027
0.0157965166235
0.0112366929191
0.00790070633018
0.00513435221464
0.00292808051387
0.00189553918736
0.00177342783537
0.00195654147978
0.00209662955246
0.00200729365858
0.00166674120131
0.00115380632643
2.77085994936
1.05368774995
0.441325046583
0.206388459937
0.106907648795
0.0603616037389
0.036371274328
0.0231804090218
0.0156577961294
0.0109577237192
0.00768085357779
0.00509902423061
0.00298798835257
0.00193185066014
0.00180390003027
0.00200278233485
0.00216169088185
0.00210836612191
0.00176559894331
0.001271444978
2.74781696579
1.05029510757
0.443474094892
0.209845711752
0.110004065788
0.0623482534644
0.0371967780723
0.0231969317077
0.0152212510237
0.0105071481592
0.00748370653929
0.00512534843061
0.00309219616404
0.00200294846708
0.00185090730439
0.0020483617334
0.00222448225547
0.002209901778
0.00188811247514
0.00139240553096
2.65723977109
1.02598364247
0.440538331977
0.212198224653
0.112883875861
0.0641749342069
0.0374936696495
0.02249189532
0.0144544713481
0.0101142585448
0.00741534450576
0.00521894136696
0.00325242041837
0.00211382835754
0.00191483635857
0.00209587805959
0.00228900260603
0.00231994872654
0.00204596542206
0.00153213063363
2.50075011842
0.978123855063
0.429622353978
0.211715214666
0.114499693236
0.0647881237439
0.0364148434313
0.021228053812
0.0137760240121
0.00990269086402
0.00744031526195
0.0053628818858
0.00343914148062
0.0022516143736
0.00199082973437
0.00214145061239
0.00234918260436
0.00243032439668
0.00221404409143
0.00170450062527
2.30460193175
0.913264715404
0.413049906619
0.20933233963
0.115145430031
0.0639762706485
0.0345639231577
0.0200173988658
0.0132787271521
0.00980828371507
0.00748816805723
0.00549760540268
0.003608717911
0.00239604650623
0.0020615392374
0.00216942815445
0.00238296879588
0.00251828013819
0.00236038205213
0.0018667155757
2.07467674678
0.843738753448
0.39760172104
0.210177898482
0.117615005105
0.0633873202023
0.0328764208067
0.0190386409843
0.0129860260744
0.00977776969305
0.00752207271995
0.005562892201
0.00373075528372
0.00252475742466
0.00210695739504
0.00215761163483
0.00236332263476
0.00256637859021
0.00247571179572
0.0020349013833
1.80054813028
0.781692516987
0.399959376541
0.223418417462
0.124394658173
0.0637221395068
0.0320141831068
0.0187759733892
0.0130159211648
0.00977639562629
0.00748532880414
0.00551988286478
0.00379719982273
0.00261833480677
0.00212102834294
0.00209176804116
0.00226968080885
0.00254290428185
0.00253044685366
0.00215304833857
1.55940115233
0.79763105202
0.448105469281
0.254035192047
0.135734703762
0.0667999837964
0.0335347881305
0.0197152491502
0.0133773126776
0.00981495119092
0.00737257335527
0.00541878484831
0.00381390154639
0.00265629393499
0.00208581501664
0.0019693897178
0.00209819198089
0.00241350168014
0.00251454765603
0.00221331125247
1.64247256029
0.955182502073
0.550039295649
0.302165673884
0.153581399989
0.07445365673
0.0379669835882
0.0218946981734
0.0141946188726
0.00997813673061
0.00729362208884
0.0053222997304
0.00377978504387
0.00262933513631
0.00197722483575
0.00176939489979
0.0018651323053
0.00217671932635
0.00242433345452
0.00219540284519
2.23818250246
1.281833624
0.695533620996
0.358429837833
0.17904412213
0.0896430621669
0.0467295544081
0.026163421705
0.0159816747978
0.010610409464
0.00746460769627
0.00533999652069
0.00374588432
0.00255111306997
0.00182571905262
0.00153473210286
0.00157082526782
0.00187520379696
0.00224564107217
0.002095772795
3.35560329458
1.70324486325
0.824921221431
0.415876238628
0.216305471128
0.114208373301
0.0609041576691
0.0334989650387
0.0194300372628
0.0121147741489
0.00810086736252
0.00560996038638
0.00381355598969
0.00248358181059
0.00167068026906
0.00131893453025
0.00129943280904
0.00158331654018
0.00200017015015
0.00193934841791
4.36119620249
1.93592384592
0.931974556704
0.479682879783
0.259385851238
0.141588377149
0.0767476246682
0.0423800769195
0.0242107492405
0.0145106953532
0.00926013729831
0.00619518548409
0.00408216270889
0.00251392872358
0.00155711519218
0.001153843103
0.00111047958729
0.00135182962582
0.0017547229336
0.00177354904107
4.59798034302
1.98767803253
0.962581472348
0.514543774529
0.292004658556
0.165527539562
0.0905580583269
0.0500457553174
0.0287174556582
0.0171581345663
0.0107448203562
0.00702520539124
0.00453034243899
0.00267880876441
0.0015344815532
0.0010637835145
0.00100371738623
0.00120013363273
0.00157030584387
0.00163904985374
4.53308203019
1.96782020627
0.948112324589
0.512379595426
0.29994982169
0.179216774287
0.0993967055932
0.055326042642
0.0321022858607
0.0193820166358
0.0121981040825
0.00793419547356
0.00505727771598
0.00292330566424
0.00159857099752
0.00104636191902
0.000959040255734
0.00112614577477
0.0014632739392
0.00154973952191
4.51217827239
1.9167053618
0.904081189497
0.486283324205
0.287884255811
0.175125388531
0.0997748130451
0.0574326511563
0.0341420906553
0.020994697756
0.0133996502557
0.0087612981614
0.00555086534576
0.0031757864101
0.00170755724467
0.00108077650124
0.000960087850985
0.00110514541825
0.00141727889742
0.00150301232017
4.62224279929
1.87337430322
0.861073877539
0.455897238982
0.268151775125
0.160026587528
0.0947632106894
0.0565599673166
0.0345768803072
0.0217731969762
0.0141773943614
0.00935583438045
0.00590370791862
0.00337247785095
0.00182409302754
0.00114606642909
0.00099167104395
0.00111426656138
0.00140551511099
0.00148578772061
4.89520489203
1.90852903253
0.861739567614
0.448950041983
0.256283772832
0.152047063514
0.0911490233266
0.0553245033277
0.0343583130354
0.0220375074518
0.014599177849
0.00968006531392
0.00606946238911
0.00347150474956
0.00191015937097
0.00121639564437
0.00103911537934
0.00113467992458
0.00140297820771
0.00148071251529
5.11923774529
2.01136332284
0.919049471691
0.472919969039
0.267576873682
0.156451179893
0.0929383810444
0.0559881330408
0.0346261936223
0.0223089273649
0.0148475938869
0.00978476590082
0.00608951963445
0.00350136983327
0.00197285019627
0.00128545456955
0.00109170639951
0.00116007295395
0.00139149221921
0.00147560405497
4.88802109032
2.05856213747
0.995713460888
0.529192323709
0.296172226274
0.170892588503
0.100087574402
0.0592141068877
0.0359568120062
0.0228576980269
0.0149964325824
0.00973946388889
0.00603753064378
0.00351045307118
0.00203357137988
0.00135700118684
0.00114591011421
0.00118481578171
0.00136664741399
0.00146360374674
4.31354572835
2.04942496308
1.05058313609
0.569400640601
0.320789837255
0.185691713158
0.108670032426
0.0636745966713
0.0379450975151
0.0234856521605
0.014988587811
0.00961342564704
0.00597685624376
0.00353753478623
0.00210936214443
0.00143541117996
0.0012006384088
0.00120485267037
0.00133341581661
0.0014405197862
3.70902731434
1.88431780412
1.01055943755
0.56537405661
0.326373947322
0.192790091533
0.114413739806
0.0673075283913
0.0395792432642
0.0237578315002
0.0148048714944
0.00946924971378
0.00595480009507
0.00360809597209
0.00221110978809
0.00152382401322
0.00125738688704
0.00121785805479
0.00130293789462
0.00140667117213
3.37529365962
1.6972857873
0.926679216824
0.532062481106
0.315783592532
0.191220187124
0.115664143154
0.0687179999175
0.0400155764549
0.023482990626
0.0145251962819
0.00937534491004
0.00600995224473
0.00374068951842
0.00234684391293
0.00162638839113
0.00131977984763
0.00123137733059
0.00125820757605
0.0013618956073
3.13669660618
1.5504157273
0.843752980256
0.489949709653
0.296401216724
0.182928307358
0.112465751912
0.0674010283171
0.0390141262637
0.022793660684
0.01426029439
0.0093820339251
0.00616230457733
0.00394290061864
0.00252176986353
0.00174685215608
0.00139240614625
0.00125058004911
0.00121656874862
0.00130549706472
2.92793224784
1.42166627318
0.765698600564
0.444950997238
0.271536531485
0.1694618467
0.105421555955
0.0635602891683
0.0368603476319
0.0219014357791
0.0140671649757
0.00948868737741
0.00639841281131
0.00420617526322
0.00273416815008
0.00188650307695
0.00147416587787
0.0012809239376
0.00118869703206
0.00121597176911
2.74158580398
1.30048458066
0.69030972309
0.398536267968
0.243562606314
0.153105345002
0.09603737732
0.0580694912198
0.0341118288917
0.0209759106561
0.0139365161362
0.00965034398718
0.00667982502108
0.00450697734301
0.00297591454827
0.00204421937245
0.0015610958106
0.00131444970145
0.00116966536735
0.0011227572686
2.5962138564
1.19445019561
0.621514945387
0.355358898036
0.217469297119
0.13763145013
0.0864340709502
0.052238791953
0.031488580166
0.0201994661481
0.0138666267026
0.0098324528173
0.00697070712339
0.00482061794573
0.0032361545128
0.0022087347025
0.00164180152783
0.00133917250153
0.00115286390959
0.00103881657527
2.45638914323
1.10057167684
0.566578542779
0.324734228586
0.199729930787
0.126108308904
0.0782977748091
0.0475481825572
0.0296932908851
0.0197982593253
0.013926593822
0.0100498692152
0.00726120506764
0.00512234496874
0.00348079633104
0.00236060424076
0.00170858833613
0.00134875462478
0.00112762374395
0.000969632917952
2.2577616116
1.02649447076
0.543884792795
0.31722044863
0.19422642311
0.12023973833
0.0737084509396
0.0455110115383
0.0294053610935
0.0200908404394
0.0142821396295
0.010373211923
0.00755428129578
0.00539456426047
0.00370708258032
0.00250278092622
0.00176247404448
0.00133910815096
0.00108156355516
0.000903830866876
2.07038595067
1.03469691417
0.576743326686
0.337761869829
0.202672653957
0.123197982521
0.0756510658294
0.0476651198273
0.0313242915909
0.0214425696463
0.0151443815442
0.0109279493428
0.00794301358639
0.0056943199524
0.0039288971215
0.00262675154794
0.00179441863093
0.00130870572742
0.00101585130323
0.000822996038527
2.18832871688
1.17557469603
0.662623318918
0.381117454785
0.224812578408
0.136189104499
0.0848350013209
0.0543217171227
0.0358479432351
0.0243621685339
0.0169578101203
0.0120282278382
0.00862419115397
0.0061328293206
0.00420457569374
0.00275758425975
0.00181204215332
0.00126055535155
0.00093963457544
0.00073469298506
2.62244755181
1.38883058762
0.752956355741
0.418991548312
0.246218645057
0.152786107886
0.0988588499054
0.06530977083
0.0435910231241
0.0294974849717
0.0202046250041
0.0139778910751
0.00979011824114
0.00685675611763
0.00465172451325
0.00297973202017
0.00186521239854
0.00122276250562
0.000868931735537
0.000655527287153
3.02557918733
1.4986786972
0.775934172446
0.434121435006
0.262617034113
0.169771755016
0.115009398458
0.0790244797202
0.0533249978423
0.0360942708714
0.0244568634048
0.0166354155373
0.0114181082594
0.00789472134557
0.00532981999477
0.00336703585923
0.0020180248224
0.0012390491373
0.00082723282093
0.000598240453448
2.99819102989
1.38471162781
0.71821594995
0.414103525459
0.261618329311
0.178477188461
0.128250043964
0.00134297545247
0.00133230734615
0.00135624742688
0.00147287931415
0.00180984908544
0.00257654783827
0.0039440415758
0.0058164796009
0.00786093241895
0.00978405177061
0.0114437210576
0.0128205576447
0.0139948175701
0.0151829654218
0.0169283145672
0.0207642438192
0.0309461728047
0.000561221850759
0.00139663027417
0.00137981064121
0.00135758143574
0.0013531835214
0.00139556826276
0.00155895476199
0.00199200180521
0.00290156804438
0.00439451062981
0.00629796108869
0.00828001765287
0.010091595379
0.0116228296939
0.0128694852348
0.0139159568978
0.0149731842414
0.0165602110476
0.0201431427522
0.0299289512912
0.000474908517558
0.00138632315667
0.00139517975398
0.00137463762297
0.00137928075501
0.00144667154751
0.00166901886304
0.00221212899126
0.00326508218641
0.00486095888904
0.00676902919076
0.00867532777952
0.0103725079163
0.0117775133848
0.0128981341346
0.013821523115
0.014752807396
0.0161870615706
0.0195196658619
0.0288869830449
0.000473466202256
0.00135264629215
0.00141359335309
0.00139541803015
0.00141257120897
0.0015128586037
0.00180722256711
0.0024716838249
0.00366181399212
0.00533508024511
0.00722452506985
0.0090447947725
0.0106261346546
0.0119075862808
0.0129063936466
0.0137113148816
0.0145214499088
0.0158082405188
0.0188931776921
0.0278155680008
0.000544029061252
0.00127635489637
0.00143603067776
0.00142121982827
0.00145519717433
0.00159753247435
0.00197694709939
0.00276987738314
0.00408449393021
0.00580853344057
0.00765955817089
0.00938613472004
0.0108513603229
0.0120123595872
0.0128936986319
0.0135847645904
0.014278412012
0.0154228275872
0.0182629280503
0.0267105627862
0.000668849972229
0.001148264821
0.00146351820413
0.00145320725832
0.00150923382716
0.00170372843029
0.00218000657574
0.00310310890627
0.00452401139873
0.00627287231442
0.00806918298341
0.0096966885289
0.0110465880332
0.0120906812316
0.0128590804206
0.0134409547848
0.0140226980214
0.0150296273443
0.0176280891613
0.0255691565985
0.000781173224339
0.000985710646781
0.00149691790008
0.00149234351401
0.00157648541552
0.00183359537326
0.002415953683
0.00346485714363
0.00496996796045
0.00671978631126
0.00844852065236
0.00997364462354
0.011209997909
0.0121411782586
0.0128013656135
0.013278789861
0.0137531548492
0.0146273261563
0.0169879156662
0.0243905244458
0.00078262544997
0.000825339455399
0.00153543585765
0.00153920115598
0.0016581858429
0.0019878536391
0.00268169755716
0.00384617813949
0.00541159042582
0.00714161033513
0.00879316318027
0.0102144373216
0.0113398983636
0.0121625403946
0.0127194075842
0.0130971930817
0.0134686992676
0.0142147359488
0.0163419708501
0.0231765454169
0.00085685902682
0.000709066348988
0.00157545022179
0.00159398301231
0.00175474839073
0.00216547257166
0.002971716794
0.00423684284479
0.00583888625455
0.00753199491055
0.00909968355593
0.0104171636605
0.0114350465814
0.012153767132
0.0126122877207
0.0128953084914
0.0131685320416
0.0137910763853
0.0156904011863
0.0219323701538
0.00100850642975
0.000665614875238
0.00160834087684
0.00165792430861
0.00186629042721
0.00236422032664
0.00327929321173
0.0046271157024
0.00624391680248
0.00788657563527
0.00936605593658
0.0105808512955
0.0114948187566
0.0121142871057
0.0124794289686
0.0126726286789
0.0128523360678
0.0133562534556
0.0150342422447
0.0206666286565
0.00117413265508
0.000719716561304
0.00160173093716
0.00173449724743
0.00199329774593
0.002581548575
0.00359788675863
0.0050090196453
0.0066212019142
0.00820284635144
0.00959137679622
0.0107051544801
0.0115189404724
0.0120437611316
0.012320481405
0.0124289697126
0.012520315282
0.0129110066523
0.0143756062171
0.0193910936584
0.00133502935161
0.000864662877787
0.00146244397012
0.00182754763481
0.00213605833316
0.00281430342304
0.00392107096207
0.00537590216317
0.00696669878857
0.00847906442028
0.00977496097787
0.0107896797351
0.0115070290928
0.0119418068431
0.0121351907646
0.0121644252633
0.0121732058658
0.0124569382384
0.0137177123463
0.0181201673424
0.00146987330871
0.000805020556958
0.00109912556815
0.00193370194723
0.00229487938055
0.00305871122119
0.00424239794531
0.00572188667667
0.00727699491043
0.00871362697283
0.00991600120701
0.0108338826561
0.0114586576265
0.0118081679957
0.0119236139429
0.0118795840907
0.0118124299104
0.0119965981668
0.0130649064816
0.0168705585739
0.00154443486627
0.000928599156054
0.00077359939687
0.00199979237444
0.0024697054981
0.00331033695361
0.00455537761033
0.00604170802597
0.00754921718373
0.00890526824312
0.0100139959461
0.0108376120573
0.0113739263336
0.0116432524177
0.0116865915638
0.0115759116393
0.0114403862525
0.0115336570529
0.0124227000867
0.0156609280383
0.00159232709649
0.00104149191901
0.000758698533456
0.00182488032725
0.00265655257201
0.00356392551501
0.00485379084583
0.00633127035864
0.007781833188
0.00905403971727
0.0100697444017
0.0108020075532
0.0112542156572
0.0114487445368
0.0114262477327
0.0112561814017
0.011060828358
0.0110732405842
0.0117979409325
0.0145111598323
0.00161763929936
0.00111837366618
0.000784364570687
0.0012289237498
0.00282855298192
0.00381671386407
0.00513476170159
0.00659025205098
0.00797676999625
0.00916294789815
0.0100865244358
0.0107302930682
0.011102709783
0.0112279881033
0.0111463628314
0.0109249328175
0.0106794541395
0.0106225971957
0.0111993755296
0.0134412218092
0.00159742036782
0.00116659777161
0.000775999823192
0.000749008078756
0.00282178125567
0.00407235309218
0.00540204539077
0.00682403493266
0.00814037441171
0.00923828162726
0.0100700400254
0.0106275391146
0.0109241301577
0.0109858468687
0.010852521277
0.0105890350653
0.0103048832279
0.0101923720976
0.0106390107709
0.0124700857746
0.00154940022304
0.00116293113673
0.000857353505065
0.000733486794398
0.0022462136338
0.00432820823552
0.0056649321953
0.00704161260643
0.00828113019576
0.00928758617463
0.0100268078391
0.0104994193339
0.0107237133613
0.0107277462539
0.010551133669
0.0102566662109
0.00994758281924
0.00979552096227
0.010131427241
0.0116133016299
0.00149103024974
0.00115738102695
0.000906888208458
0.000743449822494
0.00133899746121
0.00450182844327
0.00593199103483
0.00725022097596
0.00840552604129
0.00931670039402
0.00996196912962
0.0103501606109
0.0105044326444
0.0104551124551
0.0102419873648
0.00992611491911
0.0096047358172
0.00942917460804
0.00967524200195
0.010866931001
0.00144355008862
0.00115639906105
0.000937953921418
0.000738868522172
0.000897520030132
0.00433403805093
0.00620576086428
0.00745302518106
0.00851700165497
0.00932971760067
0.00988004192252
0.0101841155722
0.0102698069604
0.0101702911018
0.00992654925212
0.00959873594682
0.00927819113047
0.00909561695693
0.00927217952989
0.0102218376706
0.00141656405375
0.00116597475105
0.000968034148049
0.000816589687223
0.000850847462788
0.00361230421828
0.00647141229087
0.00765292951339
0.00862029319477
0.00933347106164
0.00978939268232
0.0100102459782
0.01002838088
0.00988073449879
0.00961125697523
0.0092805307096
0.00897328534467
0.00879769450609
0.00892034820884
0.00966014575773
0.00140998996239
0.00118907927437
0.00100822457406
0.000890747261028
0.000960726948241
0.00262388502673
0.00667776435722
0.00785958241563
0.00872702016027
0.00934082679863
0.00970262713536
0.00983865936028
0.00978461222497
0.00958123108488
0.00927728305366
0.00893687675157
0.00864025329055
0.00847406142895
0.0085536992763
0.00911088014819
0.00141886605382
0.00122593045376
0.00105773379918
0.00097962017757
0.00101385209357
0.00183727031262
0.0067199619683
0.00809029042791
0.00885275029567
0.00936410793089
0.00962711018919
0.00966957710427
0.00952867293638
0.00924765431663
0.0088804311603
0.00849890793754
0.00818877217941
0.00802521192345
0.00807525252608
0.00848155722353
0.00143733119501
0.00127648191584
0.00113519212634
0.00109989144995
0.000996904493161
0.00142682777252
0.00637854036461
0.00835893987518
0.00900699841506
0.00940523030435
0.00955742054219
0.00949124128413
0.00924513587618
0.00886478450949
0.00840769910428
0.00795108881198
0.00759237037375
0.00742191992723
0.0074774002468
0.00779292599222
0.00145986762134
0.00134105182248
0.00124696098589
0.00126688981367
0.00118956115088
0.00136673964657
0.00529814137679
0.00865495835272
0.00920001835107
0.00947109946886
0.00950091110729
0.00931564485195
0.00895597695353
0.00847157552307
0.00792382840165
0.00739261695449
0.00698286891328
0.00681776734398
0.00696812023553
0.00731806023467
0.00148321960053
0.00141297936642
0.00138376046803
0.00149662297724
0.00147509207358
0.00160036099195
0.00356505673483
0.00885608166996
0.00946870553264
0.00960592001471
0.00951763295022
0.00922359602988
0.00876452900059
0.0081917533615
0.00756890504194
0.00698439543803
0.00656389632613
0.00647154856204
0.00685053761414
0.00740149919512
0.00149460253205
0.00147433488432
0.00153360564857
0.00177840693535
0.0018775872984
0.00162929676649
0.00225823305915
0.00831681711435
0.00986868179505
0.00987381833147
0.00968078898096
0.00929993254008
0.00876463779536
0.00812459523793
0.00745843929275
0.00690008011885
0.0066205114335
0.00679873631102
0.0076515599102
0.0090711536552
0.00148049135245
0.00151593127583
0.00169100042555
0.00212486946787
0.00242749792462
0.00208378293798
0.00210439684975
0.00585031549211
0.0101685221755
0.010091218903
0.00970175893848
0.00915157370394
0.00848080669632
0.00780467955884
0.00734031687007
0.00725264492547
0.0076369879935
0.00863125162497
0.0105503393086
0.0136548980799
0.00143455398289
0.00152796026767
0.00182117649306
0.00251983117992
0.00312518572034
0.00280870450824
0.00233491236709
0.00303802811288
0.00894057472619
0.009460256116
0.00868589839766
0.00794864781361
0.00745271006692
0.0074702406203
0.00802208795392
0.00905432916547
0.010629060748
0.0130278516519
0.0169024826787
0.0229712604904
0.00135242048548
0.00149462325294
0.00189158633134
0.00291130755467
0.00386123694676
0.00368522022842
0.00259520339984
0.00229307022091
0.00502781995185
0.00766988339781
0.00704083426932
0.00684560694479
0.00737319724497
0.00847199922085
0.0100272887599
0.0120492488815
0.0147422004414
0.0187057584371
0.0251862289562
0.0356674318443
0.0012416277782
0.00140652949814
0.00188466575491
0.00315551698421
0.00458625678358
0.00463909913744
0.00339213647194
0.00221163662209
0.00214403875359
0.00528344527444
0.00619716651891
0.00666920966925
0.00784902435398
0.00956902678409
0.011766802135
0.0145175600432
0.0181442309097
0.0235223193073
0.0327247388098
0.0486159426482
0.00108640350653
0.00126432559542
0.00177303389781
0.00314617866259
0.00503474313223
0.00550563328077
0.004407312582
0.00274878175305
0.00201272925139
0.00195046914672
0.00438982114347
0.00590686592669
0.00767895890957
0.0096893400207
0.0110501129286
0.0128276709984
0.0170881881306
0.0267356503156
0.0390675825099
0.0607465059367
0.000918211858931
0.00108056094555
0.0015438066399
0.00290338747779
0.00496926272582
0.00592133274881
0.00518906443918
0.00363583006659
0.00200959823467
0.00129443792448
0.00110357632208
0.0036367780756
0.00671440363387
0.00900987555459
0.00654368394364
0.00444881941021
0.0048726391323
0.0128669109706
0.0388541449097
0.0723174165696
0.000788756501833
0.000836614710488
0.00124383624884
0.00244048727701
0.0044345751595
0.00565049779752
0.00546444452894
0.00441146456601
0.00313787596066
0.00168549459776
0.00101381164574
0.0011803795195
0.0014191046794
0.00329601403806
0.00524654552133
0.00290043882319
0.00343660691427
0.00466194754048
0.00829695280584
0.0770372423469
0.000690595259894
0.00064441265288
0.000918862608527
0.0018660216773
0.00358056696403
0.00489367465967
0.00518280457748
0.00469275649589
0.00388203681023
0.00301021011077
0.00223146427646
0.00165561601262
0.00158990203606
0.001236100534
0.00232020991081
0.00354004398427
0.00301264084871
0.00319688778299
0.00550287725272
0.0210789999204
0.00059884723304
0.000526093238066
0.000638395478285
0.00133021337107
0.0026787235697
0.00391636115845
0.0044752512564
0.00438894516555
0.00383541085402
0.00303699282615
0.00226708965525
0.00166275824231
0.00129525790843
0.00115435556037
0.00106653240036
0.00284193098179
0.00392010171824
0.00289679025259
0.00536494254425
0.0147288162904
0.000516729608906
0.000440575775259
0.000475833323445
0.0008874351397
0.00190628101972
0.00299124385455
0.00360507251407
0.00367018002975
0.00330225365334
0.00270295225758
0.00207138732032
0.00155202078027
0.00121945457086
0.00102376309395
0.000931400731826
0.00108191377343
0.00331539578079
0.00357258850031
0.00535813987286
0.0123074721702
0.000456184614188
0.00037702170111
0.000386568269086
0.000620569650358
0.00134482369568
0.00224128239173
0.00282096187708
0.00297253810467
0.00274741663298
0.00228649514769
0.00177594363041
0.00136201860382
0.00109954198152
0.000955590328796
0.000781254687207
0.000967177497141
0.00164539481602
0.00425520270435
0.00693498545302
0.0156582552714
)
;

boundaryField
{
    emptyPatch
    {
        type            empty;
    }
    minY
    {
        type            fixedValue;
        value           nonuniform List<scalar> 0();
    }
    maxY
    {
        type            inletOutlet;
        inletValue      nonuniform List<scalar> 0();
        value           nonuniform List<scalar> 0();
    }
    water_to_cooler
    {
        type            kqRWallFunction;
        value           nonuniform List<scalar> 
38
(
0.0309461728047
0.0299289512912
0.0288869830449
0.0278155680008
0.0267105627862
0.0255691565985
0.0243905244458
0.0231765454169
0.0219323701538
0.0206666286565
0.0193910936584
0.0181201673424
0.0168705585739
0.0156609280383
0.0145111598323
0.0134412218092
0.0124700857746
0.0116133016299
0.010866931001
0.0102218376706
0.00966014575773
0.00911088014819
0.00848155722353
0.00779292599222
0.00731806023467
0.00740149919512
0.0090711536552
0.0136548980799
0.0229712604904
0.0356674318443
0.0486159426482
0.0607465059367
0.0723174165696
0.0770372423469
0.0210789999204
0.0147288162904
0.0123074721702
0.0156582552714
)
;
    }
    water_to_heater
    {
        type            kqRWallFunction;
        value           nonuniform List<scalar> 
60
(
2.31799029991
2.31799029991
2.42401465731
2.53552124099
2.63805685224
2.63805685224
2.72735622269
2.72735622269
2.77085994936
2.77085994936
2.74781696579
2.65723977109
2.50075011842
2.50075011842
2.30460193175
2.30460193175
2.07467674678
2.07467674678
1.80054813028
1.55940115233
1.64247256029
1.64247256029
2.23818250246
2.23818250246
3.35560329458
3.35560329458
4.36119620249
4.59798034302
4.53308203019
4.53308203019
4.51217827239
4.51217827239
4.62224279929
4.62224279929
4.89520489203
5.11923774529
4.88802109032
4.88802109032
4.31354572835
4.31354572835
3.70902731434
3.70902731434
3.37529365962
3.13669660618
2.92793224784
2.92793224784
2.74158580398
2.74158580398
2.5962138564
2.5962138564
2.45638914323
2.2577616116
2.07038595067
2.07038595067
2.18832871688
2.18832871688
2.62244755181
2.62244755181
3.02557918733
2.99819102989
)
;
    }
    procBoundary3to1
    {
        type            processor;
        value           nonuniform List<scalar> 
41
(
0.0928071612504
0.0637776886404
0.0425276412131
0.0285430206809
0.019284974796
0.0131768251149
0.00909001171243
0.00616952915366
0.00390758328555
0.00229156661807
0.00133290935154
0.000833386952206
0.000571334853376
2.78153498749
1.27129926734
0.661205376145
0.386719532966
0.250829180347
0.177290363941
0.0928071612504
0.132326657638
0.000420437129997
0.000334521801612
0.000331385369072
0.000482613877271
0.000962297819667
0.00167272433899
0.00217562710058
0.00234446384266
0.00220567313143
0.00185985040784
0.00146945571133
0.00116341962731
0.000981547808296
0.000830979828969
0.000591452867256
0.000879026392821
0.00177288047457
0.0155694615191
0.0300712172971
0.0879853226247
)
;
    }
    procBoundary3to2
    {
        type            processor;
        value           nonuniform List<scalar> 
41
(
2.21687107032
0.943609761166
0.41509814337
0.19561293395
0.100966842258
0.0566592301529
0.0343736935397
0.0227607719851
0.0162083886334
0.011901564626
0.00855360966111
0.00540359130783
0.00283232021519
0.00180703223367
0.0017208963164
0.00175204647993
0.00165259001102
0.0014378207209
0.00106669952843
0.000646627048826
0.00132982799085
0.00131509897252
0.0013258739746
0.00140655162813
0.0016626769074
0.00229332639909
0.00351792422803
0.00533064345433
0.0074204605522
0.00945043653648
0.0112401065423
0.0127511841624
0.0140581144786
0.0153824599636
0.0172916079339
0.021381484309
0.0319405492348
0.00073884865744
0.00139472088229
0.00136634375443
0.00136634375443
)
;
    }
}


// ************************************************************************* //
