/*--------------------------------*- C++ -*----------------------------------*\
| =========                 |                                                 |
| \\      /  F ield         | OpenFOAM: The Open Source CFD Toolbox           |
|  \\    /   O peration     | Version:  2312                                  |
|   \\  /    A nd           | Website:  www.openfoam.com                      |
|    \\/     M anipulation  |                                                 |
\*---------------------------------------------------------------------------*/
FoamFile
{
    version     2.0;
    format      ascii;
    arch        "LSB;label=32;scalar=64";
    class       volScalarField;
    location    "0.34/water";
    object      alpha.gas;
}
// * * * * * * * * * * * * * * * * * * * * * * * * * * * * * * * * * * * * * //

dimensions      [0 0 0 0 0 0 0];

internalField   nonuniform List<scalar> 
1503
(
0.175972607288
0.105642721054
0.0297515851724
0.00753150241166
0.00145825315937
0.000233327007486
2.96692052793e-05
2.16634052577e-06
4.42633043423e-08
3.79946431445e-10
1.95188860022e-12
8.26895721671e-15
1e-15
1e-15
1e-15
1e-15
1e-15
1e-15
1e-15
1e-15
0.613295062351
0.2625026692
0.109321890204
0.0375742657149
0.0120945222737
0.00328619189031
0.000742674906639
0.000129096980134
1.27952941638e-05
2.88003462989e-07
1.01783189775e-09
1.80549645296e-12
3.25676245702e-15
1e-15
1e-15
1e-15
1e-15
1e-15
1e-15
1e-15
0.613294019074
0.346074555369
0.171289553086
0.0735048727492
0.0286571001353
0.00969138888574
0.00271927097444
0.000604701177284
8.94966668245e-05
4.89783363683e-06
2.5410757083e-08
3.48865756838e-11
3.87432801502e-14
1.00019970878e-15
1e-15
1e-15
1e-15
1e-15
1e-15
1e-15
0.613295062351
0.422713612215
0.247465807824
0.126582545286
0.0573399639409
0.0223199419
0.0071784308845
0.00184053409236
0.000340310110847
3.21152396145e-05
5.04081691189e-07
5.82223460912e-10
4.55649976678e-13
1.26410221378e-15
1e-15
1e-15
1e-15
1e-15
1e-15
1e-15
0.599880774777
0.468191224539
0.324779130841
0.198494967011
0.106066799345
0.0478782963206
0.0175108506886
0.00497918494216
0.00103788922455
0.000128884752981
4.84897578465e-06
8.38359899392e-09
5.51937357591e-12
4.15900157903e-15
1.00003345909e-15
1e-15
1e-15
1e-15
1e-15
1e-15
0.570973543968
0.482419822153
0.382254751103
0.274035473199
0.173166058339
0.0928648410834
0.0401772034804
0.0131604260885
0.00304970941364
0.00043873780031
2.6347136387e-05
1.63784095519e-07
8.54619085017e-11
3.74755419774e-14
1.01094307737e-15
1e-15
1e-15
1e-15
1e-15
1e-15
0.544898248881
0.483081245552
0.416722527175
0.335301222847
0.243158357763
0.15323176431
0.0798790661264
0.0318704153486
0.00878601274857
0.00146972969705
0.000115462111403
1.99859204245e-06
1.08567451964e-09
3.90707943164e-13
1.13239174311e-15
1.00073763973e-15
1.00066309833e-15
1.00053779649e-15
1.00043894047e-15
1.00020966165e-15
0.540480096847
0.487427684346
0.43561048795
0.375080362744
0.299227794079
0.214748550354
0.132585306839
0.0653329441082
0.0227889414967
0.00478982744869
0.000486426287413
1.56896544448e-05
2.00793606977e-08
6.02494176214e-12
2.70614314761e-15
1.00146398238e-15
1.00108489572e-15
1.00102280984e-15
1.00094340984e-15
1.00070098697e-15
0.544299176499
0.496441965728
0.453553628869
0.404433175023
0.342275066278
0.268451011915
0.188699406789
0.111857388478
0.0498457524514
0.0139913937688
0.00197097981333
0.000102674319582
9.53728366379e-07
2.03395478744e-10
5.24658712907e-14
1.01364061866e-15
1.00085283302e-15
1.000848498e-15
1.00083788998e-15
1.00071491381e-15
0.571048749046
0.510581876443
0.471171933059
0.430932472147
0.37917870046
0.314477865065
0.24150003645
0.164453428748
0.0907630257665
0.0344148329266
0.00709303086369
0.000602306794631
1.43137821042e-05
1.01381403285e-08
2.74672017679e-12
1.75669101377e-15
1.00080947152e-15
1.00078942887e-15
1.00076956767e-15
1.00072884066e-15
0.581007776578
0.518033678156
0.486303763636
0.456130421493
0.413527294831
0.35587400157
0.288556312443
0.215749405263
0.140573402237
0.0699462493605
0.0212593819299
0.00297009139608
0.000137354263831
1.18216719892e-06
2.36364431648e-10
8.29813304583e-14
1.02373511142e-15
1.00080947152e-15
1.00100840394e-15
1.0009085048e-15
0.58483614064
0.518285895425
0.494083031753
0.472769787491
0.439453576149
0.389273486933
0.327478913126
0.260750102483
0.191462496844
0.118604597103
0.051032948515
0.0113963460244
0.00095141022394
2.03481742104e-05
2.70985478879e-08
5.89203439549e-12
3.09434249774e-15
1.00228403964e-15
1.00194466953e-15
1.00169851262e-15
0.581254566542
0.516054506724
0.49294770379
0.472767747675
0.442878881843
0.400871745379
0.350040263819
0.293846513921
0.235807231395
0.171450902326
0.0967111356846
0.0322311730461
0.00448361729776
0.000179973093492
1.29198779566e-06
2.72083926542e-10
1.25671076638e-13
1.05623098181e-15
1.00457547584e-15
1.00335851442e-15
0.584874022466
0.50919086712
0.491264392939
0.469754262646
0.439190165103
0.398223524733
0.354717902289
0.31231766192
0.268965014906
0.217801419052
0.14767478095
0.0667267901967
0.0142549496634
0.000973684546518
1.42939412841e-05
1.63381138346e-08
4.78870391415e-12
3.20450601707e-15
1.00993740669e-15
1.0070325907e-15
0.581254566542
0.497989004338
0.485375558956
0.461018387065
0.427446495919
0.387661184103
0.350689351592
0.320273122312
0.290449162013
0.251047634269
0.189772337882
0.105407799778
0.0315324898652
0.00332656219932
8.02252600549e-05
2.72622990494e-07
1.33165951816e-10
5.85674112751e-14
1.03650122157e-15
1.01187040918e-15
0.584413020316
0.483804945649
0.471675096725
0.443959999073
0.406993907602
0.369517628538
0.341958357337
0.3231152627
0.303258104652
0.271543973741
0.217778887592
0.137549982738
0.0522798517902
0.00773060603986
0.000278147149365
1.70862876711e-06
1.29132013197e-09
6.28507690659e-13
1.26311370915e-15
1.0135942215e-15
0.580772918707
0.470065130459
0.450901780821
0.42114085899
0.385455403446
0.354054637475
0.336484324177
0.325823388868
0.311841904352
0.284822813846
0.237323541899
0.162857316296
0.0725978025502
0.0139240340296
0.000704356576503
6.52031387847e-06
6.81891710074e-09
3.68573077788e-12
2.43169901375e-15
1.01293318082e-15
0.582016917893
0.460458355358
0.430635908502
0.402422717196
0.374339135199
0.350783023713
0.337499560543
0.331075771262
0.320680940336
0.297961004296
0.257597934492
0.18893789554
0.0951914551481
0.022793005321
0.00162889411574
2.40467297182e-05
3.6702240187e-08
9.67422242547e-12
2.20166809796e-15
1.00931504193e-15
0.580554635536
0.457891877856
0.429518210249
0.40271004331
0.376890697059
0.35589796577
0.346110380258
0.342128624455
0.334045977604
0.317242267463
0.285802056191
0.22516886401
0.129600982572
0.0397420854834
0.00428890974686
0.000113848370227
4.72553596158e-07
6.24918538693e-12
1.41922762187e-15
1.00395701886e-15
0.560813667595
0.460256613007
0.442704280553
0.421794757748
0.397774320429
0.377049068987
0.366054555037
0.359457121987
0.3515724839
0.339754876518
0.319192266551
0.276146168318
0.189742511565
0.078749733465
0.0134720861753
0.000662239355487
6.76190155183e-06
1.10225257284e-09
3.40045795801e-14
1.0096683306e-15
0.540624821602
0.483228700959
0.487040647407
0.47513593192
0.44578022377
0.413771495822
0.391855130029
0.376767025495
0.36172874004
0.344898884584
0.335012591441
0.324773625703
0.271204082426
0.154983187773
0.0423597267044
0.00374547531391
8.01154028436e-05
1.8000043631e-07
1.31464529924e-12
1.54226991656e-15
0.55375195929
0.538135663086
0.551115941482
0.542409927893
0.503597240471
0.454281685083
0.416205636362
0.388376836213
0.36171927808
0.341088457047
0.333758372014
0.333619198685
0.328828014041
0.248233646468
0.10507155552
0.0164756153664
0.000699282811656
6.00618662724e-06
1.78426637178e-10
1.64129863039e-14
0.597503913408
0.592484546707
0.597907098119
0.587109861536
0.546833848284
0.488627016366
0.43635841332
0.394398312104
0.357585857943
0.328479334171
0.324801067008
0.332667337922
0.332532145622
0.304736556272
0.18361350581
0.0482550058121
0.00378199665086
6.78389198966e-05
8.77431091534e-08
3.85021339011e-12
0.639035643725
0.615446635207
0.61812838175
0.606710985119
0.570947586502
0.511264870213
0.449616376906
0.395395074478
0.347834184169
0.309125318591
0.307447359502
0.323010238383
0.332397293874
0.323391942868
0.237709613783
0.0926479373111
0.0124162900173
0.000402602032181
2.20589604773e-06
1.7573104671e-10
0.649603594786
0.620059657986
0.619854138766
0.614509959501
0.582787511549
0.521861120363
0.4536916921
0.391732666358
0.332365006151
0.299162152883
0.29914127652
0.306438182366
0.325900408563
0.322022560194
0.262269884835
0.131665242683
0.0265605972634
0.00140989607808
1.44797946229e-05
4.01986947819e-09
0.653115382702
0.619694791722
0.61964812541
0.617232425044
0.586549279624
0.523764350489
0.451643942548
0.379242738779
0.312708497185
0.29914127652
0.298824499723
0.29914127652
0.308448078879
0.314817555319
0.273818848306
0.159836122579
0.0426250986367
0.00328864808226
5.13863158501e-05
8.60516668037e-08
0.649808358218
0.616560774726
0.619435220606
0.616326032269
0.584643223652
0.519743270303
0.440298791015
0.358058268345
0.300133858542
0.298831911127
0.29914127652
0.298560114898
0.29914127652
0.305168692796
0.282675592015
0.183811866913
0.0593415605335
0.00609181162041
0.000133183841555
4.85608336724e-07
0.654687136499
0.609422148318
0.616374986494
0.609512354723
0.573586566554
0.503929217183
0.417055099704
0.331610288017
0.299018384479
0.29914127652
0.298230406492
0.29914127652
0.29840823136
0.302473207433
0.297091933302
0.211621430899
0.0794061902952
0.0105207801623
0.000316719645142
1.81177793916e-06
0.650167938788
0.599375413413
0.607817572695
0.595035217079
0.551663469967
0.476477923514
0.386959560177
0.308710273413
0.29914127652
0.298309774802
0.29914127652
0.297733091767
0.29914127652
0.308918278741
0.325493484145
0.248318323812
0.107964016042
0.0185925255809
0.000776257703935
6.04482115991e-06
0.654834942342
0.587253734373
0.594803901386
0.575247992835
0.522995988414
0.44266952968
0.355074231445
0.299322460653
0.298687104338
0.29914127652
0.297636873616
0.29914127652
0.297463018058
0.330503811958
0.363329734555
0.291197865192
0.147956230082
0.0330451433561
0.00190975865754
1.96763127212e-05
0.65105686739
0.574187869337
0.577954939158
0.551317641259
0.490816259956
0.407251455353
0.324887147215
0.298951184562
0.29914127652
0.29782343963
0.29914127652
0.29709523838
0.29914127652
0.357991935796
0.364512134215
0.32269910323
0.192754742686
0.054628909824
0.0043322819453
6.03014312021e-05
0.656191913837
0.559915215506
0.554362466468
0.520069216607
0.455366982931
0.373928351877
0.304247245798
0.29914127652
0.298081543498
0.29914127652
0.297091540195
0.29914127652
0.318107642257
0.364693507744
0.364117247696
0.340932110767
0.229179047173
0.0797814058024
0.00863194604562
0.000169100728076
0.65105686739
0.541672943827
0.520929975867
0.47885530171
0.415652181073
0.344205111667
0.29914127652
0.298490934819
0.29914127652
0.29728748092
0.29914127652
0.297117522879
0.354170380375
0.364117247696
0.364441767178
0.348815548574
0.253047152558
0.104435139877
0.0151403013469
0.000420074882809
0.654644803893
0.514553350431
0.482147202477
0.433361889549
0.377211358022
0.322841091705
0.298847015325
0.29914127652
0.297535265043
0.29914127652
0.297091110676
0.320998308374
0.364117247696
0.364588574246
0.364117247696
0.351606488062
0.26959980914
0.128339382149
0.0240186585504
0.000911170366543
0.650291929513
0.476172419934
0.440882919592
0.395331615144
0.354561661815
0.318583908042
0.29914127652
0.297980137679
0.29914127652
0.297229212752
0.311102272212
0.347829846599
0.363188684886
0.364117247696
0.36420550929
0.354597765308
0.289600975271
0.157593243538
0.0361605224142
0.00175651978749
0.651053990457
0.427735761749
0.404204703572
0.376607976368
0.352816436683
0.325711989713
0.310810663481
0.313479850798
0.318422826037
0.322053119001
0.325096944195
0.335615888854
0.344891454923
0.354787097381
0.360492732676
0.361250307233
0.321921542702
0.199315817728
0.054293510632
0.0033114425894
0.614901785214
0.386124401384
0.383653174266
0.375680718655
0.361981082825
0.347958505497
0.34214045718
0.340148749983
0.333336674699
0.321170422663
0.309458854173
0.303513231792
0.312027183286
0.331026685053
0.352519289348
0.371263527319
0.360461632439
0.250976238304
0.0835672131509
0.00686628611412
0.527295828052
0.384199035292
0.383925983889
0.387230807001
0.379383848366
0.36069844906
0.347681298732
0.338362660882
0.321701852788
0.296887426776
0.27715433111
0.271341024315
0.281427104358
0.307948745604
0.347939439775
0.379543968237
0.38546328994
0.301039770861
0.129713021296
0.015757728883
1e-15
1e-15
1e-15
1e-15
1e-15
1e-15
1e-15
1e-15
1e-15
1e-15
1e-15
1e-15
1e-15
1e-15
1e-15
1e-15
1e-15
1e-15
1e-15
1e-15
1e-15
1e-15
1e-15
1e-15
1e-15
1e-15
1e-15
1e-15
1e-15
1e-15
1e-15
1e-15
1e-15
1e-15
1e-15
1e-15
1e-15
1e-15
1e-15
1e-15
1e-15
1e-15
1e-15
1e-15
1e-15
1e-15
1e-15
1e-15
1e-15
1e-15
1e-15
1e-15
1e-15
1e-15
1e-15
1e-15
1e-15
1e-15
1e-15
1e-15
1e-15
1e-15
1e-15
1e-15
1e-15
1e-15
1e-15
1e-15
1e-15
1e-15
1e-15
1e-15
1e-15
1e-15
1e-15
1e-15
1e-15
1e-15
1e-15
1e-15
1e-15
1e-15
1e-15
1e-15
1e-15
1e-15
1e-15
1e-15
1e-15
1e-15
1e-15
1e-15
1e-15
1e-15
1e-15
1.00000331924e-15
1.00294541348e-15
1e-15
1e-15
1e-15
1e-15
1e-15
1e-15
1e-15
1e-15
1e-15
1e-15
1e-15
1e-15
1e-15
1e-15
1e-15
1e-15
1e-15
1e-15
1e-15
1.00362312234e-15
1e-15
1e-15
1.03337093157e-15
1.00019889185e-15
1.00041101137e-15
1.00047988505e-15
1.00052636486e-15
1.00059303107e-15
1.00068906194e-15
1.00082114698e-15
1.00099092757e-15
1.00114908945e-15
1.00125644294e-15
1.00121996505e-15
1.00090679133e-15
1.0002473896e-15
1e-15
1.00027568554e-15
1.00888483873e-15
1.00361907416e-15
1e-15
1e-15
1.07696873172e-15
1.000749559e-15
1.00113487282e-15
1.0013116457e-15
1.00144999886e-15
1.0016248375e-15
1.00185504455e-15
1.00216009402e-15
1.00248861161e-15
1.00279254251e-15
1.00298788878e-15
1.00285205697e-15
1.00211639599e-15
1.00089194537e-15
1.00027381375e-15
1.00272982602e-15
1.00902686663e-15
1.00137844863e-15
1e-15
1e-15
1.11499496337e-15
1.00085538222e-15
1.00134860359e-15
1.0016042363e-15
1.00181819859e-15
1.00207393543e-15
1.00238471928e-15
1.00273748441e-15
1.00313433472e-15
1.00358017504e-15
1.00379424157e-15
1.00336300044e-15
1.00221059041e-15
1.00119054106e-15
1.00157513514e-15
1.00891203591e-15
1.00902591704e-15
1e-15
1e-15
1e-15
1.15134808404e-15
1.00093033054e-15
1.00146994253e-15
1.00175764425e-15
1.00200338465e-15
1.00227808748e-15
1.00259472534e-15
1.00296954036e-15
1.0034617974e-15
1.00401248092e-15
1.00421033828e-15
1.00348861362e-15
1.00214814659e-15
1.00143612184e-15
1.00278418334e-15
1.01048218118e-15
1.00875931594e-15
1e-15
1e-15
1e-15
1.18516859262e-15
1.00122167469e-15
1.00175004027e-15
1.00203234703e-15
1.00227446847e-15
1.00255446953e-15
1.00288626001e-15
1.00335847977e-15
1.00403172037e-15
1.00472609288e-15
1.00482467366e-15
1.00373924904e-15
1.00217791935e-15
1.00186597343e-15
1.00410212666e-15
1.0105217812e-15
1.00753065692e-15
1e-15
1e-15
1e-15
1.21574490059e-15
1.001885834e-15
1.00241851523e-15
1.00264625672e-15
1.00285223349e-15
1.00318549899e-15
1.00363882887e-15
1.00435622656e-15
1.00543338714e-15
1.00657420148e-15
1.00605862235e-15
1.00440873349e-15
1.00237407109e-15
1.00256213162e-15
1.00552993033e-15
1.01048218118e-15
1.00421955661e-15
1e-15
1.00064330133e-15
1e-15
1.24174976277e-15
1.0032676538e-15
1.00406158196e-15
1.0041615355e-15
1.0043011608e-15
1.00476222425e-15
1.00546437213e-15
1.00646595496e-15
1.00799719369e-15
1.00890768025e-15
1.00797661811e-15
1.00570735947e-15
1.00286210398e-15
1.00351232635e-15
1.00906841426e-15
1.01037261306e-15
1e-15
1e-15
1.00293001153e-15
1e-15
1.26283142588e-15
1.00624185021e-15
1.00716242218e-15
1.00708176026e-15
1.00702342122e-15
1.00740287314e-15
1.00810336185e-15
1.00896728465e-15
1.00931300119e-15
1.00972574479e-15
1.00935643192e-15
1.00700987152e-15
1.0037815393e-15
1.00468423105e-15
1.0124511158e-15
1.00990220159e-15
1e-15
1e-15
1.0038586519e-15
1e-15
1.28268188596e-15
1.01002723751e-15
1.0099372374e-15
1.00936188407e-15
1.00893532284e-15
1.0089453032e-15
1.0092778412e-15
1.01001017235e-15
1.02837499429e-15
1.00981666422e-15
1.00953622298e-15
1.00739725025e-15
1.00496500555e-15
1.0061160822e-15
1.01242675541e-15
1.00863033574e-15
1e-15
1e-15
1.00387411961e-15
1e-15
1.29749478775e-15
1.01116183686e-15
1.01027869566e-15
1.00946196306e-15
1.00892670154e-15
1.00887164972e-15
1.00915194463e-15
1.01062292527e-15
1.02995434031e-15
1.02903097299e-15
1.00928173847e-15
1.00728932755e-15
1.00590442893e-15
1.00808918961e-15
1.01243167581e-15
1.00570989517e-15
1e-15
1e-15
1.0038851561e-15
1e-15
1.32177030796e-15
1.01045206362e-15
1.00927604254e-15
1.00833221962e-15
1.00772560963e-15
1.00763787929e-15
1.00818901603e-15
1.02995271187e-15
1.03088701536e-15
1.02995434031e-15
1.00870599029e-15
1.00662046376e-15
1.00638701312e-15
1.01029975063e-15
1.01215637043e-15
1.0005420143e-15
1e-15
1e-15
1.00395445765e-15
1e-15
1.41198160082e-15
1.00777105451e-15
1.00661846429e-15
1.005854646e-15
1.00535262734e-15
1.00521568899e-15
1.00627004583e-15
1.03075701405e-15
1.02995434031e-15
1.03079472975e-15
1.00783625592e-15
1.00555151951e-15
1.0066306338e-15
1.01154519433e-15
1.01137437744e-15
1e-15
1e-15
1.00036048051e-15
1.0185392099e-15
1e-15
1.60769922987e-15
1.00402389497e-15
1.00351465392e-15
1.003256478e-15
1.00303279832e-15
1.00265348238e-15
1.00538517267e-15
1.02995426202e-15
1.03091491232e-15
1.02995434031e-15
1.02842265823e-15
1.00553344336e-15
1.00691137482e-15
1.01235309608e-15
1.00951624151e-15
1e-15
1e-15
1.00041256595e-15
1.02598653805e-15
1e-15
1.64175211911e-15
1.00081218844e-15
1.00077914888e-15
1.00076577784e-15
1.00074429569e-15
1.0022645508e-15
1.02843435078e-15
1.0308825072e-15
1.02995434031e-15
1.03083708245e-15
1.02995434031e-15
1.00597006137e-15
1.0078218799e-15
1.01431656313e-15
1.00639380987e-15
1e-15
1e-15
1.00045402273e-15
1.02518643781e-15
1e-15
1.64777023092e-15
1.00011809038e-15
1.0001391667e-15
1.00024370666e-15
1.0003256703e-15
1.00196495774e-15
1.03061719726e-15
1.02995434031e-15
1.03101441114e-15
1.02995434031e-15
1.03063654173e-15
1.00894026493e-15
1.0098610296e-15
1.0143442584e-15
1.00291855947e-15
1e-15
1e-15
1.00059681488e-15
1.0260511114e-15
1.00006361187e-15
1.64175211911e-15
1e-15
1e-15
1e-15
1.00010306621e-15
1.0131683615e-15
1.02994630557e-15
1.03110510632e-15
1.02995434031e-15
1.03089306814e-15
1.02995434031e-15
1.02949025545e-15
1.01343203249e-15
1.01394848291e-15
1.00054069373e-15
1e-15
1e-15
1.00091653737e-15
1.02518643781e-15
1e-15
1.64750202483e-15
1.00876553694e-15
1e-15
1e-15
1.00066642349e-15
1.02991676681e-15
1.03097203945e-15
1.02995434031e-15
1.03110410984e-15
1.02995434031e-15
1.03066708342e-15
1.02995434031e-15
1.0192229444e-15
1.01313381918e-15
1e-15
1e-15
1e-15
1.00153564168e-15
1.02609578631e-15
1.00006571476e-15
1.64175211911e-15
2.77682819326e-15
1e-15
1.00441404189e-15
1.01243915311e-15
1.03050656001e-15
1.02994670066e-15
1.03125981127e-15
1.02995434031e-15
1.03091808794e-15
1.02995434031e-15
1.03029336537e-15
1.02431613961e-15
1.01243969133e-15
1e-15
1e-15
1e-15
1.00283162665e-15
1.02518643781e-15
1.00271151371e-15
1.64708281247e-15
6.7095487346e-14
1e-15
1.01539611439e-15
1.02638488469e-15
1.02994753328e-15
1.03124694722e-15
1.02995434031e-15
1.03112612723e-15
1.02995434031e-15
1.03063822639e-15
1.02995434031e-15
1.02646923156e-15
1.01199135296e-15
1e-15
1e-15
1e-15
1.004847631e-15
1.02610691198e-15
1.0130293868e-15
1.64175211911e-15
1.15994134401e-12
1e-15
1.00914862442e-15
1.02935152105e-15
1.03077638364e-15
1.02995434031e-15
1.03125106785e-15
1.02995434031e-15
1.03086192885e-15
1.02995434031e-15
1.03022634104e-15
1.02658334514e-15
1.01133086701e-15
1e-15
1e-15
1.00073715564e-15
1.0067691669e-15
1.02518643781e-15
1.01903522951e-15
1.64671081006e-15
1.62586939602e-11
1e-15
1.00090906343e-15
1.0288752317e-15
1.02995434031e-15
1.03121833382e-15
1.02995434031e-15
1.03101748224e-15
1.02995434031e-15
1.03052848036e-15
1.02995434031e-15
1.02622270761e-15
1.00945545867e-15
1.00069732299e-15
1.00031773322e-15
1.00306057264e-15
1.0083012913e-15
1.02603708662e-15
1.02134346875e-15
1.64175211911e-15
2.17443494846e-10
1e-15
1e-15
1.01802335898e-15
1.03080186886e-15
1.02995434031e-15
1.03119047773e-15
1.02995434031e-15
1.03077650939e-15
1.02995434031e-15
1.0301502214e-15
1.02465293651e-15
1.00643276296e-15
1.0025936571e-15
1.00313277155e-15
1.0043991216e-15
1.00955037863e-15
1.02518643781e-15
1.02255766355e-15
1.64638094112e-15
1.6614053468e-09
1e-15
1e-15
1.00300946432e-15
1.02995434031e-15
1.03122255238e-15
1.02995434031e-15
1.03099413105e-15
1.02995434031e-15
1.03043714539e-15
1.02995434031e-15
1.02146443824e-15
1.00477036251e-15
1.00367552026e-15
1.00427673102e-15
1.00544605616e-15
1.01044793211e-15
1.02592083685e-15
1.02331820681e-15
1.64175211911e-15
1.09272313971e-08
1e-15
1e-15
1e-15
1.03074129044e-15
1.02995434031e-15
1.03113770543e-15
1.02995434031e-15
1.03066473853e-15
1.02995434031e-15
1.03005660704e-15
1.01676787143e-15
1.00468422374e-15
1.00441216631e-15
1.00493327377e-15
1.00611803077e-15
1.01090381226e-15
1.02518643781e-15
1.02354527075e-15
1.64607784958e-15
6.1569954086e-08
1e-15
1e-15
1e-15
1.02995434031e-15
1.03107614654e-15
1.02995434031e-15
1.0308491741e-15
1.02995434031e-15
1.03027632859e-15
1.02995434031e-15
1.01171743689e-15
1.00473880285e-15
1.00471697353e-15
1.0051812335e-15
1.00633460311e-15
1.01081540372e-15
1.02582702138e-15
1.02332130452e-15
1.64175211911e-15
2.73066474409e-07
1e-15
1e-15
1e-15
1.03040831146e-15
1.02995434031e-15
1.03091144258e-15
1.02995434031e-15
1.03043752803e-15
1.02995434031e-15
1.0277437314e-15
1.00778190029e-15
1.00461138641e-15
1.00462544971e-15
1.00504414559e-15
1.00613196357e-15
1.01013465632e-15
1.02518643781e-15
1.02238241788e-15
1.64570971927e-15
9.3166603064e-07
1e-15
1e-15
1e-15
1.02995434031e-15
1.03078903762e-15
1.02995434031e-15
1.03055270351e-15
1.02995434031e-15
1.03003655176e-15
1.01869285778e-15
1.00525638885e-15
1.00411984599e-15
1.00409965004e-15
1.0044660886e-15
1.00545951358e-15
1.00878044619e-15
1.02561277951e-15
1.02106344761e-15
1.64175211911e-15
2.64491575922e-06
1e-15
1e-15
1e-15
1.0239798409e-15
1.02995434031e-15
1.03046055331e-15
1.02995434031e-15
1.03006969679e-15
1.02681847623e-15
1.00897302023e-15
1.0037160744e-15
1.00320610213e-15
1.00315224829e-15
1.00348132595e-15
1.00441117459e-15
1.00720832245e-15
1.02518643781e-15
1.01889189773e-15
1.64520486425e-15
6.41465450206e-06
1e-15
1e-15
1e-15
1.01523688906e-15
1.03016630564e-15
1.02995434031e-15
1.03009114959e-15
1.02928121737e-15
1.01524919691e-15
1.00405099918e-15
1.0023910803e-15
1.00199904826e-15
1.0019484725e-15
1.00222357182e-15
1.00304620692e-15
1.00546062165e-15
1.02536356235e-15
1.01754886209e-15
1.64175211911e-15
1.70201804649e-05
1e-15
1e-15
1e-15
1.00949149195e-15
1.02303623727e-15
1.02776630524e-15
1.02725624577e-15
1.01882837768e-15
1.00553285693e-15
1.00181046115e-15
1.00094136388e-15
1.00062005185e-15
1.00058908202e-15
1.00079500412e-15
1.00149713634e-15
1.00359508402e-15
1.02518643781e-15
1.01743325765e-15
1.64450561788e-15
6.23865966933e-05
1.75867742263e-08
1e-15
1e-15
1.0017482756e-15
1.01341140359e-15
1.01925339985e-15
1.01689803139e-15
1.00659612962e-15
1.00150783389e-15
1.00026793737e-15
1e-15
1e-15
1e-15
1e-15
1.00017387419e-15
1.0016428666e-15
1.02498372943e-15
1.02081911913e-15
1.64175211911e-15
0.000279445899193
5.90830955907e-07
1e-15
)
;

boundaryField
{
    emptyPatch
    {
        type            empty;
    }
    minY
    {
        type            fixedValue;
        value           uniform 1e-15;
    }
    maxY
    {
        type            inletOutlet;
        phi             phi.gas;
        inletValue      nonuniform List<scalar> 0();
        value           nonuniform List<scalar> 0();
    }
    maxX
    {
        type            zeroGradient;
    }
    water_to_heater
    {
        type            zeroGradient;
    }
    procBoundary2to3
    {
        type            processor;
        value           nonuniform List<scalar> 
41
(
0.448466265257
0.394921781291
0.422877185939
0.427064846716
0.390581373426
0.356982687219
0.338149584729
0.3187792523
0.29139147206
0.265100790128
0.251453547428
0.248768687474
0.2594269635
0.291907941385
0.34594385414
0.383774655699
0.385474723233
0.342642955715
0.190149664963
0.0361029553789
1e-15
1.00049676437e-15
1.00601678992e-15
1.00877208852e-15
1.00586475842e-15
1.00117405106e-15
1e-15
1e-15
1e-15
1e-15
1e-15
1e-15
1e-15
1.00009653193e-15
1.0245837057e-15
1.03334937222e-15
1.64356473076e-15
0.00123669399278
7.62582961288e-06
1e-15
9.64240765078e-11
)
;
    }
}


// ************************************************************************* //
