/*--------------------------------*- C++ -*----------------------------------*\
| =========                 |                                                 |
| \\      /  F ield         | OpenFOAM: The Open Source CFD Toolbox           |
|  \\    /   O peration     | Version:  2312                                  |
|   \\  /    A nd           | Website:  www.openfoam.com                      |
|    \\/     M anipulation  |                                                 |
\*---------------------------------------------------------------------------*/
FoamFile
{
    version     2.0;
    format      ascii;
    arch        "LSB;label=32;scalar=64";
    class       volScalarField;
    location    "0.34/water";
    object      alphat.gas;
}
// * * * * * * * * * * * * * * * * * * * * * * * * * * * * * * * * * * * * * //

dimensions      [1 -1 -1 0 0 0 0];

internalField   nonuniform List<scalar> 
1503
(
1.97433084367e-07
8.20589565905e-08
3.51979196874e-08
2.39893072285e-08
9.21232098462e-08
6.79452194022e-07
2.90534697196e-06
6.60788927551e-06
1.00323120137e-05
1.22196624221e-05
1.33684384563e-05
1.39033328724e-05
1.41269301152e-05
1.42069844317e-05
1.42265147083e-05
1.42235396483e-05
1.42142190908e-05
1.42047722581e-05
1.41971945078e-05
1.41918510283e-05
8.99894928446e-07
6.4410245171e-07
3.31841177729e-07
1.75445987269e-07
7.18625575962e-08
5.49096945178e-08
1.18757765909e-07
6.92107317407e-07
3.01310736887e-06
6.92634027982e-06
1.03415067698e-05
1.24298240621e-05
1.34929200128e-05
1.39715036281e-05
1.41607010464e-05
1.4220052179e-05
1.42270398318e-05
1.42164523066e-05
1.42026857534e-05
1.41910478414e-05
1.2372151702e-06
1.07386525122e-06
7.14984764787e-07
3.91753844756e-07
2.17189344199e-07
1.01591547714e-07
7.42942548186e-08
1.76664103069e-07
9.50060528591e-07
3.4168527655e-06
7.07074528552e-06
1.02578630018e-05
1.2318410271e-05
1.34360038341e-05
1.39680411713e-05
1.4188572542e-05
1.42610280068e-05
1.42708827654e-05
1.42588403472e-05
1.42426533117e-05
1.46610362696e-06
1.32999419291e-06
9.79461569733e-07
6.17162434555e-07
3.96651179884e-07
1.89307535087e-07
1.00262654456e-07
9.73501052576e-08
3.65419561662e-07
1.69650384927e-06
4.62173198335e-06
8.06698746308e-06
1.08306806881e-05
1.25998404357e-05
1.35735801659e-05
1.40450795196e-05
1.42418086755e-05
1.43046494398e-05
1.43101493961e-05
1.42959995285e-05
1.63149231924e-06
1.51514108745e-06
1.16880906943e-06
8.01943732581e-07
4.86544930905e-07
3.22831322775e-07
1.38787697456e-07
8.98388804279e-08
1.762841011e-07
8.70517156665e-07
2.99544930085e-06
6.21058304351e-06
9.30836617103e-06
1.15929115701e-05
1.30122323501e-05
1.3785059636e-05
1.41555077918e-05
1.43058087695e-05
1.43489779141e-05
1.43470799332e-05
1.7366575838e-06
1.65023536858e-06
1.31470325407e-06
9.45979217185e-07
6.23297578882e-07
3.57986524122e-07
2.19220664008e-07
9.28394725539e-08
1.05891656093e-07
4.52519728118e-07
1.92418598773e-06
4.72780861003e-06
7.8952006581e-06
1.05283023516e-05
1.23380594871e-05
1.34215719612e-05
1.39962399831e-05
1.42629074268e-05
1.43639484126e-05
1.43860698607e-05
1.80377736607e-06
1.74922806986e-06
1.42399405632e-06
1.05312292148e-06
7.2769717634e-07
4.58677487726e-07
2.42170589091e-07
1.2693431802e-07
7.14412662355e-08
2.27742644851e-07
1.19671191426e-06
3.54794851699e-06
6.63109252133e-06
9.4758716945e-06
1.16031834269e-05
1.29800967111e-05
1.37711326469e-05
1.41744321252e-05
1.4350892606e-05
1.44086858115e-05
1.84527526683e-06
1.80588741006e-06
1.48607210721e-06
1.12002265238e-06
8.01665274798e-07
5.38445810819e-07
3.17185852985e-07
1.58961002543e-07
6.91356252052e-08
1.02561524103e-07
6.73450912572e-07
2.57552540389e-06
5.49615579321e-06
8.46285567703e-06
1.0843982298e-05
1.2486379867e-05
1.34927850998e-05
1.40442585098e-05
1.43095750585e-05
1.4413291885e-05
1.88565911865e-06
1.83876534524e-06
1.51344986405e-06
1.15727989601e-06
8.52990648196e-07
6.00938346291e-07
3.84812552935e-07
2.00675162387e-07
9.77336852334e-08
5.22586573919e-08
2.91943741247e-07
1.70684086754e-06
4.4273677761e-06
7.47839091345e-06
1.00770818619e-05
1.1960651349e-05
1.31751207533e-05
1.38794115719e-05
1.42425358353e-05
1.43999046702e-05
1.87806014911e-06
1.81739107634e-06
1.51170119115e-06
1.1783176023e-06
8.90242943334e-07
6.50189473714e-07
4.42872205205e-07
2.58593442852e-07
1.10605363773e-07
5.14108433466e-08
9.1498118221e-08
8.9662523392e-07
3.33875862317e-06
6.47887542066e-06
9.29814573443e-06
1.14137615279e-05
1.28297516629e-05
1.36874015124e-05
1.41528829916e-05
1.43692222842e-05
1.8687083855e-06
1.81156049102e-06
1.51910944784e-06
1.19737828862e-06
9.19299327996e-07
6.89357299314e-07
4.92418829798e-07
3.13505151692e-07
1.54015533582e-07
5.45049128448e-08
4.02467091948e-08
2.92153642295e-07
2.1597763762e-06
5.39069131691e-06
8.47801678284e-06
1.08422471011e-05
1.24611722739e-05
1.34724565694e-05
1.40428431612e-05
1.43216890786e-05
1.8639646051e-06
1.81368645976e-06
1.52805835095e-06
1.21249198082e-06
9.41398334557e-07
7.20295384291e-07
5.34071305664e-07
3.63444274072e-07
1.99237898422e-07
7.12485021529e-08
3.50096272683e-08
7.22957887035e-08
9.99379891484e-07
4.13987395086e-06
7.5624227312e-06
1.02215761771e-05
1.20607186864e-05
1.32326457965e-05
1.39120796417e-05
1.42568472578e-05
1.84720219395e-06
1.81236173964e-06
1.53195869702e-06
1.22053920578e-06
9.5611407998e-07
7.44296623676e-07
5.68686334276e-07
4.06570333101e-07
2.40817133255e-07
9.23700036559e-08
2.9363524699e-08
3.67266756878e-08
2.77850257293e-07
2.74081831489e-06
6.49349467397e-06
9.50523979855e-06
1.16047075031e-05
1.29580416277e-05
1.37571832462e-05
1.4173239411e-05
1.83719180456e-06
1.80796138363e-06
1.52838601326e-06
1.2204848166e-06
9.63483927015e-07
7.61920925834e-07
5.96880044738e-07
4.4226878633e-07
2.75370254946e-07
1.11007740634e-07
3.24099366389e-08
2.400449771e-08
8.14886937669e-08
1.42275022014e-06
5.25756193208e-06
8.63952214399e-06
1.10577158743e-05
1.26316285767e-05
1.35717304659e-05
1.40685269923e-05
1.82932863157e-06
1.8057000908e-06
1.52466248563e-06
1.21715786614e-06
9.67260952958e-07
7.7630544422e-07
6.20837643375e-07
4.71402769549e-07
3.01988075809e-07
1.25765305049e-07
3.5279479688e-08
1.95928641825e-08
4.43393628749e-08
5.42229097323e-07
3.90620157634e-06
7.57849890229e-06
1.0371191163e-05
1.22302947867e-05
1.33462202428e-05
1.39393956204e-05
1.83334503137e-06
1.80975614203e-06
1.52514155767e-06
1.21703645856e-06
9.73673156612e-07
7.91979882697e-07
6.43417476114e-07
4.95828512425e-07
3.22195613116e-07
1.38252222266e-07
3.87689151353e-08
1.85173411444e-08
2.9140453469e-08
1.96950231598e-07
2.53505670221e-06
6.2768410988e-06
9.5018355831e-06
1.17269532757e-05
1.30679515458e-05
1.37812274904e-05
1.84402074289e-06
1.82100852797e-06
1.53365019221e-06
1.22681340412e-06
9.89336757201e-07
8.13065747736e-07
6.666981511e-07
5.17558412642e-07
3.39521290941e-07
1.52092158974e-07
4.44566050853e-08
1.87513406566e-08
1.86337423233e-08
7.26073372404e-08
1.32742410053e-06
4.78086437993e-06
8.41841725066e-06
1.10924968577e-05
1.2721371647e-05
1.35877798149e-05
1.86670180983e-06
1.84315089742e-06
1.55644408958e-06
1.25379083725e-06
1.01887031594e-06
8.40891082805e-07
6.9093654371e-07
5.37590936851e-07
3.57288207771e-07
1.7087077347e-07
5.44130647513e-08
2.02844188336e-08
1.62431260975e-08
3.61379996162e-08
5.79010247961e-07
3.26715490912e-06
7.12406370996e-06
1.03029348454e-05
1.22901163496e-05
1.33513131027e-05
1.89395050988e-06
1.87389305121e-06
1.60418683277e-06
1.30747065131e-06
1.06393784716e-06
8.73194733308e-07
7.13689854317e-07
5.54989780572e-07
3.77829627265e-07
1.98697306621e-07
6.91657755018e-08
2.29900328201e-08
1.61725656562e-08
2.66427759415e-08
1.98794228581e-07
1.92843875765e-06
5.6664024189e-06
9.34687779805e-06
1.17599488347e-05
1.30632155349e-05
1.97345205241e-06
1.98065395568e-06
1.71989322848e-06
1.39776992903e-06
1.11848445441e-06
9.02851902453e-07
7.29766715545e-07
5.68713218215e-07
4.0345790781e-07
2.33621472296e-07
8.92095529665e-08
2.68021336967e-08
1.66570266697e-08
1.84153449467e-08
6.05139325221e-08
9.4497317934e-07
4.17181374416e-06
8.23316871171e-06
1.11205047911e-05
1.27146217904e-05
2.13415977722e-06
2.16936154223e-06
1.87533845507e-06
1.49000501027e-06
1.16280615497e-06
9.21640311106e-07
7.38898342879e-07
5.82248672076e-07
4.31818975471e-07
2.72577191223e-07
1.14414743725e-07
3.1564663037e-08
1.71549907886e-08
1.83065304148e-08
3.71475575135e-08
3.17868881765e-07
2.7924193753e-06
7.00467914007e-06
1.03710747044e-05
1.22983749318e-05
2.31100911197e-06
2.34591542886e-06
1.9823349083e-06
1.53906184903e-06
1.18565358286e-06
9.32392073007e-07
7.45687538903e-07
5.96467187181e-07
4.61345360798e-07
3.13066459261e-07
1.43264158537e-07
3.74155296133e-08
1.74097107618e-08
1.8142495376e-08
2.50097393463e-08
9.07525152335e-08
1.54677297381e-06
5.71349617814e-06
9.51487904324e-06
1.1808293777e-05
2.38536048868e-06
2.38098414638e-06
1.98552366023e-06
1.54248380929e-06
1.19284368503e-06
9.3804172344e-07
7.51000571276e-07
6.09495050065e-07
4.88619695595e-07
3.51669635516e-07
1.73589752292e-07
4.41970121593e-08
1.76210868037e-08
1.76026605872e-08
2.32845053414e-08
5.71421021632e-08
5.58633796986e-07
4.38364557572e-06
8.55630787599e-06
1.12382787872e-05
2.36197111492e-06
2.34475634753e-06
1.96363632527e-06
1.53654920376e-06
1.19465523016e-06
9.40679638351e-07
7.54487914292e-07
6.19732984931e-07
5.11556664143e-07
3.85271696738e-07
2.01910710676e-07
5.17370445349e-08
1.80286032459e-08
1.70219014377e-08
2.14049740453e-08
3.41888047343e-08
1.78110484755e-07
3.00342737538e-06
7.50747041881e-06
1.05834448358e-05
2.35813565266e-06
2.3350691336e-06
1.95835403268e-06
1.53627448975e-06
1.19634982664e-06
9.42995070174e-07
7.58075105244e-07
6.28953083148e-07
5.31797578447e-07
4.13264506622e-07
2.25377262305e-07
5.94855362142e-08
1.87446482768e-08
1.67144740356e-08
1.98591833137e-08
2.77827792525e-08
9.55048213001e-08
1.70800044581e-06
6.36942444057e-06
9.83535759295e-06
2.36588973942e-06
2.33965724513e-06
1.9626361471e-06
1.53872243601e-06
1.1974174646e-06
9.4466593072e-07
7.62150999177e-07
6.3935328015e-07
5.51097389935e-07
4.359149637e-07
2.4439699914e-07
6.74252270684e-08
1.98619519122e-08
1.67615302402e-08
1.89629743169e-08
2.36261921717e-08
6.43963448869e-08
8.1530472803e-07
5.14679100263e-06
8.98318170454e-06
2.3660543799e-06
2.34839674935e-06
1.97070724347e-06
1.54125165334e-06
1.19757553881e-06
9.4597201675e-07
7.6764726179e-07
6.52258786091e-07
5.69564879415e-07
4.5369410915e-07
2.59211307439e-07
7.52226019458e-08
2.13892597693e-08
1.70723178474e-08
1.8664554053e-08
2.13641785251e-08
4.08398114099e-08
3.6221944591e-07
3.90520995932e-06
8.02815460957e-06
2.36913943418e-06
2.3588477701e-06
1.97764654173e-06
1.5424143754e-06
1.19756772595e-06
9.48272605886e-07
7.75458891261e-07
6.67056624641e-07
5.86046835099e-07
4.66517261772e-07
2.68887478167e-07
8.15352810215e-08
2.29518789622e-08
1.74969428215e-08
1.88088643644e-08
2.04421617888e-08
2.70365925984e-08
1.63131922047e-07
2.71753677195e-06
6.97849088679e-06
2.37188919785e-06
2.36428478885e-06
1.97923709213e-06
1.54030698471e-06
1.19622253285e-06
9.51005247441e-07
7.84769256544e-07
6.81844479754e-07
5.9923543428e-07
4.73608063184e-07
2.72107002102e-07
8.49417381338e-08
2.40601797207e-08
1.78731458966e-08
1.91138559973e-08
2.02471459472e-08
2.34410770354e-08
8.19167718336e-08
1.6529109749e-06
5.84959964835e-06
2.3862699511e-06
2.3717988539e-06
1.98058495203e-06
1.53679841915e-06
1.19335402317e-06
9.53090484382e-07
7.94106211398e-07
6.94711979796e-07
6.08058428247e-07
4.7379768385e-07
2.68097092297e-07
8.48646330755e-08
2.44120326528e-08
1.80807858543e-08
1.93283654709e-08
2.03214141556e-08
2.20400132333e-08
5.22265901985e-08
8.43365768994e-07
4.69739971697e-06
2.3906484677e-06
2.37601281377e-06
1.98027989685e-06
1.53166005314e-06
1.18879502543e-06
9.54007804885e-07
8.02210123248e-07
7.04415929598e-07
6.11751611741e-07
4.66360352525e-07
2.57700112408e-07
8.21727009231e-08
2.41711352142e-08
1.8108803177e-08
1.93997538966e-08
2.03979615098e-08
2.13709551899e-08
3.75072062789e-08
3.72243286814e-07
3.59352358024e-06
2.39238755622e-06
2.37435071007e-06
1.9734082971e-06
1.52285027442e-06
1.18260764537e-06
9.54331063821e-07
8.08545029862e-07
7.10369533047e-07
6.09418955584e-07
4.51565045041e-07
2.43427055261e-07
7.8702286499e-08
2.38590272305e-08
1.81192368834e-08
1.93871640711e-08
2.03135186313e-08
2.08804419744e-08
2.53692589423e-08
1.62678014635e-07
2.56643282331e-06
2.37236899792e-06
2.3568845325e-06
1.95392325194e-06
1.50880235899e-06
1.1768692249e-06
9.56172428773e-07
8.13446942914e-07
7.12191911664e-07
5.99768016117e-07
4.30448617836e-07
2.28021895717e-07
7.58248664493e-08
2.39621670947e-08
1.82258057267e-08
1.93308469617e-08
2.01569505154e-08
2.04475516942e-08
2.25227824525e-08
8.24669896432e-08
1.67018319583e-06
2.33996755711e-06
2.31016441253e-06
1.91290144037e-06
1.4901252768e-06
1.17678531203e-06
9.62468749288e-07
8.1748373673e-07
7.08856525031e-07
5.81799075868e-07
4.05512208454e-07
2.14044461983e-07
7.45818191649e-08
2.4931375826e-08
1.84720390495e-08
1.93072990035e-08
2.00413495045e-08
2.01042017326e-08
2.10538898602e-08
5.16306312564e-08
1.00122171761e-06
2.2644318892e-06
2.21766420588e-06
1.85651423223e-06
1.48427158733e-06
1.19588718498e-06
9.77415110872e-07
8.20281057037e-07
6.97855619959e-07
5.56154877769e-07
3.80744444528e-07
2.03655736012e-07
7.62138461568e-08
2.69966631768e-08
1.88947277518e-08
1.9367282323e-08
1.99982147286e-08
1.99034180241e-08
2.02561953819e-08
3.89217286633e-08
5.69554213929e-07
2.12996605947e-06
2.09750903163e-06
1.83851232411e-06
1.53682577106e-06
1.25058893673e-06
1.00013161009e-06
8.16429482118e-07
6.75478728241e-07
5.26403819031e-07
3.61495252627e-07
2.00718646514e-07
8.16158448304e-08
3.00158806025e-08
1.95300122578e-08
1.94932787616e-08
1.99518790353e-08
1.97586851071e-08
1.98735045323e-08
3.06223186537e-08
3.00620519333e-07
2.0726664559e-06
2.14263681514e-06
1.98214209285e-06
1.68836694529e-06
1.33206442394e-06
1.01250951836e-06
7.9586559453e-07
6.44893437207e-07
5.03222181944e-07
3.54585765016e-07
2.06343196596e-07
8.98678557645e-08
3.38287591373e-08
2.03777007745e-08
1.95965186914e-08
1.98096491433e-08
1.95398181157e-08
1.96781318621e-08
2.22184204199e-08
1.36775506215e-07
2.28040414182e-06
2.49582312037e-06
2.32109865101e-06
1.88321877941e-06
1.38175213801e-06
9.95810463143e-07
7.66193464074e-07
6.20687482276e-07
4.93615890852e-07
3.59878745627e-07
2.19520864879e-07
1.01336422054e-07
3.86476348402e-08
2.14336969793e-08
1.9604185174e-08
1.95632245993e-08
1.92205094489e-08
1.94382308194e-08
2.12247721368e-08
6.21861495827e-08
1.41886536568e-05
1.41872655801e-05
1.41872479813e-05
1.41882854627e-05
1.41900924389e-05
1.41921496679e-05
1.41931692576e-05
1.41899070493e-05
1.4174515117e-05
1.41287783771e-05
1.4012038888e-05
1.37373563038e-05
1.3129473026e-05
1.18699680313e-05
9.50608461753e-06
5.84183260774e-06
2.0932876524e-06
3.4753513992e-07
1.08746050113e-07
4.94577496569e-07
1.41832743778e-05
1.41793831137e-05
1.41784973825e-05
1.41795760801e-05
1.41811554266e-05
1.41803260105e-05
1.41706169344e-05
1.41377694905e-05
1.40517012176e-05
1.38523962007e-05
1.34282586784e-05
1.25915299336e-05
1.10761444183e-05
8.63357395847e-06
5.364573178e-06
2.2251237849e-06
5.3260096832e-07
1.3984414257e-07
2.5551339924e-07
9.8249158025e-07
1.42295729281e-05
1.42216514729e-05
1.42179529806e-05
1.4216195118e-05
1.42123272383e-05
1.41982816315e-05
1.41575778428e-05
1.4057692815e-05
1.38382574929e-05
1.3396035699e-05
1.25735651347e-05
1.11714233355e-05
9.02435507837e-06
6.19089351699e-06
3.22232449828e-06
1.10397268046e-06
2.73828750865e-07
1.72520720324e-07
5.14476368272e-07
1.43481093944e-06
1.42794606565e-05
1.42670180074e-05
1.42584707684e-05
1.42498104038e-05
1.42327991126e-05
1.41914248627e-05
1.40955278548e-05
1.38915219012e-05
1.3491747355e-05
1.27681650672e-05
1.15634446667e-05
9.74100508211e-06
7.29611772842e-06
4.51832322855e-06
2.07378872341e-06
6.49940533914e-07
2.10746459814e-07
2.8379213628e-07
8.50518534284e-07
1.8043978539e-06
1.43312085521e-05
1.43147944025e-05
1.42994029451e-05
1.42789243397e-05
1.42395282759e-05
1.41553111645e-05
1.39812141497e-05
1.36449400308e-05
1.30421550825e-05
1.2043512674e-05
1.05262144915e-05
8.44231008333e-06
5.92233451451e-06
3.37079621454e-06
1.40881619503e-06
4.38973131486e-07
2.22773257531e-07
4.68754694737e-07
1.1915705454e-06
2.07215195402e-06
1.43763201095e-05
1.43571335218e-05
1.43328767869e-05
1.42951470891e-05
1.42236262777e-05
1.40818825311e-05
1.38112927347e-05
1.33267091662e-05
1.25198149983e-05
1.12784694743e-05
9.53001655883e-06
7.30989720521e-06
4.8397433353e-06
2.56191513377e-06
1.00054221468e-06
3.40880735137e-07
2.887566573e-07
7.06948764701e-07
1.48205421814e-06
2.25353585096e-06
1.44109522432e-05
1.43903755494e-05
1.43550638548e-05
1.42943514509e-05
1.41812261922e-05
1.39694269118e-05
1.35899465648e-05
1.2951909051e-05
1.19539036421e-05
1.05117105114e-05
8.60478437039e-06
6.33539178925e-06
3.97925285097e-06
1.9755038519e-06
7.42142570863e-07
3.08201291104e-07
4.04896738979e-07
9.6141857016e-07
1.70526728577e-06
2.37274125109e-06
1.443304924e-05
1.44122908827e-05
1.43634961441e-05
1.42740307062e-05
1.41106794445e-05
1.38191057537e-05
1.33240072064e-05
1.25354764558e-05
1.13666173259e-05
9.76530545083e-06
7.75810473113e-06
5.49675241762e-06
3.28582758854e-06
1.54158009126e-06
5.7959147978e-07
3.22646493657e-07
5.6354912164e-07
1.19873831227e-06
1.86911495335e-06
2.4488412459e-06
1.44417105995e-05
1.44215213933e-05
1.43565867116e-05
1.42328227678e-05
1.40118753585e-05
1.36337316639e-05
1.30209909482e-05
1.20901160807e-05
1.07731270161e-05
9.04994210592e-06
6.98684472095e-06
4.77080305457e-06
2.71969920466e-06
1.21762161361e-06
4.83552511545e-07
3.77227497347e-07
7.48936356764e-07
1.40139567864e-06
1.98743333932e-06
2.49506812654e-06
1.44364020307e-05
1.4416957822e-05
1.43330831553e-05
1.41699328516e-05
1.38854661824e-05
1.34166466407e-05
1.26877637883e-05
1.16255300305e-05
1.0182801437e-05
8.36925901777e-06
6.28356808179e-06
4.13753672463e-06
2.25325705231e-06
9.77052434345e-07
4.37325236621e-07
4.67869458413e-07
9.41873101581e-07
1.56650289134e-06
2.07214301847e-06
2.5204558206e-06
1.44164770717e-05
1.4397464482e-05
1.42918594286e-05
1.4084875399e-05
1.37324488041e-05
1.31711303428e-05
1.23300345997e-05
1.11486220265e-05
9.6008476884e-06
7.72300667881e-06
5.63991727874e-06
3.5812167794e-06
1.86774364219e-06
8.02465049387e-07
4.31270361155e-07
5.88799331931e-07
1.1263943096e-06
1.69865151843e-06
2.13218275549e-06
2.53122263848e-06
1.43809960842e-05
1.43618745541e-05
1.42319429434e-05
1.39774382342e-05
1.35540160988e-05
1.29002043193e-05
1.19523723056e-05
1.06641348623e-05
9.02983965472e-06
7.10918205446e-06
5.04832956168e-06
3.09030026437e-06
1.55055759895e-06
6.81783723901e-07
4.59739054983e-07
7.31234433778e-07
1.29324497277e-06
1.80421781754e-06
2.17414478728e-06
2.53170776869e-06
1.43288599107e-05
1.43092144271e-05
1.41527315503e-05
1.38478319951e-05
1.33516347818e-05
1.26067323707e-05
1.15585329139e-05
1.01754247472e-05
8.47097043536e-06
6.52541269723e-06
4.50285778723e-06
2.65693625512e-06
1.29313491237e-06
6.06215345575e-07
5.18803040814e-07
8.84731997545e-07
1.43946220466e-06
1.88888657164e-06
2.20289292141e-06
2.52500432728e-06
1.42590583141e-05
1.42390008237e-05
1.40542664472e-05
1.36969047229e-05
1.31272205791e-05
1.22936436692e-05
1.11518656279e-05
9.68514543757e-06
7.9249471157e-06
5.96977061516e-06
3.99945524667e-06
2.27624805893e-06
1.0892596802e-06
5.69180164334e-07
6.04447624359e-07
1.03957448747e-06
1.56598581844e-06
1.95717051813e-06
2.22200048207e-06
2.51337003569e-06
1.41707282076e-05
1.41513715825e-05
1.3937364255e-05
1.35262448736e-05
1.28832283524e-05
1.19640722082e-05
1.07355795101e-05
9.19567063052e-06
7.3924837793e-06
5.44112466264e-06
3.53588473468e-06
1.94544609994e-06
9.33795778776e-07
5.65675936203e-07
7.11560286775e-07
1.18859766749e-06
1.67533402632e-06
2.01257964426e-06
2.23407404769e-06
2.49848017213e-06
1.40629059429e-05
1.40469144074e-05
1.38034730128e-05
1.33380326067e-05
1.2622504697e-05
1.16212516207e-05
1.03127273748e-05
8.70917421071e-06
6.87441078089e-06
4.9391304153e-06
3.11134694944e-06
1.66283521945e-06
8.21925147708e-07
5.91727733345e-07
8.33941700187e-07
1.32775395428e-06
1.7702291223e-06
2.05784257302e-06
2.24098786567e-06
2.48156803827e-06
1.39340665763e-05
1.39262259507e-05
1.36542487871e-05
1.31346137525e-05
1.23478678301e-05
1.12681375939e-05
9.88590989436e-06
8.22742375007e-06
6.37150935484e-06
4.4639857219e-06
2.72592633064e-06
1.42686515483e-06
7.48911646003e-07
6.43801999258e-07
9.65092692098e-07
1.45561574513e-06
1.85308638992e-06
2.09507157012e-06
2.24404843395e-06
2.46348830592e-06
1.37816860188e-05
1.37893574287e-05
1.34909756341e-05
1.29179123577e-05
1.20615388891e-05
1.09068985761e-05
9.45686120131e-06
7.75146557346e-06
5.88425084006e-06
4.01610550903e-06
2.37998480493e-06
1.23544509335e-06
7.10248008998e-07
7.18290222819e-07
1.09922116522e-06
1.57242991535e-06
1.92594891816e-06
2.12589624724e-06
2.24411924222e-06
2.44473848892e-06
1.36020306592e-05
1.36353615856e-05
1.33140502071e-05
1.2688916882e-05
1.1764670083e-05
1.05385209673e-05
9.02615167264e-06
7.28141609528e-06
5.41262584644e-06
3.59586955202e-06
2.07366713617e-06
1.08571057899e-06
7.01921003589e-07
8.11242233954e-07
1.23196478423e-06
1.67924331221e-06
1.99054444174e-06
2.15158139649e-06
2.24173332674e-06
2.42547595806e-06
1.33902506098e-05
1.34621432072e-05
1.31227619281e-05
1.24474714514e-05
1.14571857598e-05
1.01627203097e-05
8.59317277706e-06
6.8165027122e-06
4.9561934783e-06
3.20356674634e-06
1.80666393683e-06
9.74254265351e-07
7.20545036512e-07
9.18420011814e-07
1.36060542027e-06
1.77732578917e-06
2.04832980899e-06
2.17312553232e-06
2.2372075411e-06
2.40556362612e-06
1.31411147313e-05
1.3266767322e-05
1.2915465223e-05
1.21924276339e-05
1.11379625955e-05
9.77817135532e-06
8.15642152526e-06
6.35539154505e-06
4.51440840148e-06
2.83959194158e-06
1.57826969611e-06
8.97611120617e-07
7.63252949304e-07
1.03558565915e-06
1.48383739321e-06
1.86788012294e-06
2.10050872973e-06
2.19133561129e-06
2.23075622782e-06
2.38466225705e-06
1.28493869559e-05
1.30458647007e-05
1.26899083275e-05
1.19219587993e-05
1.08051870905e-05
9.3829413589e-06
7.71401992794e-06
5.89677896602e-06
4.08720822829e-06
2.50482942383e-06
1.38761067251e-06
8.5268878934e-07
8.27394636418e-07
1.15885816155e-06
1.60130749407e-06
1.95193487894e-06
2.1480454157e-06
2.20687897653e-06
2.22258976794e-06
2.3623627775e-06
1.25097512759e-05
1.27957339963e-05
1.24433896718e-05
1.16338095903e-05
1.04567437815e-05
8.97503359814e-06
7.26440026645e-06
5.44016375316e-06
3.67571285695e-06
2.20099195253e-06
1.23381453193e-06
8.36921035932e-07
9.10199043155e-07
1.28499272065e-06
1.71315360965e-06
2.03032777508e-06
2.19169123992e-06
2.22031717507e-06
2.2129802872e-06
2.33832740744e-06
1.21165571421e-05
1.25121609111e-05
1.21727807356e-05
1.13255305474e-05
1.00906544182e-05
8.55300074151e-06
6.80703648527e-06
4.98658659011e-06
3.28272342799e-06
1.93060083681e-06
1.11595843119e-06
8.48117307344e-07
1.00857341814e-06
1.41150958009e-06
1.81968279764e-06
2.1037293706e-06
2.23202613536e-06
2.23212666047e-06
2.20228443952e-06
2.3123981966e-06
1.16626276717e-05
1.21903212204e-05
1.18747985376e-05
1.09949145471e-05
9.70560262716e-06
8.11650773358e-06
6.34298560067e-06
4.53902218669e-06
2.91268669453e-06
1.69645134378e-06
1.0328408991e-06
8.84147331795e-07
1.11914147962e-06
1.53667627048e-06
1.92121907112e-06
2.17268431959e-06
2.26950543147e-06
2.24271060304e-06
2.19092797483e-06
2.2846441143e-06
1.11399686278e-05
1.18255802291e-05
1.15467781613e-05
1.06406263262e-05
9.30138532617e-06
7.6666128769e-06
5.87499476572e-06
4.10220883594e-06
2.5710223416e-06
1.50075661821e-06
9.82784490281e-07
9.42651055491e-07
1.23849377901e-06
1.65939475402e-06
2.01807222895e-06
2.23765477672e-06
2.3044998783e-06
2.25240534666e-06
2.17937000808e-06
2.25534648139e-06
1.05434540686e-05
1.14151111303e-05
1.11876441183e-05
1.02627116253e-05
8.87904327516e-06
7.20562049721e-06
5.40713506698e-06
3.68198155052e-06
2.26305804142e-06
1.34441623259e-06
9.63629895197e-07
1.02090798714e-06
1.3635171219e-06
1.77905219943e-06
2.11055481208e-06
2.29905207133e-06
2.33732083268e-06
2.26148455253e-06
2.16806898463e-06
2.22494989167e-06
9.8705187907e-06
1.09584545996e-05
1.07983171664e-05
9.86263986204e-06
8.44059275825e-06
6.73661930134e-06
4.94419997704e-06
3.28442902343e-06
1.99302703174e-06
1.22678343504e-06
9.7289765043e-07
1.11589301675e-06
1.49164893251e-06
1.89537301028e-06
2.19899282507e-06
2.35724889059e-06
2.36823019536e-06
2.27016303325e-06
2.15746518293e-06
2.19401668869e-06
9.12052076435e-06
1.04571068037e-05
1.03813852653e-05
9.44291579557e-06
7.98858906823e-06
6.26304995562e-06
4.49124341479e-06
2.91524451463e-06
1.76351264454e-06
1.14596902396e-06
1.00796909788e-06
1.22445103307e-06
1.62096479451e-06
2.00828580226e-06
2.28371095046e-06
2.41257527581e-06
2.39744191376e-06
2.27860096242e-06
2.14798047512e-06
2.16321296862e-06
8.30129127266e-06
9.91458168111e-06
9.94044519524e-06
9.00656191287e-06
7.52583533935e-06
5.78859985635e-06
4.05348841783e-06
2.57943212131e-06
1.57541959367e-06
1.09939908092e-06
1.06616086315e-06
1.34348820657e-06
1.75010145604e-06
2.11781062592e-06
2.36500238289e-06
2.46531098804e-06
2.42512479172e-06
2.28690762003e-06
2.140022408e-06
2.13332956934e-06
7.42475181504e-06
9.33417627124e-06
9.47889178213e-06
8.55660250693e-06
7.055372638e-06
5.31748278167e-06
3.63654088296e-06
2.28123765916e-06
1.42826284641e-06
1.08427687219e-06
1.14467546912e-06
1.47010993223e-06
1.87808832294e-06
2.22397618016e-06
2.44310569732e-06
2.51568786336e-06
2.4514136056e-06
2.29514292956e-06
2.13397372257e-06
2.10531633606e-06
6.4904139721e-06
8.7143900542e-06
8.99850143851e-06
8.09577912986e-06
6.58078876383e-06
4.85494276812e-06
3.24658958414e-06
2.02402175651e-06
1.32049622432e-06
1.09776687017e-06
1.24050829686e-06
1.60169576422e-06
2.004180729e-06
2.32677963947e-06
2.51820571091e-06
2.56390798408e-06
2.47642886056e-06
2.30331535982e-06
2.13015281259e-06
2.08029554813e-06
5.50323199947e-06
8.05058938873e-06
8.49924972323e-06
7.62661548133e-06
6.10659184338e-06
4.40753591717e-06
2.89013912967e-06
1.80988366642e-06
1.24973725816e-06
1.13694150876e-06
1.35042407627e-06
1.73594331163e-06
2.12776147426e-06
2.42619317465e-06
2.59045939604e-06
2.61017197601e-06
2.50029915115e-06
2.31137684667e-06
2.12874287691e-06
2.05952619445e-06
4.49993432143e-06
7.34003544219e-06
7.9799624915e-06
7.15153349943e-06
5.63826746498e-06
3.98278444258e-06
2.57310844013e-06
1.63918516146e-06
1.21293111443e-06
1.19866493908e-06
1.4710741884e-06
1.87091397787e-06
2.24832585569e-06
2.52220408348e-06
2.66003228308e-06
2.65470373507e-06
2.52317776022e-06
2.31921921614e-06
2.12970266064e-06
2.04430786952e-06
3.51459347972e-06
6.57754060639e-06
7.43860769117e-06
6.67318041966e-06
5.18207123225e-06
3.58822541381e-06
2.29963641585e-06
1.51034095836e-06
1.20655326857e-06
1.27958342199e-06
1.59924270014e-06
2.0050883862e-06
2.36552053849e-06
2.61486144682e-06
2.72712387704e-06
2.69775712092e-06
2.54524701159e-06
2.32668007238e-06
2.13268508406e-06
2.03582958964e-06
2.57327061793e-06
5.75682390877e-06
6.8742525566e-06
6.19538776739e-06
4.74463104865e-06
3.2300962932e-06
2.07115863608e-06
1.42009614202e-06
1.22688726843e-06
1.37628373334e-06
1.73212885564e-06
2.13740365092e-06
2.47917982304e-06
2.70429537932e-06
2.79196213071e-06
2.73959552725e-06
2.56670790245e-06
2.33356483434e-06
2.13699476088e-06
2.03497812692e-06
1.75092312541e-06
4.88929159837e-06
6.28973144837e-06
5.72339813e-06
4.33202933914e-06
2.91217932582e-06
1.88631249241e-06
1.36423999432e-06
1.27032613262e-06
1.48553117824e-06
1.8675279033e-06
2.26721843535e-06
2.58930423165e-06
2.7906857047e-06
2.85476194889e-06
2.78044768005e-06
2.58775356998e-06
2.33966506082e-06
2.14154665613e-06
2.04200837521e-06
1.11496567327e-06
4.00764158654e-06
5.6908669873e-06
)
;

boundaryField
{
    emptyPatch
    {
        type            empty;
    }
    minY
    {
        type            zeroGradient;
    }
    maxY
    {
        type            calculated;
        value           nonuniform List<scalar> 0();
    }
    maxX
    {
        type            compressible::alphatPhaseChangeJayatillekeWallFunction;
        Prt             0.85;
        Cmu             0.09;
        kappa           0.41;
        E               9.8;
        dmdt            uniform 0;
        value           uniform 0;
    }
    water_to_heater
    {
        type            compressible::alphatWallBoilingWallFunction;
        phaseType       vapor;
        relax           constant 1;
        partitioningModel
        {
            type            Lavieville;
            alphaCrit       0.2;
        }
        otherPhase      liquid;
        dmdt            uniform 0;
        dDep            uniform 1e-05;
        qQuenching      uniform 0;
        alphatConv      uniform 0;
        value           nonuniform List<scalar> 
61
(
5.78089166853e-11
1.04304972392e-07
1.04304972392e-07
1.04302973465e-07
1.04302973465e-07
1.04304972392e-07
1.04304972392e-07
8.15444702125e-08
4.80571992746e-08
2.98931647064e-08
2.98931647064e-08
2.75887497966e-08
2.75887497966e-08
2.95696479141e-08
2.95696479141e-08
4.81231980834e-08
5.77229787464e-08
6.19083493888e-08
6.19083493888e-08
5.79839626906e-08
5.79839626906e-08
6.19512583935e-08
6.19512583935e-08
5.79839626906e-08
6.14311107353e-08
5.74757137327e-08
5.74757137327e-08
5.87977031134e-08
5.87977031134e-08
5.72468572301e-08
5.72468572301e-08
3.99308254904e-08
2.76613140895e-08
3.51135211999e-08
3.51135211999e-08
7.80680891845e-08
7.80680891845e-08
1.67505567688e-07
1.67505567688e-07
2.03562589451e-07
2.17199827416e-07
2.04333533707e-07
2.04333533707e-07
2.23597869284e-07
2.23597869284e-07
2.05694493825e-07
2.05694493825e-07
2.24209209915e-07
2.09098264166e-07
2.29901033784e-07
2.29901033784e-07
2.09098264166e-07
2.09098264166e-07
2.23423086508e-07
2.23423086508e-07
2.06165893983e-07
2.09087157204e-07
1.07429744834e-07
1.07429744834e-07
2.17240246721e-08
2.17240246721e-08
)
;
    }
    procBoundary2to3
    {