/*--------------------------------*- C++ -*----------------------------------*\
| =========                 |                                                 |
| \\      /  F ield         | OpenFOAM: The Open Source CFD Toolbox           |
|  \\    /   O peration     | Version:  2312                                  |
|   \\  /    A nd           | Website:  www.openfoam.com                      |
|    \\/     M anipulation  |                                                 |
\*---------------------------------------------------------------------------*/
FoamFile
{
    version     2.0;
    format      ascii;
    arch        "LSB;label=32;scalar=64";
    class       volScalarField;
    location    "0.34/water";
    object      p_rgh;
}
// * * * * * * * * * * * * * * * * * * * * * * * * * * * * * * * * * * * * * //

dimensions      [1 -1 -2 0 0 0 0];

internalField   nonuniform List<scalar> 
1503
(
101508.114056
101504.784559
101504.301474
101503.701227
101503.113298
101502.565822
101502.0613
101501.60429
101501.199814
101500.846576
101500.542967
101500.285999
101500.07106
101499.893692
101499.75016
101499.637375
101499.552801
101499.494417
101499.460701
101499.450483
101491.362412
101496.378861
101499.558327
101500.996837
101501.237029
101501.177516
101501.007622
101500.805934
101500.592966
101500.382758
101500.191044
101500.023761
101499.878994
101499.754328
101499.64889
101499.562826
101499.496655
101499.450928
101499.426156
101499.422711
101479.51188
101486.320593
101492.794464
101496.592754
101498.231438
101498.989753
101499.322874
101499.451643
101499.486332
101499.472597
101499.435317
101499.393086
101499.354779
101499.321938
101499.294515
101499.273218
101499.259597
101499.255617
101499.263317
101499.284399
101470.120966
101477.519281
101486.366085
101492.308423
101495.502634
101497.180411
101497.99514
101498.361007
101498.530618
101498.620564
101498.674699
101498.713345
101498.747911
101498.783203
101498.820027
101498.858353
101498.898634
101498.941935
101498.989698
101499.043219
101461.743323
101468.613799
101478.138168
101485.981995
101491.38982
101494.80933
101496.6663
101497.506157
101497.838331
101497.980375
101498.064044
101498.132249
101498.198493
101498.267852
101498.341392
101498.418335
101498.497713
101498.578947
101498.661881
101498.746371
101455.857413
101461.262673
101469.499667
101477.697326
101484.933527
101490.641143
101494.412697
101496.394228
101497.184936
101497.441378
101497.541929
101497.617782
101497.697815
101497.786501
101497.883988
101497.988585
101498.098076
101498.210408
101498.323885
101498.436904
101450.038894
101453.982953
101460.601349
101468.009877
101475.959085
101483.625611
101489.87377
101493.995571
101496.029866
101496.736761
101496.945117
101497.057751
101497.171167
101497.294729
101497.427648
101497.567756
101497.712341
101497.85869
101498.004333
101498.146845
101442.086979
101445.733869
101451.641887
101458.134
101465.822959
101474.287195
101482.50341
101489.260186
101493.611261
101495.562269
101496.168316
101496.400494
101496.59163
101496.783785
101496.977368
101497.171006
101497.362867
101497.550876
101497.732932
101497.906823
101432.040439
101436.108899
101442.189051
101448.297577
101455.521972
101464.033635
101473.205838
101482.055341
101489.270726
101493.590038
101495.24721
101495.759623
101496.063311
101496.343331
101496.61041
101496.86507
101497.10745
101497.337086
101497.553137
101497.754532
101420.557524
101427.183828
101433.460129
101438.968387
101445.629913
101453.958172
101463.38659
101473.345883
101482.902181
101490.326371
101494.143128
101495.347321
101495.79167
101496.138566
101496.458247
101496.754403
101497.028913
101497.282874
101497.516799
101497.730756
101411.450492
101419.443975
101425.306209
101430.045237
101436.173946
101444.39237
101453.994236
101464.370552
101475.075266
101485.167446
101492.263967
101495.179851
101495.948913
101496.317002
101496.636752
101496.929183
101497.196823
101497.441323
101497.663749
101497.864727
101407.196643
101416.082145
101420.456359
101423.875099
101428.872076
101436.457836
101445.871588
101456.088599
101466.721162
101477.916604
101488.355538
101494.622466
101496.50022
101496.923519
101497.183266
101497.41756
101497.631337
101497.825617
101498.001298
101498.159005
101401.955785
101411.06343
101415.56071
101419.274089
101424.272467
101431.221239
101439.630807
101448.922744
101458.516622
101469.159354
101481.5312
101492.258836
101496.990382
101497.867329
101498.043119
101498.173593
101498.291882
101498.398847
101498.495333
101498.581965
101397.128493
101408.68989
101412.353836
101416.314529
101421.624768
101428.766596
101436.358697
101443.763539
101451.379699
101460.436644
101472.887913
101487.261321
101496.589155
101498.958338
101499.11914
101499.10525
101499.091422
101499.08064
101499.073085
101499.068833
101391.660716
101405.450804
101408.809057
101413.82502
101420.187227
101427.630937
101434.475189
101440.048028
101445.569752
101453.020173
101464.682908
101480.691533
101494.627674
101499.824393
101500.238543
101500.058473
101499.888982
101499.744964
101499.624087
101499.524685
101386.921822
101404.937983
101408.020312
101413.796047
101421.028476
101428.251862
101433.404684
101436.829428
101440.617598
101446.986587
101457.908063
101474.142597
101491.252239
101499.972284
101501.097024
101500.788662
101500.478471
101500.21936
101500.005965
101499.83366
101381.166233
101402.185488
101407.006917
101413.626033
101420.981844
101427.24405
101430.483834
101432.359156
101435.16699
101440.96781
101451.266476
101467.338148
101486.645097
101498.931288
101501.299011
101500.995824
101500.622134
101500.317675
101500.07462
101499.885867
101372.99167
101397.637568
101404.745681
101411.232205
101417.212336
101422.071056
101424.613913
101425.734837
101427.976944
101433.207528
101442.562168
101458.386972
101479.804028
101496.085801
101500.491758
101500.452759
101500.147383
101499.913503
101499.741017
101499.621432
101363.229254
101389.6781
101396.942525
101403.374344
101409.117624
101413.631204
101415.480006
101416.115886
101417.984327
101422.128218
101429.927137
101444.850257
101468.149271
101489.871009
101498.26562
101499.097139
101499.034448
101499.010349
101499.026154
101499.072504
101356.496829
101378.849503
101383.765762
101388.977348
101394.591275
101399.39404
101401.857358
101403.430898
101405.533866
101408.772325
101414.309525
101425.612805
101447.977575
101476.601368
101493.534953
101497.04666
101497.491386
101497.797951
101498.099703
101498.388405
101347.604764
101359.519918
101359.27859
101362.792534
101370.728116
101379.472342
101385.645488
101390.130547
101394.69215
101399.700801
101402.779572
101405.947765
101420.71499
101452.345836
101483.210939
101494.296143
101495.978185
101496.665566
101497.276141
101497.822657
101330.324313
101332.076939
101329.835195
101333.062336
101344.512346
101359.048179
101370.565651
101379.291031
101387.68433
101394.267888
101396.985911
101397.61412
101399.548704
101422.754245
101463.665388
101489.52383
101494.954783
101496.079918
101496.918161
101497.655744
101308.881172
101309.074168
101308.704187
101312.544019
101324.860147
101342.62154
101358.856529
101372.185853
101384.009574
101393.487513
101395.355592
101393.759783
101394.468162
101403.233292
101439.465889
101480.124455
101494.244679
101496.34885
101497.279227
101498.083416
101290.643682
101297.696547
101298.186437
101302.143586
101313.33931
101332.038659
101351.595544
101369.029682
101384.46797
101397.113064
101398.254447
101394.110014
101391.835516
101395.259218
101422.208098
101467.409995
101492.90101
101497.481263
101498.423118
101499.156726
101283.005715
101292.65884
101294.190562
101296.279385
101306.52753
101326.232728
101348.46266
101368.838549
101388.419539
101399.439082
101399.836712
101397.983471
101392.287778
101394.134112
101413.86823
101456.204657
101490.458879
101499.167055
101500.223974
101500.785817
101279.141335
101290.256703
101291.491266
101292.520693
101302.70944
101323.66777
101347.906218
101372.362823
101394.775977
101399.359319
101399.642983
101399.890719
101397.145116
101395.456475
101409.627755
101448.052012
101487.511598
101501.020814
101502.452859
101502.799694
101276.220008
101287.58167
101287.848942
101289.290117
101300.316803
101322.868717
101350.595345
101379.314665
101399.291216
101399.484309
101399.60083
101399.946775
101399.868445
101397.987551
101406.084909
101440.696474
101484.080521
101502.704289
101504.872069
101505.014515
101272.418461
101288.085333
101286.27071
101288.929977
101301.803599
101326.828699
101358.12736
101388.765609
101399.975166
101399.743165
101399.92283
101399.627655
101399.832484
101398.198247
101400.197998
101431.228967
101478.966779
101503.734195
101507.28901
101507.28338
101269.460229
101287.823531
101285.934293
101291.040512
101307.207491
101335.207611
101368.526387
101397.29759
101400.213666
101400.024128
101399.621789
101399.837456
101398.994576
101394.95948
101388.327185
101417.460378
101469.969068
101503.165026
101509.531943
101509.513372
101264.403349
101289.752137
101288.132277
101295.888595
101315.88256
101346.661052
101380.119164
101400.822439
101400.125233
101399.662095
101399.729599
101398.827111
101398.890806
101384.846467
101372.151454
101400.447177
101455.813725
101499.896544
101511.471224
101511.690112
101261.334643
101291.000517
101291.099684
101302.053411
101326.020324
101359.055641
101391.319234
101400.569632
101399.856101
101399.674378
101398.758148
101398.862599
101396.981681
101372.726593
101370.000116
101386.894992
101438.698274
101493.41418
101512.831227
101513.766937
101256.977716
101295.02318
101298.4038
101312.579135
101338.765491
101371.666293
101399.318664
101400.243037
101399.681348
101398.731611
101398.776924
101397.1208
101388.034305
101367.599025
101367.956244
101377.458484
101423.53173
101484.644941
101513.110064
101515.556865
101254.759492
101298.849864
101308.614419
101326.612045
101352.975106
101382.516361
101400.369244
101399.233723
101398.253651
101398.033389
101396.410394
101396.146802
101369.841091
101365.35091
101364.934077
101371.615909
101412.318082
101474.969899
101511.871681
101516.821796
101249.319998
101307.748607
101322.893848
101344.022989
101367.649018
101390.129637
101398.974558
101397.703522
101397.112038
101395.416052
101395.288607
101382.203586
101362.375667
101361.922209
101361.79519
101367.042177
101402.872525
101464.173996
101508.673872
101517.269527
101246.109666
101320.628215
101337.533647
101357.665265
101374.762628
101389.485522
101396.786566
101395.667234
101393.715858
101393.378354
101384.590234
101366.445598
101359.060511
101358.087492
101357.31624
101361.267009
101390.269364
101449.194877
101502.746582
101516.594726
101240.729718
101339.16933
101350.307865
101362.368788
101371.941567
101382.923965
101387.919441
101384.680735
101380.662229
101377.075348
101374.182163
101368.327167
101363.102736
101357.374898
101353.610468
101352.307333
101369.863301
101426.187186
101492.409034
101514.367472
101255.428989
101357.085973
101356.846198
101359.622326
101364.303591
101368.862096
101369.466363
101368.529231
101370.102527
101374.316611
101378.252471
101379.314735
101373.291178
101362.184649
101349.962796
101339.442221
101343.653173
101395.469573
101474.515982
101509.607553
101296.732503
101356.163605
101354.198827
101351.036186
101352.597963
101359.345196
101363.157064
101365.267898
101371.097415
101380.783425
101387.705692
101387.596251
101379.678453
101363.857978
101341.77936
101324.594286
101320.969728
101361.929327
101445.31178
101500.226361
101499.46249
101499.49389
101499.541276
101499.602342
101499.67551
101499.759811
101499.854782
101499.960361
101500.076816
101500.204689
101500.344789
101500.498272
101500.666872
101500.853252
101501.061005
101501.292218
101501.543866
101501.821518
101502.195493
101505.948057
101499.439945
101499.475302
101499.525582
101499.588366
101499.661834
101499.744594
101499.835565
101499.933867
101500.038761
101500.149676
101500.266328
101500.388925
101500.518324
101500.655582
101500.799813
101500.94527
101501.084921
101501.220799
101501.370991
101501.379473
101499.31843
101499.363271
101499.416962
101499.477772
101499.544001
101499.614095
101499.686682
101499.760567
101499.834791
101499.90872
101499.982144
101500.055244
101500.128127
101500.199526
101500.265051
101500.318146
101500.355635
101500.382955
101500.410919
101500.308911
101499.100977
101499.160325
101499.220488
101499.280949
101499.340801
101499.399172
101499.455339
101499.508804
101499.559366
101499.607165
101499.652632
101499.696189
101499.737576
101499.774933
101499.804799
101499.824997
101499.839061
101499.85684
101499.87847
101499.789383
101498.828963
101498.905663
101498.976282
101499.041369
101499.100978
101499.155205
101499.204254
101499.248505
101499.288551
101499.325162
101499.359116
101499.390828
101499.419793
101499.444224
101499.461918
101499.473145
101499.483239
101499.497865
101499.506462
101499.429522
101498.544055
101498.639872
101498.724287
101498.798574
101498.863669
101498.920513
101498.970089
101499.01345
101499.051713
101499.08597
101499.117072
101499.145291
101499.169961
101499.189515
101499.202806
101499.211806
101499.222473
101499.234927
101499.236718
101499.177767
101498.279582
101498.396073
101498.496376
101498.582568
101498.656432
101498.71965
101498.773836
101498.820537
101498.86121
101498.897103
101498.929058
101498.957248
101498.981004
101498.999153
101499.011616
101499.021669
101499.034143
101499.04372
101499.041741
101498.99711
101498.065728
101498.202867
101498.318904
101498.417087
101498.500121
101498.570412
101498.630127
101498.681207
101498.725346
101498.763882
101498.797642
101498.826768
101498.850697
101498.868735
101498.881781
101498.893868
101498.907119
101498.913478
101498.910337
101498.87646
101497.934977
101498.088095
101498.215735
101498.322419
101498.411767
101498.48684
101498.550256
101498.604247
101498.650651
101498.690846
101498.725635
101498.755162
101498.779023
101498.797033
101498.810957
101498.824848
101498.837397
101498.84096
101498.837955
101498.811737
101497.919274
101498.076982
101498.206893
101498.314449
101498.403882
101498.478644
101498.541585
101498.595042
101498.64086
101498.68036
101498.714277
101498.742743
101498.765513
101498.782905
101498.79736
101498.812012
101498.822572
101498.824023
101498.821476
101498.80066
101498.039709
101498.18457
101498.30295
101498.400385
101498.481098
101498.548461
101498.605186
101498.653435
101498.694853
101498.730559
101498.761125
101498.786614
101498.806908
101498.822788
101498.837052
101498.851034
101498.8588
101498.858693
101498.856408
101498.839337
101498.295243
101498.407308
101498.498674
101498.573895
101498.636388
101498.688843
101498.733383
101498.771652
101498.804844
101498.833705
101498.858522
101498.879212
101498.895754
101498.909303
101498.922547
101498.934505
101498.939187
101498.937809
101498.935455
101498.9209
101498.656687
101498.718377
101498.769466
101498.812439
101498.849095
101498.880829
101498.908719
101498.933557
101498.95585
101498.975805
101498.993326
101499.008129
101499.020266
101499.031135
101499.042729
101499.051804
101499.053586
101499.051067
101499.048384
101499.035436
101499.067203
101499.068202
101499.07208
101499.078226
101499.086082
101499.09523
101499.105332
101499.11608
101499.127133
101499.13807
101499.148367
101499.157543
101499.165728
101499.174385
101499.184223
101499.190334
101499.189823
101499.186351
101499.183256
101499.171278
101499.44645
101499.389141
101499.349488
101499.323027
101499.306388
101499.297057
101499.293135
101499.293148
101499.295906
101499.300395
101499.305737
101499.311342
101499.317456
101499.325378
101499.334137
101499.338087
101499.33628
101499.33228
101499.328922
101499.317531
101499.701156
101499.606166
101499.54106
101499.497608
101499.469814
101499.453297
101499.444834
101499.442034
101499.443094
101499.446636
101499.45164
101499.457599
101499.46495
101499.474581
101499.483789
101499.487181
101499.485404
101499.481606
101499.47838
101499.467435
101499.748467
101499.656862
101499.599633
101499.566282
101499.549362
101499.543568
101499.545124
101499.551345
101499.560336
101499.570788
101499.581903
101499.593538
101499.606413
101499.620805
101499.632635
101499.637573
101499.637354
101499.634721
101499.632205
101499.621787
101499.550186
101499.518275
101499.512783
101499.523915
101499.54495
101499.571293
101499.599858
101499.628628
101499.65636
101499.682396
101499.706616
101499.729554
101499.75231
101499.774458
101499.791218
101499.79983
101499.802644
101499.802177
101499.801004
101499.791358
101499.144245
101499.230343
101499.32031
101499.409006
101499.493219
101499.571064
101499.641605
101499.704566
101499.76015
101499.80894
101499.851923
101499.890573
101499.926424
101499.9584
101499.981835
101499.995694
101500.002616
101500.005072
101500.005745
101499.997179
101498.660161
101498.904856
101499.118924
101499.305594
101499.467648
101499.60762
101499.727905
101499.830789
101499.918491
101499.993227
101500.057341
101500.113366
101500.163228
101500.205371
101500.235974
101500.255579
101500.26692
101500.272537
101500.27524
101500.268005
101498.302427
101498.70823
101499.04578
101499.328098
101499.564855
101499.763555
101499.930249
101500.069961
101500.186999
101500.285219
101500.368271
101500.439643
101500.501468
101500.551931
101500.588525
101500.613003
101500.628092
101500.636418
101500.640891
101500.635068
101498.289259
101498.812776
101499.239334
101499.589547
101499.878501
101500.117611
101500.315779
101500.480131
101500.61655
101500.730094
101500.825362
101500.906451
101500.975374
101501.030253
101501.070029
101501.097199
101501.114406
101501.1243
101501.129837
101501.125271
101498.771994
101499.337075
101499.794078
101500.16643
101500.471423
101500.722139
101500.928699
101501.099115
101501.239908
101501.35662
101501.454226
101501.536914
101501.606168
101501.660192
101501.699199
101501.725968
101501.742981
101501.75281
101501.758371
101501.754681
101499.790613
101500.312638
101500.73504
101501.078752
101501.359682
101501.590052
101501.779382
101501.935211
101502.06368
101502.170043
101502.259034
101502.33435
101502.396568
101502.44406
101502.477938
101502.500878
101502.515122
101502.523055
101502.527461
101502.524102
101501.277508
101501.686877
101502.019877
101502.291357
101502.513246
101502.695012
101502.844163
101502.966709
101503.067605
101503.151209
101503.221494
101503.281114
101503.32951
101503.365261
101503.389924
101503.405815
101503.414857
101503.419153
101503.421271
101503.41763
101503.099737
101503.353704
101503.561576
101503.731062
101503.86912
101503.981616
101504.073357
101504.148269
101504.209697
101504.26075
101504.304261
101504.341427
101504.370516
101504.390305
101504.402379
101504.408547
101504.410352
101504.409549
101504.408417
101504.403894
101505.109199
101505.19102
101505.256983
101505.308733
101505.348679
101505.379209
101505.402416
101505.420081
101505.433862
101505.445498
101505.456432
101505.466162
101505.471923
101505.472631
101505.469568
101505.463978
101505.456983
101505.449949
101505.44481
101505.438855
101507.180329
101507.089695
101507.009373
101506.93707
101506.871864
101506.813369
101506.761368
101506.715739
101506.676578
101506.64424
101506.618603
101506.597386
101506.577018
101506.556431
101506.536384
101506.517541
101506.500582
101506.486461
101506.476728
101506.468844
101509.226493
101508.966952
101508.738995
101508.538882
101508.363761
101508.211256
101508.079288
101507.966083
101507.870283
101507.790802
101507.725752
101507.671094
101507.622659
101507.579208
101507.540839
101507.507638
101507.479835
101507.457965
101507.443166
101507.432874
101511.206947
101510.76579
101510.379954
101510.043514
101509.751396
101509.499065
101509.28245
101509.098004
101508.942756
101508.813901
101508.7075
101508.617794
101508.540113
101508.472814
101508.415261
101508.366962
101508.327698
101508.297591
101508.277358
101508.264185
101513.059228
101512.410708
101511.850179
101511.366081
101510.949236
101510.591871
101510.287256
101510.029605
101509.813901
101509.635151
101509.487019
101509.362084
101509.255154
101509.163968
101509.087129
101509.02358
101508.972665
101508.934127
101508.908268
101508.891777
101514.636821
101513.769331
101513.026972
101512.391495
101511.848656
101511.386767
101510.995941
101510.667728
101510.394603
101510.168882
101509.981588
101509.823762
101509.689629
101509.576177
101509.481284
101509.403364
101509.34138
101509.294759
101509.263426
101509.243296
101515.753995
101514.67496
101513.759673
101512.982523
101512.323852
101511.767819
101511.301146
101510.91242
101510.591176
101510.326648
101510.107188
101509.92252
101509.766263
101509.634649
101509.524934
101509.435094
101509.363802
101509.310289
101509.274181
101509.250341
101516.196058
101514.939362
101513.882215
101512.991506
101512.242742
101511.616306
101511.095633
101510.66619
101510.314272
101510.025875
101509.786952
101509.586253
101509.416869
101509.274421
101509.155724
101509.058469
101508.98119
101508.923095
101508.883651
101508.856421
101515.743409
101514.370092
101513.227877
101512.274174
101511.480347
101510.82379
101510.285012
101509.846374
101509.49089
101509.201568
101508.962588
101508.762221
101508.593281
101508.451082
101508.332275
101508.234498
101508.156369
101508.097307
101508.056833
101508.027054
101514.174288
101512.779796
101511.64149
101510.703851
101509.934052
101509.307723
101508.803215
101508.400235
101508.079031
101507.82049
101507.608063
101507.430268
101507.280136
101507.153156
101507.046225
101506.957265
101506.88527
101506.830181
101506.791868
101506.760973
101511.229623
101509.986419
101508.991511
101508.18911
101507.543475
101507.031654
101506.632108
101506.323581
101506.085212
101505.897554
101505.744934
101505.617194
101505.5084
101505.414924
101505.334464
101505.265684
101505.208335
101505.163244
101505.131003
101505.100933
101506.623229
101505.867816
101505.221117
)
;

boundaryField
{
    emptyPatch
    {
        type            empty;
    }
    minY
    {
        type            zeroGradient;
    }
    maxY
    {
        type            prghTotalPressure;
        U               U.gas;
        p0              nonuniform List<scalar> 0();
        value           nonuniform List<scalar> 0();
    }
    maxX
    {
        type            fixedFluxPressure;
        gradient        uniform 0;
        value           nonuniform List<scalar> 
37
(
101505.948057
101501.379473
101500.308911
101499.789383
101499.429522
101499.177767
101498.99711
101498.87646
101498.811737
101498.80066
101498.839337
101498.9209
101499.035436
101499.171278
101499.317531
101499.467435
101499.621787
101499.791358
101499.997179
101500.268005
101500.635068
101501.125271
101501.754681
101502.524102
101503.41763
101504.403894
101505.438855
101506.468844
101507.432874
101508.264185
101508.891777
101509.243296
101509.250341
101508.856421
101508.027054
101506.760973
101505.100933
)
;
    }
    water_to_heater
    {
        type            fixedFluxPressure;
        gradient        uniform 0;
        value           nonuniform List<scalar> 
61
(
101508.114056
101491.362412
101491.362412
101479.51188
101479.51188
101470.120966
101470.120966
101461.743323
101455.857413
101450.038894
101450.038894
101442.086979
101442.086979
101432.040439
101432.040439
101420.557524
101411.450492
101407.196643
101407.196643
101401.955785
101401.955785
101397.128493
101397.128493
101391.660716
101386.921822
101381.166233
101381.166233
101372.99167
101372.99167
101363.229254
101363.229254
101356.496829
101347.604764
101330.324313
101330.324313
101308.881172
101308.881172
101290.643682
101290.643682
101283.005715
101279.141335
101276.220008
101276.220008
101272.418461
101272.418461
101269.460229
101269.460229
101264.403349
101261.334643
101256.977716
101256.977716
101254.759492
101254.759492
101249.319998
101249.319998
101246.109666
101240.729718
101255.428989
101255.428989
101296.732503
101296.732503
)
;
    }
    procBoundary2to3
    {
        type            processor;
        value           nonuniform List<scalar> 
41
(
101317.553034
101331.319788
101316.960288
101315.122095
101332.604654
101347.409886
101354.387901
101361.645719
101372.790543
101383.075509
101386.859988
101385.255318
101377.135065
101358.270294
101329.05385
101308.877469
101307.628048
101328.762674
101405.334917
101482.771181
101504.719295
101504.330085
101504.03925
101503.830555
101503.685654
101503.585891
101503.514382
101503.45855
101503.411054
101503.368131
101503.327936
101503.289672
101503.253295
101503.219749
101503.19114
101503.169228
101503.142431
101500.066315
101500.511642
101504.719295
101500.463274
)
;
    }
}


// ************************************************************************* //
