/*--------------------------------*- C++ -*----------------------------------*\
| =========                 |                                                 |
| \\      /  F ield         | OpenFOAM: The Open Source CFD Toolbox           |
|  \\    /   O peration     | Version:  2312                                  |
|   \\  /    A nd           | Website:  www.openfoam.com                      |
|    \\/     M anipulation  |                                                 |
\*---------------------------------------------------------------------------*/
FoamFile
{
    version     2.0;
    format      ascii;
    arch        "LSB;label=32;scalar=64";
    class       volScalarField;
    location    "0.05/water";
    object      d.gas;
}
// * * * * * * * * * * * * * * * * * * * * * * * * * * * * * * * * * * * * * //

dimensions      [0 1 0 0 0 0 0];

internalField   nonuniform List<scalar> 
750
(
0.00498776523034
0.00498780774721
0.00498783307281
0.00498783194872
0.00498783421083
0.00498783736781
0.00498784027366
0.00498784274798
0.00498784488429
0.00498784674797
0.00498784841089
0.00498784996404
0.00498785142355
0.00498785272698
0.00498785400761
0.00498785551707
0.00498785763189
0.00498786075876
0.00498786457923
0.00498786837357
0.00498859658101
0.0049883963103
0.00498854373664
0.00498854906854
0.00498854225034
0.00498853677296
0.00498853709404
0.00498854418039
0.00498855209793
0.00498855471637
0.00498854973853
0.00498854026043
0.00498853241163
0.00498853217128
0.0049885353106
0.00498853205222
0.00498852509693
0.00498851656114
0.00498850773094
0.00498850533984
0.00498895605893
0.00498874784696
0.00498890336697
0.00498891190589
0.00498890419617
0.00498889633592
0.00498889305943
0.00498890208307
0.00498892248932
0.004988930005
0.00498893001343
0.0049889110787
0.00498890038574
0.00498889852448
0.00498888887753
0.00498888165423
0.00498888251881
0.00498889445178
0.00498890987845
0.00498891614671
0.00498940498994
0.00498920286765
0.00498936053882
0.00498937382713
0.00498936988978
0.00498936498905
0.00498935796886
0.00498935020457
0.00498934842669
0.00498936780357
0.00498940121773
0.00498940634369
0.00498936937146
0.00498935869915
0.00498935569453
0.0049893404756
0.00498933024326
0.00498933306418
0.00498935188392
0.00498936929186
0.00499043293589
0.00499026390593
0.00499041103751
0.00499042358223
0.00499041788906
0.00499042270136
0.00499043161903
0.00499042518227
0.00499043130996
0.00499042424513
0.00499042625866
0.00499042295368
0.00499042070297
0.00499042339196
0.00499041680664
0.00499042035702
0.00499041376627
0.00499041963184
0.00499043191069
0.00499043637497
0.00499115686808
0.00499106497571
0.00499116427863
0.00499115534642
0.00499114514585
0.00499114281985
0.00499114211569
0.00499114756727
0.00499114116812
0.00499114637088
0.0049911339717
0.00499113461472
0.00499112305433
0.00499111666546
0.00499110398455
0.00499109454421
0.00499107825991
0.00499106855391
0.00499106286329
0.00499104038707
0.00499082028597
0.00499078241078
0.00499082250217
0.00499082108621
0.00499082120032
0.00499082266803
0.00499082468305
0.00499082648055
0.00499082735228
0.00499082655794
0.00499082344796
0.00499081859356
0.00499081240099
0.00499080802305
0.00499080956641
0.00499081743598
0.00499083375291
0.00499083916822
0.00499086286451
0.00499088161578
0.00499025830916
0.00499026071282
0.00499026131557
0.00499026136205
0.00499026137118
0.00499026137834
0.00499026138224
0.00499026138035
0.00499026193821
0.00499026355236
0.00499026611653
0.00499026937691
0.00499027317351
0.00499027776534
0.00499028366053
0.00499029085211
0.0049902982932
0.00499030510806
0.00499031354241
0.0049903226851
0.00499063489849
0.00499063728007
0.00499063786687
0.00499063790647
0.00499063790801
0.00499063790947
0.0049906379127
0.00499063791796
0.00499063792727
0.00499063793803
0.00499063794498
0.00499063794876
0.00499063795193
0.00499063800419
0.00499063757669
0.00499063546424
0.00499063121725
0.00499062630343
0.00499062273778
0.00499062059629
0.00499131516382
0.00499131844657
0.00499131924203
0.00499131929227
0.0049913190405
0.00499131838794
0.00499131769841
0.0049913173191
0.00499131744965
0.00499131848063
0.00499132132443
0.00499132659531
0.00499133200002
0.00499133221298
0.00499132485971
0.00499131392308
0.00499130324597
0.00499129257897
0.00499128122484
0.00499127159756
0.00499181319398
0.00499182055903
0.00499182415914
0.00499182274683
0.00499182144964
0.0049918207062
0.00499182082169
0.00499182188794
0.00499182404823
0.00499182808341
0.0049918360722
0.00499185112704
0.00499187326979
0.00499189528787
0.00499190203727
0.00499188489968
0.00499186597817
0.00499185326599
0.00499184112876
0.00499183074229
0.00499202773591
0.00499203018319
0.00499203080024
0.00499203084924
0.00499203085364
0.00499203084821
0.00499203083542
0.00499203081853
0.00499203079909
0.00499203077426
0.00499203153191
0.00499203591229
0.00499204513562
0.00499205513
0.00499207235413
0.00499211124624
0.00499214925017
0.00499212248345
0.00499207613323
0.004992054526
0.0049922812409
0.0049922829752
0.00499228340744
0.00499228342994
0.00499228342148
0.00499228341105
0.00499228340088
0.00499228339251
0.00499228338647
0.00499228338309
0.00499228338361
0.00499228338441
0.00499228337946
0.00499228829438
0.00499229744495
0.0049922980875
0.00499229998789
0.00499230753397
0.00499231130965
0.00499230371366
0.00499211521803
0.0049920578766
0.00499208334172
0.00499209217731
0.00499210249481
0.00499211371608
0.00499212623033
0.00499214041034
0.00499215562211
0.00499216950705
0.00499217892864
0.00499218346848
0.00499218624325
0.0049921906418
0.0049921942137
0.00499218801652
0.00499218206947
0.00499218997387
0.00499220903044
0.00499222113006
0.00499137547442
0.004991255124
0.00499134937123
0.00499137282739
0.00499136604094
0.00499136869179
0.00499136623044
0.00499135806729
0.00499134365655
0.004991325735
0.0049913050513
0.00499131355847
0.00499148783368
0.00499195950906
0.00499216012865
0.00499144985597
0.00499144179371
0.00499143552166
0.0049914247907
0.00499141672727
0.00499045800736
0.00499021398802
0.00499034872995
0.00499042035697
0.00499042455919
0.00499044563486
0.00499046129466
0.00499047515228
0.00499048778867
0.00499050622677
0.00499053053874
0.00499055733542
0.0049905930163
0.00499071809657
0.00499118344537
0.00499186176915
0.00499093595861
0.00499093260345
0.00499091489526
0.00499089428415
0.00499086383117
0.00499090212125
0.00499068972987
0.0049904530339
0.00499044976149
0.00499045396136
0.00499047275105
0.00499052382688
0.00499056200857
0.00499055292073
0.00499053873807
0.00499053330639
0.00499052992546
0.00499055425975
0.00499061275659
0.00499085710729
0.00499134737685
0.00499088505326
0.00499082535525
0.00499078956024
0.00499667961071
0.00499668284515
0.00499668361116
0.00499668351609
0.00499668338032
0.00499668337755
0.00499668345013
0.00499668345812
0.00499671056338
0.00499676700151
0.00499680233513
0.00499681158148
0.00499684588401
0.00499687984406
0.0049968474186
0.00499681518443
0.00499680607173
0.00499678923649
0.00499673829912
0.00499667774414
0.00499933913926
0.00499933964678
0.00499933974455
0.00499933973724
0.00499933973638
0.00499933974895
0.00499933978201
0.00499933985919
0.00499934000849
0.00499934008031
0.00499934013294
0.00499934020209
0.0049993402556
0.00499934023474
0.00499934012354
0.00499934002055
0.00499934008896
0.00499934044877
0.00499934078018
0.00499934092283
0.00499939583281
0.00499939657022
0.004999396736
0.00499939674602
0.00499939675646
0.00499939677619
0.00499939680474
0.00499939684083
0.00499939687305
0.00499939691062
0.00499939693928
0.00499939695624
0.00499939696078
0.00499939695436
0.00499939695042
0.0049993969605
0.00499939699344
0.00499939704034
0.00499939709365
0.00499939714115
0.00499942211134
0.00499942301755
0.00499942323049
0.00499942324306
0.00499942324857
0.00499942325859
0.0049994232707
0.00499942328346
0.00499942329842
0.00499942331345
0.0049994233282
0.00499942334014
0.00499942334835
0.00499942335375
0.00499942335789
0.00499942336426
0.0049994233772
0.00499942340022
0.00499942343097
0.0049994234853
0.0049994443452
0.00499944525247
0.00499944546771
0.00499944548007
0.00499944548313
0.00499944548847
0.00499944549393
0.00499944549899
0.0049994455041
0.00499944551019
0.00499944551688
0.00499944552337
0.0049994455288
0.00499944553305
0.00499944553686
0.00499944554135
0.00499944554806
0.00499944555838
0.00499944557287
0.00499944560107
0.0049994672673
0.00499946815602
0.0049994683685
0.00499946838
0.00499946838007
0.00499946838162
0.00499946838379
0.00499946838609
0.00499946838863
0.00499946839173
0.00499946839558
0.00499946839992
0.00499946840436
0.00499946840873
0.00499946841324
0.00499946841848
0.00499946842514
0.00499946843341
0.00499946844321
0.00499946846208
0.00499949137066
0.0049994922463
0.00499949245626
0.00499949246707
0.00499949246562
0.0049994924652
0.00499949246552
0.00499949246632
0.00499949246753
0.00499949246928
0.00499949247169
0.00499949247472
0.00499949247824
0.00499949248216
0.00499949248657
0.00499949249184
0.00499949249822
0.0049994925055
0.0049994925136
0.00499949252742
0.00499951742382
0.00499951829752
0.00499951850747
0.00499951851836
0.00499951851676
0.00499951851592
0.00499951851542
0.00499951851502
0.00499951851488
0.00499951851532
0.00499951851652
0.00499951851841
0.00499951852088
0.004999518524
0.00499951852798
0.00499951853288
0.00499951853868
0.0049995185453
0.00499951855215
0.00499951856381
0.00499953800602
0.00499953866919
0.00499953882847
0.00499953883666
0.00499953883501
0.00499953883334
0.00499953883115
0.00499953882861
0.00499953882636
0.00499953882476
0.00499953882371
0.00499953882308
0.00499953882282
0.00499953882299
0.00499953882351
0.00499953882402
0.00499953882429
0.00499953882417
0.00499953882333
0.00499953882546
0.0049995585263
0.00499955881471
0.00499955888358
0.00499955888637
0.00499955888455
0.00499955888242
0.00499955888
0.00499955887768
0.00499955887565
0.00499955887378
0.00499955887196
0.00499955887011
0.00499955886816
0.00499955886601
0.00499955886349
0.00499955886051
0.00499955885707
0.00499955885306
0.00499955884796
0.00499955884489
0.00499957896751
0.004999579149
0.00499957919197
0.00499957919323
0.0049995791917
0.00499957919025
0.00499957918897
0.00499957918789
0.00499957918691
0.004999579186
0.00499957918517
0.00499957918441
0.00499957918363
0.00499957918271
0.00499957918163
0.00499957918044
0.00499957917918
0.00499957917794
0.0049995791764
0.00499957917365
0.00499959886887
0.00499959905032
0.00499959909337
0.00499959909484
0.00499959909363
0.00499959909262
0.00499959909177
0.004999599091
0.00499959909022
0.00499959908945
0.00499959908877
0.00499959908819
0.00499959908769
0.00499959908728
0.00499959908694
0.00499959908666
0.00499959908642
0.00499959908627
0.00499959908608
0.00499959908456
0.00499961770689
0.00499961788833
0.00499961793146
0.00499961793304
0.00499961793196
0.00499961793107
0.00499961793034
0.00499961792964
0.0049996179289
0.00499961792818
0.00499961792755
0.00499961792704
0.00499961792663
0.00499961792629
0.00499961792604
0.00499961792586
0.00499961792577
0.00499961792585
0.00499961792623
0.00499961792641
0.00499963491351
0.00499963509495
0.00499963513823
0.00499963513998
0.00499963513903
0.0049996351382
0.0049996351375
0.00499963513684
0.00499963513615
0.00499963513544
0.00499963513479
0.00499963513424
0.00499963513378
0.0049996351334
0.0049996351331
0.00499963513293
0.00499963513295
0.00499963513333
0.00499963513444
0.00499963513766
0.00499964971202
0.0049996500016
0.00499965007126
0.00499965007433
0.00499965007269
0.0049996500715
0.00499965007072
0.00499965007006
0.00499965006937
0.00499965006871
0.00499965006815
0.00499965006773
0.00499965006746
0.0049996500673
0.00499965006725
0.00499965006738
0.00499965006784
0.00499965006888
0.00499965007117
0.00499965007899
0.00499966222024
0.00499966256806
0.00499966265194
0.00499966265668
0.00499966265594
0.00499966265479
0.00499966265355
0.00499966265264
0.00499966265203
0.00499966265154
0.00499966265113
0.00499966265085
0.00499966265067
0.00499966265051
0.00499966265028
0.0049996626501
0.00499966265033
0.00499966265133
0.00499966265434
0.00499966266582
0.00499967272649
0.00499967323114
0.00499967335294
0.00499967336007
0.00499967335952
0.00499967335862
0.00499967335744
0.0049996733564
0.00499967335571
0.0049996733553
0.00499967335512
0.00499967335514
0.00499967335528
0.00499967335534
0.00499967335496
0.00499967335366
0.00499967335163
0.00499967335111
0.0049996733531
0.00499967336677
0.00499968301663
0.00499968340725
0.00499968350199
0.00499968350752
0.00499968350689
0.00499968350621
0.0049996835054
0.00499968350449
0.00499968350359
0.00499968350278
0.00499968350213
0.00499968350172
0.00499968350149
0.00499968350123
0.00499968350045
0.00499968349792
0.00499968349035
0.00499968347653
0.00499968347503
0.00499968349398
0.00499969192369
0.0049996923131
0.00499969240726
0.00499969241259
0.0049996924119
0.00499969241113
0.00499969241035
0.00499969240954
0.00499969240862
0.00499969240766
0.00499969240692
0.00499969240658
0.00499969240669
0.00499969240735
0.00499969240896
0.00499969241224
0.00499969241662
0.00499969252413
0.0049996929796
0.00499969327555
0.00499969987716
0.00499970050197
0.00499970065295
0.00499970066159
0.00499970066061
0.00499970065937
0.00499970065766
0.0049997006558
0.00499970065419
0.00499970065304
0.00499970065237
0.00499970065226
0.00499970065296
0.00499970065468
0.00499970065801
0.00499970066452
0.0049997006773
0.00499970069571
0.00499970070567
0.00499970069561
0.00498788884046
0.004988514334
0.00498890401862
0.00498941377817
0.0049903239381
0.00499091039304
0.00499082017555
0.0049903719686
0.00499060346527
0.00499122865727
)
;

boundaryField
{
    emptyPatch
    {
        type            empty;
    }
    minY
    {
        type            calculated;
        value           nonuniform List<scalar> 
21
(
0.00498767399018
0.00498771091695
0.00498772718772
0.00498771730389
0.00498771180925
0.00498770832683
0.00498770545945
0.0049877028506
0.00498770043838
0.0049876981514
0.00498769594136
0.00498769382796
0.00498769186707
0.00498768990802
0.00498768789409
0.00498768605191
0.00498768484517
0.00498768516746
0.00498768726085
0.00498768973073
0.00498770245661
)
;
    }
    maxY
    {
        type            calculated;
        value           nonuniform List<scalar> 0();
    }
    maxX
    {
        type            calculated;
        value           nonuniform List<scalar> 0();
    }
    water_to_heater
    {
        type            calculated;
        value           nonuniform List<scalar> 
59
(
0.00498776522806
0.00498848406788
0.00498863407916
0.00498887797844
0.00498903412343
0.00498936543904
0.00498952359257
0.00499043291908
0.00499115684738
0.00499074399642
0.00499084567505
0.00499023351875
0.0049902830512
0.00499062248565
0.00499067203013
0.00499131512453
0.00499181314885
0.00499199014898
0.00499204021687
0.00499225908099
0.00499230333856
0.00499209315414
0.0049921811373
0.00499137542761
0.00499045795719
0.00499072266704
0.00499091080723
0.00499664950748
0.00499670955089
0.00499933078066
0.00499936409158
0.00499939580048
0.00499942207683
0.0049994157605
0.00499945382658
0.00499944829672
0.00499948616536
0.00499948189892
0.00499951963324
0.00499951738343
0.00499953796709
0.00499953677436
0.0049995657311
0.00499956597323
0.00499959189423
0.00499959235387
0.00499961827437
0.00499961767085
0.00499963487637
0.00499962793454
0.00499965691826
0.00499964703472
0.00499967732214
0.00499966440409
0.0049996975096
0.00499968297029
0.00499969187589
0.00499967369995
0.00499970853252
)
;
    }
    procBoundary0to1
    {
        type            processor;
        value           nonuniform List<scalar> 
38
(
0.00499177869463
0.00499197253746
0.00499223260572
0.0049922509313
0.00499136228995
0.00499082864184
0.00499075150483
0.00499645599633
0.00499934086843
0.00499939742538
0.00499942388642
0.00499944582347
0.00499946860605
0.00499949262806
0.00499951866384
0.00499953887675
0.00499955886923
0.00499957917178
0.00499959907878
0.0049996179315
0.00499963516666
0.00499965014598
0.0049996627645
0.00499967348927
0.00499968369591
0.00499969320902
0.00499970056221
0.00498790288249
0.00498849870149
0.00498889175454
0.00498940045616
0.00499019635911
0.00499080905677
0.00499080496868
0.00499044821271
0.0049905595361
0.00499117298459
0.00499177869463
)
;
    }
    procBoundary0to3
    {
        type            processor;
        value           nonuniform List<scalar> 
20
(
0.00499970612601
0.00499970641572
0.00499970648534
0.00499970648907
0.00499970648827
0.0049997064868
0.0049997064851
0.00499970648346
0.00499970648167
0.00499970647964
0.00499970647765
0.00499970647605
0.00499970647534
0.00499970647552
0.00499970647666
0.00499970647934
0.00499970648292
0.00499970648607
0.0049997064879
0.00499970648143
)
;
    }
}


// ************************************************************************* //
