/*--------------------------------*- C++ -*----------------------------------*\
| =========                 |                                                 |
| \\      /  F ield         | OpenFOAM: The Open Source CFD Toolbox           |
|  \\    /   O peration     | Version:  2312                                  |
|   \\  /    A nd           | Website:  www.openfoam.com                      |
|    \\/     M anipulation  |                                                 |
\*---------------------------------------------------------------------------*/
FoamFile
{
    version     2.0;
    format      ascii;
    arch        "LSB;label=32;scalar=64";
    class       surfaceScalarField;
    location    "0.84/water";
    object      phi;
}
// * * * * * * * * * * * * * * * * * * * * * * * * * * * * * * * * * * * * * //

dimensions      [0 3 -1 0 0 0 0];

oriented        oriented;

internalField   nonuniform List<scalar> 
11810
(
7.91385514441e-08
1.98674820105e-07
5.44733037995e-08
1.50089444839e-07
4.03868445581e-08
1.47777139199e-07
3.12895818854e-08
1.49730637427e-07
2.4910773956e-08
1.54004053532e-07
2.04084080413e-08
1.59425630882e-07
1.72018227741e-08
1.65784556061e-07
1.48148046545e-08
1.72997612245e-07
1.28390426884e-08
1.81015795447e-07
1.10554179728e-08
1.89669619745e-07
9.40485187124e-09
1.98819539979e-07
7.89011884721e-09
2.08425373248e-07
6.5224726622e-09
2.18501230209e-07
5.30680899495e-09
2.29077315312e-07
4.23892983547e-09
2.40187615903e-07
3.30714167014e-09
2.51865874111e-07
2.49482610395e-09
2.64144442974e-07
1.78303773019e-09
2.77054539153e-07
1.15197969294e-09
2.90627233618e-07
3.04895853702e-07
5.80330707324e-10
1.14916616421e-07
2.53045765013e-07
7.90461070916e-08
1.78283055924e-07
6.17208330063e-08
1.63571170311e-07
4.98378385273e-08
1.61386425234e-07
4.07301064719e-08
1.63081037142e-07
3.37697324861e-08
1.66382516088e-07
2.83910524349e-08
1.71162858811e-07
2.42280279e-08
1.77160617694e-07
2.10314135956e-08
1.84212399468e-07
1.8440043946e-08
1.9226099921e-07
1.61616769056e-08
2.010978987e-07
1.40498222722e-08
2.10537234386e-07
1.20554970367e-08
2.20495547146e-07
1.01744763727e-08
2.30958339701e-07
8.41653243446e-09
2.4194555104e-07
6.79026218326e-09
2.5349214569e-07
5.29652276549e-09
2.65638173404e-07
3.92686375662e-09
2.78424197252e-07
2.66375197311e-09
2.91890335999e-07
3.06078705186e-07
1.48089802245e-09
1.17961198664e-07
2.98024660821e-07
7.64722069107e-08
2.09975317524e-07
5.69952305529e-08
1.81018399528e-07
4.57558104313e-08
1.72283756559e-07
3.7945792169e-08
1.7084041956e-07
3.22850255851e-08
1.72036471578e-07
2.82336642278e-08
1.75213325168e-07
2.50716950176e-08
1.80322491063e-07
2.24226156636e-08
1.86861454764e-07
2.01470019225e-08
1.94536623688e-07
1.8093808137e-08
2.0315108227e-07
1.61476748513e-08
2.12483375241e-07
1.4245262537e-08
2.2239795024e-07
1.23646378428e-08
2.32838969163e-07
1.05093793457e-08
2.43800800911e-07
8.69435191239e-09
2.553071752e-07
6.9347522299e-09
2.67397764574e-07
5.23920340972e-09
2.80119745742e-07
3.6060154526e-09
2.93523514831e-07
3.07662575481e-07
2.02214328793e-09
1.38722028136e-07
3.16652014157e-07
9.17583365278e-08
2.43267435291e-07
6.56527283659e-08
2.03812534861e-07
4.93745890148e-08
1.87930244188e-07
3.83724438333e-08
1.81742566548e-07
3.07671920891e-08
1.79627689839e-07
2.58714170572e-08
1.80107130355e-07
2.28259397254e-08
1.83367694343e-07
2.06489376506e-08
1.89038406502e-07
1.88491862159e-08
1.96336386913e-07
1.72092693651e-08
2.04790991912e-07
1.56202222482e-08
2.14072432457e-07
1.40249073845e-08
2.23993257871e-07
1.23951612778e-08
2.34468721241e-07
1.07232540863e-08
2.45472700299e-07
9.01558166783e-09
2.57014850557e-07
7.2854351103e-09
2.69127903012e-07
5.54611906288e-09
2.81859061766e-07
3.80549551409e-09
2.95264129628e-07
3.09404748932e-07
2.06332031358e-09
1.49728191286e-07
3.2107673144e-07
1.08565041227e-07
2.68097301368e-07
7.86435130852e-08
2.28881852909e-07
5.75427344162e-08
2.07896097799e-07
4.21983214478e-08
1.96873094953e-07
3.13449088132e-08
1.90447390443e-07
2.43012830623e-08
1.87145762884e-07
2.03421616538e-08
1.87326049959e-07
1.81032962667e-08
1.91277130114e-07
1.65339143626e-08
1.97905769645e-07
1.51854260639e-08
2.06139468019e-07
1.38897322676e-08
2.15368136849e-07
1.25773238402e-08
2.25305656228e-07
1.12133071364e-08
2.35832744816e-07
9.78042985953e-09
2.46905568827e-07
8.27426700791e-09
2.58521017005e-07
6.69945385399e-09
2.70702707899e-07
5.06522764673e-09
2.8349328878e-07
3.38069093892e-09
2.96948657451e-07
3.11133676452e-07
1.65176255861e-09
1.53065158206e-07
3.21385383084e-07
1.20247841638e-07
2.83850258557e-07
9.15693079553e-08
2.51718948304e-07
6.84879531592e-08
2.29340371248e-07
4.95574611041e-08
2.15426745948e-07
3.47407669828e-08
2.05191938186e-07
2.43394361209e-08
1.97534674828e-07
1.82999226953e-08
1.93363435077e-07
1.53960598677e-08
1.9418060942e-07
1.38573728574e-08
1.99444428122e-07
1.27216284319e-08
2.07275202487e-07
1.16666237459e-08
2.16423155901e-07
1.05962152929e-08
2.26376057634e-07
9.46958291538e-09
2.36959385933e-07
8.26459451759e-09
2.48110549694e-07
6.97023715953e-09
2.59815379268e-07
5.58411069091e-09
2.72088826649e-07
4.11017623259e-09
2.84967224667e-07
2.55560177159e-09
2.9850322368e-07
3.12761091254e-07
9.28186534858e-10
1.5098141643e-07
3.24463395412e-07
1.23513997696e-07
2.94351821554e-07
1.00001506764e-07
2.69013244545e-07
7.79885621751e-08
2.4939849058e-07
5.82093003119e-08
2.34683612325e-07
4.06832262542e-08
2.22597706223e-07
2.67089768402e-08
2.11483552665e-07
1.75104787911e-08
2.02556591353e-07
1.29954912105e-08
1.98694485545e-07
1.11537042071e-08
2.01286068493e-07
1.01668303827e-08
2.08262052536e-07
9.33390456299e-09
2.17256097216e-07
8.48509945081e-09
2.27224853524e-07
7.57156672767e-09
2.37872928863e-07
6.57051620007e-09
2.4911159213e-07
5.4694779479e-09
2.60916423482e-07
4.26321512641e-09
2.73295081926e-07
2.95277953159e-09
2.86277662982e-07
1.5438661846e-09
2.99912128929e-07
3.14260045338e-07
4.49130814158e-11
1.50239573342e-07
3.29108539955e-07
1.25479769253e-07
3.02647532285e-07
1.0561641315e-07
2.82726556143e-07
8.57952810915e-08
2.67166106378e-07
6.67013190894e-08
2.53170734716e-07
4.84068755744e-08
2.40729657354e-07
3.18836842074e-08
2.27964705729e-07
1.91320802473e-08
2.15296884329e-07
1.17887029427e-08
2.06034889793e-07
8.89775251174e-09
2.04176474253e-07
7.87409412915e-09
2.09285647056e-07
7.22602305608e-09
2.17904186522e-07
6.56725404595e-09
2.27883617113e-07
5.82824049738e-09
2.38611954703e-07
4.98800861208e-09
2.49951817362e-07
4.0368760371e-09
2.6186756347e-07
2.97090902222e-09
2.74361042063e-07
1.79142662318e-09
2.87457148811e-07
5.0446852207e-10
3.01199079762e-07
3.15644625499e-07
-8.80110097076e-10
1.51817997285e-07
3.31651338244e-07
1.30188620161e-07
3.0780513532e-07
1.12212488991e-07
2.94482783005e-07
9.4042537831e-08
2.83221812112e-07
7.54007405043e-08
2.71162894637e-07
5.7459520678e-08
2.58485210416e-07
3.9991648278e-08
2.45378494713e-07
2.43811629655e-08
2.30889643564e-07
1.32832486791e-08
2.17126663125e-07
8.0003298369e-09
2.09457786903e-07
6.34358312607e-09
2.10942141061e-07
5.71818155203e-09
2.18529595526e-07
5.15891065839e-09
2.28442878419e-07
4.50769505525e-09
2.39263183829e-07
3.7426416333e-09
2.5071686252e-07
2.85949378515e-09
2.62750719642e-07
1.85873270267e-09
2.75361795904e-07
7.44572655387e-10
2.88571313609e-07
-4.74998525389e-10
3.02418643563e-07
3.16957382927e-07
-1.7877528213e-09
1.54355779504e-07
3.3222444119e-07
1.34918768034e-07
3.10430027622e-07
1.19371656224e-07
3.03554378511e-07
1.03277820437e-07
2.97048576365e-07
8.59768783742e-08
2.87734516281e-07
6.85514065875e-08
2.75687625883e-07
5.11841739488e-08
2.62674030348e-07
3.39436614308e-08
2.4810303352e-07
1.90996424761e-08
2.31959142356e-07
9.90851785228e-09
2.18644809618e-07
6.30976862827e-09
2.1453999634e-07
5.21110058095e-09
2.1962820945e-07
4.52937097995e-09
2.29124601321e-07
3.79295874447e-09
2.39999612509e-07
2.95367128323e-09
2.51556143493e-07
2.00902224101e-09
2.63695378819e-07
9.63015270003e-10
2.76407796352e-07
-1.77430391711e-10
2.89711764866e-07
-1.40225183465e-09
3.03643458505e-07
3.18253548951e-07
-2.69841413202e-09
1.54822597892e-07
3.3176416049e-07
1.3729898457e-07
3.11232917845e-07
1.25176444404e-07
3.09171329838e-07
1.12960789815e-07
3.06948708046e-07
9.85340629607e-08
3.01398887489e-07
8.21072992556e-08
2.91874810162e-07
6.49442895564e-08
2.79757433151e-07
4.69727354242e-08
2.66041877303e-07
2.93260064169e-08
2.49589256276e-07
1.55900799892e-08
2.32372834971e-07
8.39153081091e-09
2.21736024622e-07
5.83343288755e-09
2.22185967839e-07
4.6415528781e-09
2.30316457094e-07
3.58051172314e-09
2.41060672143e-07
2.48143921307e-09
2.52655208687e-07
1.329120769e-09
2.64847708705e-07
1.2449697385e-10
2.77612413647e-07
-1.12708234092e-09
2.90963351363e-07
-2.41755539403e-09
3.04933925118e-07
3.19572930309e-07
-3.73693122605e-09
1.55000755013e-07
3.32489271816e-07
1.38192075763e-07
3.11632118344e-07
1.28612193927e-07
3.12302972124e-07
1.19874208062e-07
3.13341792451e-07
1.08833487623e-07
3.11636491116e-07
9.45751510592e-08
3.05864644937e-07
7.78234605573e-08
2.96412908812e-07
5.97655968532e-08
2.8405731394e-07
4.09720708165e-08
2.68359181391e-07
2.3827855816e-08
2.49503680299e-07
1.22812392507e-08
2.33276952991e-07
7.07567595752e-09
2.27390309256e-07
4.87665018316e-09
2.32515381465e-07
3.27734649178e-09
2.42659996048e-07
1.78749885472e-09
2.54145051113e-07
3.4411659639e-10
2.66291104384e-07
-1.06683174567e-09
2.79023356357e-07
-2.44908858796e-09
2.92345616286e-07
-3.80411437875e-09
3.06288945446e-07
3.20899600321e-07
-5.13077822291e-09
1.51161579242e-07
3.37060243305e-07
1.35196238846e-07
3.12426145272e-07
1.27559692985e-07
3.14112041741e-07
1.21322088398e-07
3.17459249628e-07
1.12689850799e-07
3.19529753885e-07
1.00284492622e-07
3.18015860973e-07
8.43978542432e-08
3.1220421305e-07
6.68239069561e-08
3.01586383337e-07
4.85122223424e-08
2.86643563865e-07
3.04878140688e-08
2.67510338262e-07
1.58356085857e-08
2.47919640873e-07
7.51321585218e-09
2.35709741858e-07
3.95797454667e-09
2.3607024178e-07
1.78717607651e-09
2.44830806601e-07
-4.65069240156e-11
2.55978727818e-07
-1.69762049735e-09
2.67942232633e-07
-3.2123933346e-09
2.80538123338e-07
-4.61575459769e-09
2.93748987122e-07
-5.92438953665e-09
3.07597574819e-07
3.22125661831e-07
-7.15044312834e-09
1.49037806865e-07
3.4473098925e-07
1.32672239379e-07
3.14249926092e-07
1.24670589871e-07
3.16665476751e-07
1.18672675183e-07
3.21522926306e-07
1.10362903412e-07
3.27164280919e-07
9.82358525734e-08
3.29903074885e-07
8.29289606307e-08
3.27416063617e-07
6.60056483174e-08
3.18462306117e-07
4.87202555334e-08
3.03898805186e-07
3.14087204964e-08
2.84801018122e-07
1.57255204692e-08
2.63589978195e-07
5.06913953243e-09
2.4636088715e-07
2.62503704113e-10
2.40875915955e-07
-2.16265237099e-09
2.47255941609e-07
-4.00606021549e-09
2.57822131254e-07
-5.54725271287e-09
2.6948344186e-07
-6.87319823381e-09
2.81864063839e-07
-8.03239455283e-09
2.94908193861e-07
-9.05914359337e-09
3.08624319202e-07
3.23046592188e-07
-9.98006550901e-09
1.46971673854e-07
3.53961811323e-07
1.28869733665e-07
3.18027636362e-07
1.18987456355e-07
3.2130111095e-07
1.10614464374e-07
3.28098895075e-07
1.0073235551e-07
3.36437261798e-07
8.83819153005e-08
3.42038479186e-07
7.37706880729e-08
3.41941062439e-07
5.79700821474e-08
3.3421871454e-07
4.19764917042e-08
3.19863197935e-07
2.56549541352e-08
3.01101262661e-07
1.00113092029e-08
2.79219006828e-07
-1.82221587592e-09
2.58187166402e-07
-7.39549551366e-09
2.46447404582e-07
-9.40240589812e-09
2.49262747154e-07
-1.06215795478e-08
2.59041298748e-07
-1.15272647854e-08
2.70389145234e-07
-1.22187803585e-08
2.82555574595e-07
-1.27589108646e-08
2.95448336333e-07
-1.31929151342e-08
3.09058318879e-07
3.23409485334e-07
-1.35557981067e-08
1.47155080212e-07
3.62622726043e-07
1.25838945956e-07
3.24721330538e-07
1.12751828503e-07
3.29102666158e-07
1.00930576151e-07
3.38146296754e-07
8.85600331778e-08
3.48227709073e-07
7.53504470577e-08
3.55052707624e-07
6.14189978443e-08
3.5579689043e-07
4.70801360923e-08
3.48518928282e-07
3.23366245371e-08
3.3458039015e-07
1.67549024512e-08
3.16662637086e-07
1.01589636875e-09
2.94942662853e-07
-1.19441391357e-08
2.71138342552e-07
-1.84236138727e-08
2.52924087532e-07
-1.95665167114e-08
2.50405382044e-07
-1.94127569683e-08
2.58887530022e-07
-1.90972470673e-08
2.70073655584e-07
-1.87027965997e-08
2.82161120414e-07
-1.82733915247e-08
2.95018944139e-07
-1.78466558982e-08
3.08631579701e-07
3.23014830703e-07
-1.74519905192e-08
1.48320783067e-07
3.70030562675e-07
1.22552932933e-07
3.35834377225e-07
1.05246253111e-07
3.41085714176e-07
8.95326383576e-08
3.5208383206e-07
7.45833828581e-08
3.62615769617e-07
6.08894799018e-08
3.68567732138e-07
4.85735714458e-08
3.6804672068e-07
3.66298349846e-08
3.60428972409e-07
2.37791284924e-08
3.47407112095e-07
9.51529139815e-09
3.30906607251e-07
-5.89758454066e-09
3.10339116866e-07
-2.0463955908e-08
2.85693822414e-07
-2.93784772916e-08
2.61834277474e-07
-3.04789175126e-08
2.51505173027e-07
-2.86213289234e-08
2.57029910157e-07
-2.66995318022e-08
2.68151880427e-07
-2.49782312259e-08
2.80439816649e-07
-2.34383062065e-08
2.9347903365e-07
-2.2079663064e-08
3.07272933138e-07
3.21841021707e-07
-2.09058416397e-08
1.4508616178e-07
3.80607605588e-07
1.12908494005e-07
3.53860347814e-07
9.03258431061e-08
3.5871678511e-07
7.11874485076e-08
3.69618448334e-07
5.55797225675e-08
3.77734502379e-07
4.41684243215e-08
3.79828917797e-07
3.57731343776e-08
3.76386959873e-07
2.80784747141e-08
3.68094134929e-07
1.93165215081e-08
3.56146353064e-07
8.72246449007e-09
3.41480363738e-07
-4.48124426889e-09
3.23524659496e-07
-2.01301104273e-08
3.01328797491e-07
-3.36545363954e-08
2.75351485901e-07
-3.77966960112e-08
2.55645609223e-07
-3.5295317167e-08
2.54528390075e-07
-3.20036602778e-08
2.64860245995e-07
-2.91757066909e-08
2.77611861228e-07
-2.67739892666e-08
2.91077331762e-07
-2.47389560467e-08
3.0523789737e-07
3.20135750893e-07
-2.30336723605e-08
1.39365625277e-07
3.97370885427e-07
1.02615044387e-07
3.76257953747e-07
7.58776517611e-08
3.80592106846e-07
5.56788192337e-08
3.8834572581e-07
4.20383526334e-08
3.90949051922e-07
3.42305493373e-08
3.87507625943e-07
2.9697142821e-08
3.8087185722e-07
2.60826993934e-08
3.71681380688e-07
2.22540924488e-08
3.59953262435e-07
1.69645313814e-08
3.46750023688e-07
7.97463909811e-09
3.3249571209e-07
-6.88016829049e-09
3.16166976517e-07
-2.48723712219e-08
2.9333218251e-07
-3.60330942845e-08
2.66801956499e-07
-3.6157418796e-08
2.54652077354e-07
-3.27691736636e-08
2.61472003949e-07
-2.96486330572e-08
2.74491319453e-07
-2.70710906312e-08
2.88499806892e-07
-2.49471446643e-08
3.03113948776e-07
3.18398235739e-07
-2.32096150188e-08
1.39588979498e-07
4.13497681448e-07
1.05583067053e-07
3.94109914904e-07
8.10377027345e-08
3.99612761175e-07
6.24128681635e-08
4.05272715293e-07
4.98834208559e-08
4.02985856791e-07
4.2848592975e-08
3.94393314844e-07
3.89501803368e-08
3.84715572057e-07
3.62871596255e-08
3.74315814656e-07
3.37574126849e-08
3.6246223441e-07
3.05665021143e-08
3.49923023796e-07
2.4538935433e-08
3.38506134392e-07
1.36647906634e-08
3.27023881958e-07
-4.23432624404e-09
3.11216500056e-07
-2.23202828403e-08
2.84879604014e-07
-2.92520602549e-08
2.61581770206e-07
-2.81297344009e-08
2.60349552072e-07
-2.59508175052e-08
2.72312401196e-07
-2.41116776903e-08
2.86660686532e-07
-2.26259847848e-08
3.01628254169e-07
3.17212235416e-07
-2.14399693233e-08
1.48135020625e-07
4.20929569272e-07
1.21557909919e-07
4.03367195842e-07
1.03591557384e-07
4.11228087426e-07
8.78143582995e-08
4.18962597237e-07
7.50895511166e-08
4.15084326577e-07
6.65038376993e-08
4.0279637147e-07
6.07544468294e-08
3.90405635203e-07
5.61000015662e-08
3.78943578006e-07
5.15776283976e-08
3.66966700485e-07
4.65246431631e-08
3.54961107983e-07
3.95564559926e-08
3.45460408574e-07
3.06537417507e-08
3.35912809388e-07
1.64584769723e-08
3.25397700284e-07
-2.61593236418e-09
3.03943294299e-07
-1.63936739958e-08
2.75355209625e-07
-1.96606371085e-08
2.63615955666e-07
-1.94674002936e-08
2.72119146975e-07
-1.90488101773e-08
2.86242118516e-07
-1.87229697133e-08
3.01302412126e-07
3.16983867263e-07
-1.84945847882e-08
1.53868391887e-07
4.23402657055e-07
1.3152440431e-07
4.0780133701e-07
1.1829279597e-07
4.1755988621e-07
1.06848764477e-07
4.27995259169e-07
9.65832229056e-08
4.24573100579e-07
8.82333405723e-08
4.10906430971e-07
8.13220745118e-08
3.9723788228e-07
7.50862636725e-08
3.85146287282e-07
6.88941102153e-08
3.7313948936e-07
6.07503118276e-08
3.63090816726e-07
5.17684394578e-08
3.54430369731e-07
4.15398963184e-08
3.46130080065e-07
2.92365858833e-08
3.37689396234e-07
1.31070248323e-08
3.20062535913e-07
-2.98628643672e-09
2.914428288e-07
-1.06238283149e-08
2.71252251309e-07
-1.27684679333e-08
2.74263710847e-07
-1.39104226633e-08
2.87384096554e-07
-1.48313671709e-08
3.02223355961e-07
3.17770270317e-07
-1.56177528975e-08
1.51009234163e-07
4.28052233239e-07
1.31196074109e-07
4.10517816034e-07
1.20197431257e-07
4.22016048249e-07
1.13021884626e-07
4.32849298364e-07
1.06896701325e-07
4.29934781864e-07
1.00921564767e-07
4.16646927686e-07
9.51095333436e-08
4.02976721689e-07
8.95303917354e-08
3.90697372987e-07
8.22477716461e-08
3.80406755189e-07
7.05833300862e-08
3.74744895782e-07
5.86823786082e-08
3.66321925385e-07
4.74267177978e-08
3.57377882749e-07
3.49585124224e-08
3.50149433948e-07
2.0685584211e-08
3.34327556839e-07
5.51175598677e-09
3.06611369126e-07
-4.35748449091e-09
2.81119839877e-07
-8.32516932128e-09
2.78231233499e-07
-1.06454462673e-08
2.89704396621e-07
-1.24852729174e-08
3.04063182027e-07
3.19294047942e-07
-1.40090318685e-08
1.51773524398e-07
4.33418603775e-07
1.33497764008e-07
4.12072361999e-07
1.23037246372e-07
4.26154499334e-07
1.17701531668e-07
4.35957421704e-07
1.14230867228e-07
4.32659427868e-07
1.10654556484e-07
4.19983890307e-07
1.06774222269e-07
4.06778647805e-07
1.01920354353e-07
3.95521114346e-07
9.20250874668e-08
3.9028723353e-07
7.8498830811e-08
3.88258341226e-07
6.38981036438e-08
3.8091634976e-07
5.03926635393e-08
3.70878804407e-07
3.71725224059e-08
3.6336474082e-07
2.22100465794e-08
3.49285165011e-07
7.46213201216e-09
3.21355572989e-07
-2.85927255053e-09
2.91439823493e-07
-7.6220345848e-09
2.82993806255e-07
-1.04284936054e-08
2.92510877916e-07
-1.26217932477e-08
3.06256481953e-07
3.21083821483e-07
-1.44115476892e-08
1.48890521728e-07
4.40446906595e-07
1.31349939572e-07
4.13298977679e-07
1.22962392258e-07
4.28563141423e-07
1.20075068637e-07
4.36798680255e-07
1.19549712294e-07
4.32519899289e-07
1.18739610872e-07
4.20587537399e-07
1.16502694428e-07
4.08950522292e-07
1.10752537805e-07
4.01246947989e-07
9.8668884011e-08
4.02357005949e-07
8.47474351426e-08
4.0217659326e-07
6.94368209458e-08
3.96222391157e-07
5.35958351473e-08
3.86717713893e-07
3.84071297634e-08
3.7855421866e-07
2.09020224604e-08
3.66788279697e-07
4.71501746806e-09
3.37540937586e-07
-6.11745513287e-09
3.02271620225e-07
-1.09283997588e-08
2.8780465063e-07
-1.3467598673e-08
2.95050103186e-07
-1.54052793445e-08
3.08194163168e-07
3.22637845899e-07
-1.69592835792e-08
1.4830855879e-07
4.49517013899e-07
1.30355947172e-07
4.15069724968e-07
1.2400033891e-07
4.29019224998e-07
1.23324571606e-07
4.35470136922e-07
1.24741020751e-07
4.30454527792e-07
1.25307559255e-07
4.19817614714e-07
1.23221365445e-07
4.10971271453e-07
1.14728658346e-07
4.09715400434e-07
1.02687550491e-07
4.14391555105e-07
8.941794428e-08
4.15437807534e-07
7.4709656266e-08
4.10931076654e-07
5.88795313362e-08
4.0254914217e-07
4.07577270915e-08
3.96671823599e-07
1.92761591494e-08
3.8827227449e-07
2.6740496e-10
3.56551161037e-07
-1.2382032445e-08
3.14921710833e-07
-1.735593937e-08
2.92778696172e-07
-1.90860242976e-08
2.96780227522e-07
-2.02903800347e-08
3.0939852037e-07
3.23574686617e-07
-2.12272003512e-08
1.47048767231e-07
4.58795742774e-07
1.29249651764e-07
4.16809178827e-07
1.25495248201e-07
4.26917971235e-07
1.27399464977e-07
4.31585589341e-07
1.29781894912e-07
4.27448471297e-07
1.29823173012e-07
4.19591167769e-07
1.26205063811e-07
4.1453425675e-07
1.16011110697e-07
4.19894021045e-07
1.04749570866e-07
4.25642544553e-07
9.27125123198e-08
4.27476838258e-07
7.96737164001e-08
4.23967969193e-07
6.51651013695e-08
4.17057077641e-07
4.42048979454e-08
4.17647883651e-07
2.0905428709e-08
4.11580085422e-07
-1.24087979556e-09
3.78703733462e-07
-1.80613253547e-08
3.31744946856e-07
-2.47803899143e-08
2.99498391412e-07
-2.58665835153e-08
2.97866498193e-07
-2.62275278451e-08
3.09759466931e-07
3.23783273164e-07
-2.64360928822e-08
1.45119932842e-07
4.71834829441e-07
1.2756226572e-07
4.19214052712e-07
1.25629974863e-07
4.23381638674e-07
1.29198031701e-07
4.2614476026e-07
1.31384160109e-07
4.24656484066e-07
1.29575610806e-07
4.21214611157e-07
1.2304143433e-07
4.21011918215e-07
1.13023190541e-07
4.29890712634e-07
1.02629288604e-07
4.36036898282e-07
9.19896266135e-08
4.38116636977e-07
8.04575243682e-08
4.35507934293e-07
6.51837933337e-08
4.32348061064e-07
4.54098407217e-08
4.37427265195e-07
2.61995725416e-08
4.30804018428e-07
1.64907756368e-09
4.03263027075e-07
-2.05780181869e-08
3.53977353773e-07
-3.1132337002e-08
3.10054315772e-07
-3.24879335887e-08
2.99222281723e-07
-3.22757496111e-08
3.09547288398e-07
3.23417925632e-07
-3.19103799706e-08
1.46692906469e-07
4.82307064479e-07
1.31186094332e-07
4.19781500348e-07
1.28463380167e-07
4.2079179144e-07
1.29883930123e-07
4.22952287711e-07
1.2913944438e-07
4.2483807153e-07
1.2422486707e-07
4.25958735409e-07
1.14898324556e-07
4.30286818492e-07
1.04844888388e-07
4.39935890673e-07
9.49566043315e-08
4.45921556549e-07
8.50838970224e-08
4.47997841578e-07
7.41232403883e-08
4.46484364967e-07
5.50575067267e-08
4.51416147036e-07
4.08191437057e-08
4.5168132163e-07
2.70662433955e-08
4.44569013626e-07
4.0545849824e-09
4.2629231091e-07
-2.06183787637e-08
3.78661186975e-07
-3.57633139658e-08
3.25203213053e-07
-3.86396354292e-08
3.02099129075e-07
-3.82395823107e-08
3.09147250433e-07
3.22682605284e-07
-3.75042382505e-08
1.49342835369e-07
4.90285450446e-07
1.36415050798e-07
4.17365285732e-07
1.3150807656e-07
4.20152432484e-07
1.27480594753e-07
4.25172375257e-07
1.21035652102e-07
4.30730033069e-07
1.11974496449e-07
4.34858589871e-07
1.01110451041e-07
4.41109009444e-07
9.0707196754e-08
4.50326921699e-07
8.0866638084e-08
4.55772512152e-07
7.13093630048e-08
4.57572837511e-07
5.62597538337e-08
4.61533219306e-07
4.12446201895e-08
4.66445621828e-07
3.03291756764e-08
4.62618638629e-07
1.8700844684e-08
4.56225881269e-07
1.57685520456e-09
4.43439252709e-07
-2.12561515506e-08
4.01513863402e-07
-3.96813929847e-08
3.43636761414e-07
-4.50553525776e-08
3.07474477578e-07
-4.46806495101e-08
3.08772599396e-07
3.2159085345e-07
-4.35888726827e-08
1.55904463599e-07
4.90120949601e-07
1.42604353545e-07
4.14388239717e-07
1.32496766465e-07
4.24304630816e-07
1.20251917551e-07
4.35481476747e-07
1.06788873289e-07
4.43611882686e-07
9.32916241802e-08
4.48194804058e-07
8.05717067066e-08
4.53788346233e-07
6.89361922658e-08
4.61966343291e-07
5.75751133211e-08
4.67149230108e-07
4.55526073014e-08
4.69597011046e-07
3.09427358725e-08
4.76165882569e-07
2.2294905706e-08
4.75124767774e-07
1.36523342944e-08
4.71297450955e-07
4.18604213049e-09
4.65720721608e-07
-7.25606185493e-09
4.54916244203e-07
-2.57745970899e-08
4.20057089562e-07
-4.48890613289e-08
3.62764686043e-07
-5.29496147304e-08
3.15538125465e-07
-5.24743030755e-08
3.08297458804e-07
3.19798552168e-07
-5.06819737281e-08
1.62910731327e-07
4.82893196249e-07
1.41410874588e-07
4.19847378143e-07
1.21962518011e-07
4.37694269696e-07
1.00355930391e-07
4.55089675028e-07
8.07189783025e-08
4.62674654593e-07
6.32783707652e-08
4.65497460498e-07
4.67800203342e-08
4.70267773495e-07
3.15970647225e-08
4.77162245237e-07
1.84750960868e-08
4.80288826347e-07
6.71030518978e-09
4.81397135976e-07
1.64093339974e-09
4.81272966356e-07
-1.88634550611e-09
4.7869139527e-07
-6.44636225634e-09
4.75894373417e-07
-1.23933791161e-08
4.71710108517e-07
-1.97232065036e-08
4.62281677324e-07
-3.33821037293e-08
4.33751524793e-07
-5.14852816721e-08
3.80889433696e-07
-6.22845847495e-08
3.26343891658e-07
-6.17482378557e-08
3.07761644775e-07
3.16828509817e-07
-5.87781601658e-08
1.57965683507e-07
4.79669889204e-07
1.21194431082e-07
4.42264697677e-07
8.6512566648e-08
4.67181002631e-07
5.15892270261e-08
4.88348853548e-07
2.60143566201e-08
4.87849311833e-07
6.12156032444e-09
4.85335917933e-07
-1.22761110221e-08
4.88684731727e-07
-2.76399127686e-08
4.92562757737e-07
-3.77440351803e-08
4.90435188235e-07
-4.11208289323e-08
4.84814329892e-07
-3.91264002851e-08
4.79318757989e-07
-3.56925588876e-08
4.75299790001e-07
-3.32138591398e-08
4.73461774073e-07
-3.25698604364e-08
4.71111141296e-07
-3.3863704446e-08
4.63624794727e-07
-4.19760576473e-08
4.41906984402e-07
-5.80689993075e-08
3.97012791478e-07
-7.15671309829e-08
3.39854121209e-07
-7.16156267465e-08
3.07811650127e-07
3.12352435023e-07
-6.7139487302e-08
1.4183575826e-07
4.90647717785e-07
8.1081558937e-08
4.89091317467e-07
2.20751458298e-08
5.21666999165e-07
-3.34228352096e-08
5.42750113355e-07
-6.55481309982e-08
5.19895591231e-07
-8.38026222346e-08
5.03632882648e-07
-9.53310075542e-08
5.00267177565e-07
-1.00322502917e-07
4.97607745103e-07
-9.93257372802e-08
4.89486838005e-07
-9.37100716817e-08
4.79243644484e-07
-8.64012156246e-08
4.7205270196e-07
-7.78917535708e-08
4.66834112238e-07
-6.75376570399e-08
4.63154434657e-07
-5.71445515688e-08
4.60769116434e-07
-4.96666578957e-08
4.56197722009e-07
-5.07182008673e-08
4.43008303616e-07
-6.34721756786e-08
4.09807677732e-07
-7.84153891749e-08
3.54818487146e-07
-8.02990895555e-08
3.09699327636e-07
3.06453391227e-07
-7.4399859669e-08
1.11136710682e-07
5.36158950526e-07
2.64616042487e-08
5.62061116419e-07
-4.94643216192e-08
5.95181285132e-07
-1.17504679144e-07
6.10700097208e-07
-1.53145507525e-07
5.55705652244e-07
-1.66070093618e-07
5.16666576458e-07
-1.65225062014e-07
4.99503055341e-07
-1.56959174742e-07
4.89408926754e-07
-1.45519633184e-07
4.78104268874e-07
-1.32986324609e-07
4.66758417611e-07
-1.21421246176e-07
4.60531663435e-07
-1.09983342069e-07
4.55440420743e-07
-9.57253971525e-08
4.48943339167e-07
-7.88034421822e-08
4.43897925327e-07
-6.36857671763e-08
4.41134839041e-07
-5.76631090066e-08
4.37043163849e-07
-6.65520912465e-08
4.18750743777e-07
-7.97936844094e-08
3.68095152491e-07
-8.46852413594e-08
3.14600635298e-07
3.00229351142e-07
-7.84605155193e-08
8.20481245554e-08
6.13460558887e-07
4.45796661154e-09
6.3580122389e-07
-6.15555267617e-08
6.63224954585e-07
-1.28550143918e-07
6.7913016595e-07
-1.69495157849e-07
5.97130928791e-07
-1.84905164598e-07
5.32263566016e-07
-1.80926887226e-07
4.95637136797e-07
-1.68054750219e-07
4.76621442898e-07
-1.5280542817e-07
4.62922797184e-07
-1.38137513206e-07
4.52146715969e-07
-1.24883738052e-07
4.47328744689e-07
-1.13190442069e-07
4.43797235191e-07
-1.00379383019e-07
4.36183200907e-07
-8.49085807986e-08
4.2848055713e-07
-6.88803291457e-08
4.25165402049e-07
-5.98547066686e-08
4.28084358481e-07
-6.18984038836e-08
4.20865117787e-07
-7.22427619823e-08
3.78493712106e-07
-8.06427608952e-08
3.23021946552e-07
2.96388239174e-07
-7.67991795473e-08
1.82210459083e-07
5.82790677015e-07
8.13453126684e-08
7.18729121664e-07
1.03748582885e-08
7.30467523151e-07
-5.68743284091e-08
7.46853472038e-07
-9.89626360562e-08
6.39956168251e-07
-1.23561384637e-07
5.57141328912e-07
-1.28108895994e-07
5.00327410537e-07
-1.21804402893e-07
4.70418590699e-07
-1.1188268523e-07
4.53081477675e-07
-1.01573629947e-07
4.41903608815e-07
-9.19395105743e-08
4.37753462624e-07
-8.42520300806e-08
4.3616780384e-07
-7.71744652933e-08
4.29163397139e-07
-6.89973927193e-08
4.20362404767e-07
-5.89838875842e-08
4.15215798734e-07
-5.17420742918e-08
4.20919566092e-07
-4.92584551387e-08
4.18466175533e-07
-5.72025031654e-08
3.86512465146e-07
-6.76340071507e-08
3.33492473114e-07
2.97343004588e-07
-6.85814073166e-08
2.15983932401e-07
5.14370441394e-07
2.30953358964e-07
6.78670349706e-07
2.07970686115e-07
7.43740927593e-07
1.71270766548e-07
7.80920162725e-07
3.78019815645e-08
7.7298276217e-07
-7.68180477657e-09
6.02713962671e-07
-2.76085358965e-08
5.20369055666e-07
-3.4507574293e-08
4.77424358065e-07
-3.59251294213e-08
4.54587983735e-07
-3.53681851635e-08
4.41418579957e-07
-3.40369218952e-08
4.36484799963e-07
-3.37685470725e-08
4.35962158603e-07
-3.43470462212e-08
4.29806215054e-07
-3.47404901321e-08
4.20820606243e-07
-3.33622879611e-08
4.13905793704e-07
-3.03114513178e-08
4.17952955076e-07
-3.11962146354e-08
4.19446445929e-07
-3.86341790941e-08
3.94042013e-07
-4.96893230526e-08
3.44605730522e-07
3.03235280488e-07
-5.55651947635e-08
1.83154822683e-07
4.8294076763e-07
1.76652900445e-07
6.62720610458e-07
1.70849120565e-07
7.39894771746e-07
1.58216056604e-07
7.90242619757e-07
1.26952691919e-07
8.03312362612e-07
8.48804943785e-08
6.44669434446e-07
6.35089812625e-08
5.41800058615e-07
5.07177399934e-08
4.90307921313e-07
4.20354907392e-08
4.63358510225e-07
3.50330757257e-08
4.48495366961e-07
2.87975490929e-08
4.42784242831e-07
2.22332091118e-08
4.42592243592e-07
1.50037184314e-08
4.37102199983e-07
7.33360846675e-09
4.28560136889e-07
4.54158490987e-10
4.20856217105e-07
-2.7412179065e-09
4.21234296515e-07
-9.17916974253e-09
4.25988016983e-07
-1.89974791629e-08
4.03963227795e-07
-3.13845115729e-08
3.57066193424e-07
3.12808335653e-07
-4.09296877401e-08
1.66917607522e-07
4.67710320691e-07
1.5941400954e-07
6.49085541585e-07
1.58195199028e-07
7.31604422105e-07
1.59108287851e-07
7.85729130251e-07
1.48945184119e-07
8.12340899836e-07
1.36540601587e-07
6.5686075525e-07
1.24839850477e-07
5.53512403384e-07
1.13754428541e-07
5.01466484428e-07
1.03360638762e-07
4.73833495257e-07
9.31367563813e-08
4.58790271621e-07
8.2604371486e-08
4.53378436052e-07
7.18445014768e-08
4.53414765133e-07
6.04752043075e-08
4.48540102913e-07
4.82076407478e-08
4.40897887268e-07
3.52370674704e-08
4.33898714996e-07
2.52950155884e-08
4.31261425306e-07
1.39760422092e-08
4.37415126337e-07
2.31578542424e-10
4.178174875e-07
-1.5030607559e-08
3.72412791637e-07
3.25329471762e-07
-2.75127333552e-08
1.57734357182e-07
4.64312750815e-07
1.40632678399e-07
6.46783095873e-07
1.34357806834e-07
7.29581305899e-07
1.36105548248e-07
7.80976463103e-07
1.46809920865e-07