/*--------------------------------*- C++ -*----------------------------------*\
| =========                 |                                                 |
| \\      /  F ield         | OpenFOAM: The Open Source CFD Toolbox           |
|  \\    /   O peration     | Version:  2312                                  |
|   \\  /    A nd           | Website:  www.openfoam.com                      |
|    \\/     M anipulation  |                                                 |
\*---------------------------------------------------------------------------*/
FoamFile
{
    version     2.0;
    format      ascii;
    arch        "LSB;label=32;scalar=64";
    class       volScalarField;
    location    "0.85/cooler";
    object      T;
}
// * * * * * * * * * * * * * * * * * * * * * * * * * * * * * * * * * * * * * //

dimensions      [0 0 0 1 0 0 0];

internalField   nonuniform List<scalar> 
750
(
300
300
300
300
300
300
300
300
300
300
300
300
300
300
300
300
300
300
300
300
300
300
300
300
300
300
300
300
300
300
300
300
300
300
300
300
300
300
300
300
300
300
300
300
300
300
300
300
300
300
300
300
300
300
300
300
300
300
300
300
300
300
300
300
300
300
300
300
300
300
300
300
300
300
300
300
300
300
300
300
300
300
300
300
300
300
300
300
300
300
300
300
300
300
300
300
300
300
300
300
300
300
300
300
300
300
300
300
300
300
300
300
300
300
300
300
300
300
300
300
300
300
300
300
300
300
300
300
300
300
300
300
300
300
300
300
300
300
300
300
300
300
300
300
300
300
300
300
300
300
300
300
300
300
300
300
300
300
300
300
300
300
300
300
300
300
300
300
300
300
300
300
300
300
300
300
300
300
300
300
300
300
300
300
300
300
300
300
300
300
300
300
300
300
300
300
300
300
300
300
300
300
300
300
300
300
300
300
300
300
300
300
300
300
300
300
300
300
300
300
300
300
300
300
300
300
300
300
300
300
300
300
300
300
300
300
300
300
300
300
300
300
300
300
300
300
300
300
300
300
300
300
300
300
300
300.000000001
300.000000001
300.000000001
300.000000001
300.000000001
300.000000002
300.000000002
300.000000002
300.000000002
300.000000002
300.000000004
300.000000004
300.000000004
300.000000004
300.000000004
300.000000008
300.000000008
300.000000008
300.000000008
300.000000009
300.000000017
300.000000018
300.000000018
300.000000018
300.000000018
300.000000037
300.000000038
300.000000038
300.000000039
300.000000039
300.000000079
300.000000082
300.000000083
300.000000084
300.000000085
300.00000017
300.000000175
300.000000178
300.00000018
300.000000181
300.00000036
300.000000369
300.000000376
300.00000038
300.000000382
300.000000742
300.00000076
300.000000772
300.000000779
300.000000782
300.000001485
300.000001515
300.000001531
300.000001539
300.000001541
300.000002873
300.000002901
300.000002902
300.000002891
300.000002881
300.000005361
300.000005265
300.000005154
300.000005057
300.000005001
300.000009083
300.000008647
300.000008277
300.000008002
300.000007855
300.000013506
300.00001256
300.000011824
300.000011313
300.000011051
300.000017561
300.000016166
300.000015113
300.000014403
300.000014044
300.000020545
300.000018925
300.000017711
300.000016897
300.000016488
300.000022544
300.000020865
300.000019605
300.000018759
300.000018334
300.000023998
300.000022275
300.000020986
300.00002012
300.000019684
300.000025076
300.000023286
300.000021955
300.000021064
300.000020616
300.000025217
300.000023657
300.000022429
300.000021579
300.000021144
300.000025188
300.000023754
300.000022624
300.000021838
300.000021434
300.000025324
300.00002399
300.000022926
300.000022176
300.000021788
300.000025888
300.000024583
300.000023511
300.000022744
300.000022343
300.000026872
300.000025513
300.000024363
300.000023531
300.000023097
300.000028498
300.000026715
300.000025366
300.000024451
300.000023987
300.000029434
300.000027719
300.000026407
300.00002551
300.000025053
300.000030604
300.000028965
300.000027699
300.000026825
300.000026376
300.000032205
300.000030606
300.000029361
300.000028494
300.000028046
300.000034365
300.00003277
300.000031516
300.000030635
300.000030177
300.00003721
300.000035588
300.000034296
300.00003338
300.000032902
300.000040888
300.000039215
300.000037863
300.000036893
300.000036384
300.000045643
300.000043896
300.000042457
300.000041411
300.000040859
300.00005185
300.00005
300.000048438
300.000047286
300.000046671
300.000060019
300.000058025
300.00005629
300.000054984
300.00005428
300.000070721
300.000068521
300.000066532
300.000065001
300.000064164
300.000084461
300.00008195
300.000079574
300.000077695
300.000076655
300.000101465
300.000098484
300.000095532
300.000093145
300.000091811
300.000121016
300.000117391
300.000113723
300.000110745
300.00010908
300.000144998
300.000140359
300.000135621
300.000131779
300.000129638
300.000174098
300.000167909
300.000161614
300.000156546
300.000153736
300.000208482
300.000200059
300.000191648
300.00018497
300.0001813
300.000248585
300.000237127
300.00022598
300.000217281
300.00021255
300.000294617
300.000279288
300.000264795
300.00025369
300.000247719
300.000346225
300.000326288
300.000307933
300.000294119
300.000286775
300.00040297
300.000377868
300.000355262
300.000338522
300.000329719
300.000464318
300.000433795
300.00040672
300.000386947
300.000376656
300.000529654
300.000493715
300.000462136
300.000439378
300.000427655
300.000598729
300.000557266
300.000521171
300.000495561
300.000482511
300.000670334
300.000623181
300.000582794
300.000554665
300.000540476
300.000743229
300.000690032
300.000645799
300.000615573
300.000600439
300.000815938
300.000756572
300.000709095
300.000677096
300.000661134
300.000886337
300.000821893
300.000771635
300.000738051
300.000721313
300.000954161
300.00088515
300.000832489
300.000797441
300.000779944
300.00101825
300.000945528
300.000890816
300.000854354
300.000836081
300.001077124
300.001001578
300.000945068
300.000907185
300.000888113
300.001129771
300.00105241
300.000994136
300.000954714
300.000934792
300.001176808
300.001098174
300.00103754
300.00099621
300.000975306
300.001222388
300.001139998
300.001075427
300.001031507
300.001009357
300.001270914
300.001179128
300.001108541
300.001061069
300.001037239
300.001323228
300.001217929
300.00113894
300.00108641
300.001060178
300.001388802
300.001263238
300.001171179
300.001110821
300.001081018
300.001485538
300.001327557
300.001215098
300.001142302
300.001106421
300.001641135
300.001429365
300.001282825
300.001189273
300.001143437
300.001904631
300.001601577
300.00139696
300.001267825
300.001204878
300.002357833
300.001898076
300.001592899
300.001402086
300.001309543
300.003122353
300.002400039
300.001922533
300.001625883
300.001482849
300.004308434
300.0031874
300.002438891
300.001974918
300.001752444
300.005911762
300.004275646
300.003162928
300.00247117
300.002140299
300.007823572
300.005618927
300.004087791
300.003128538
300.002668854
300.009989494
300.007209251
300.005235278
300.003984516
300.00338182
300.012413039
300.009076206
300.006657175
300.005102886
300.00434734
300.015096586
300.011262033
300.008429573
300.006575643
300.005662332
300.018500652
300.01410108
300.01079323
300.008589561
300.007491088
300.023187827
300.017965188
300.014023992
300.01138508
300.010063087
300.029220244
300.023064356
300.018418289
300.015285527
300.013704548
300.036950907
300.029851837
300.024432529
300.020725102
300.018834661
300.047017523
300.038889398
300.032573466
300.028183817
300.025923055
300.060003605
300.050725478
300.043381775
300.038204327
300.035514891
300.076640688
300.066068117
300.057569162
300.051507877
300.048337897
300.098061001
300.0860102
300.076204615
300.069150526
300.065442793
300.125804485
300.112049799
300.100733962
300.092537378
300.088213769
300.161644154
300.145945623
300.132868168
300.123337584
300.118298119
300.207572621
300.189747373
300.174677135
300.16362464
300.157768792
300.266625451
300.246542211
300.229258363
300.216481785
300.209694094
300.344279653
300.321679178
300.301727846
300.286796291
300.278824305
300.447572223
300.421996658
300.398596914
300.380778579
300.371197573
300.581308016
300.55235926
300.524868733
300.503602141
300.492101608
300.749505837
300.71715625
300.68530635
300.660342907
300.646787807
300.959096844
300.923675492
300.887365124
300.858558835
300.842863369
301.226888273
301.187502082
301.145896272
301.112704821
301.094600997
301.571257988
301.528939188
301.482298756
301.444569916
301.423883461
302.00627547
301.96536325
301.916251967
301.875220021
301.852409948
302.537638136
302.502212309
302.453656286
302.411236055
302.387214318
303.142588994
303.116614925
303.072004233
303.030625113
303.006651147
303.769165553
303.755322478
303.717144147
303.678719895
303.655839303
304.354922247
304.350936258
304.316497982
304.278908987
304.256026295
304.858220258
304.851231833
304.805931934
304.757380701
304.728143165
305.236178196
305.207259786
305.130170264
305.053900341
305.00932512
)
;

boundaryField
{
    emptyPatch
    {
        type            empty;
    }
    minY
    {
        type            zeroGradient;
    }
    maxY
    {
        type            zeroGradient;
    }
    maxX
    {
        type            zeroGradient;
    }
    cooler_to_water
    {
        type            compressible::turbulentTemperatureTwoPhaseRadCoupledMixed;
        refValue        nonuniform List<scalar> 
150
(
300
300
300
300
300
300
300
300
300
300
300
300
300
300
300
300
300
300
300
300
300
300
300
300
300
300
300
300
300
300
300
300
300
300
300
300
300
300
300
300
300
300
300
300
300
300
300
300
300
300
300
300
300
300
300
300
300
300
300
300
300
300.000000107
300.000000853
300.000007272
300.000024183
300.000049133
300.000070532
300.000080954
300.000083169
300.000083437
300.000083267
300.000082383
300.000080242
300.000077947
300.000076117
300.000074866
300.000074103
300.000074765
300.000076391
300.0000792
300.000083246
300.000088437
300.000094728
300.000102242
300.000111488
300.000123197
300.000138464
300.000158678
300.000186004
300.000223641
300.000275044
300.000345438
300.000440412
300.000564247
300.000717287
300.0009022
300.001124465
300.00136963
300.001616641
300.001860869
300.002107627
300.002356531
300.002601625
300.002836159
300.003056779
300.003268433
300.003480929
300.003707192
300.003958854
300.004257496
300.004662007
300.005294915
300.006320116
300.008013884
300.010864333
300.015728685
300.023932803
300.037032312
300.055503091
300.07757246
300.100416935
300.122563735
300.144602262
300.168219816
300.197522897
300.232404274
300.270160139
300.311349011
300.358885008
300.410970721
300.470721651
300.541826761
300.626449368
300.725138397
300.836553272
300.960510381
301.099395644
301.259030999
301.441834907
301.637098125
301.827530368
301.994135505
302.13468957
302.323717824
302.541902243
302.778900857
303.014349605
303.243038396
303.497456817
303.792873569
)
;
        refGradient     uniform 0;
        valueFraction   nonuniform List<scalar> 
150
(
0.0163695515255
0.0163695515255
0.0163695515255
0.0163695515255
0.0163695515255
0.0163695515255
0.0163695515255
0.0163695515255
0.0163695515255
0.0163695515255
0.0163695515255
0.0163695515255
0.0163695515255
0.0163695515255
0.0163695515255
0.0163695515255
0.0163695515255
0.0163695515255
0.0163695515255
0.0163695515255
0.0163695515255
0.0163695515255
0.0163695515255
0.0163695515255
0.0163695515255
0.0163695515255
0.0163695515255
0.0163695515255
0.0163695515255
0.0163695515255
0.0163695515255
0.0163695515255
0.0163695515255
0.0163695515255
0.0163695515255
0.0163695515255
0.0163695515255
0.0163695515255
0.0163695515255
0.0163695515255
0.0163695515255
0.0163695515255
0.0163695515255
0.0163695515255
0.0163695515255
0.0163695515255
0.0163695515255
0.0163695515255
0.0163695515255
0.0163695515255
0.0163695515255
0.0163695515255
0.0163695515255
0.0163695515255
0.0163695515255
0.0163695515255
0.0163695515255
0.0163695515255
0.0163695515255
0.0163695515255
0.0163695515255
0.0163695515255
0.0163695515255
0.0175534102409
0.0167493122786
0.016704925087
0.0167985284787
0.0170679902899
0.0176540334576
0.0186471366183
0.0201492005188
0.0162006936615
0.0155950802142
0.0150775717193
0.0148917637079
0.0151397799081
0.0251208517027
0.0238120332695
0.0224952430006
0.0213365041347
0.0202976330601
0.0194333900242
0.0187562303774
0.0182252043944
0.0177886081234
0.0174174930733
0.0170963988371
0.0167152967566
0.0160960754882
0.0151049296893
0.0144061898744
0.0141448031544
0.0142620528422
0.0147399582413
0.0154951542465
0.0162348361147
0.0163065607018
0.0162919703311
0.0161274766306
0.0158685393381
0.0154917617993
0.0151003310212
0.0169486998269
0.0175635968851
0.0183407163626
0.0189550575234
0.0192164745205
0.0190125273619
0.0178239020723
0.0159111843175
0.0153127264149
0.0162658011252
0.0163240034596
0.0163347210412
0.0163426230604
0.0163507309166
0.0163572940168
0.0163631891007
0.0163673276643
0.0163670448738
0.016365195293
0.0162909048106
0.0160526974266
0.0156419409167
0.0153155332302
0.0155457275975
0.0160242129024
0.0163235769721
0.0163505521625
0.0163505524946
0.0163454276347
0.0163223927953
0.0162762981556
0.0161781566989
0.0160486268489
0.0159158663459
0.015793543088
0.0156535293976
0.0155021018314
0.015361529672
0.0151329166041
0.0161133667162
0.019361414642
0.0210817670068
0.0268344585211
0.0232227783198
0.0241840308971
0.0248607481099
0.0247927368689
0.023685929142
)
;
        source          uniform 0;
        kappaMethod     solidThermo;
        Tnbr            T.liquid;
        region          solid;
        otherPhase      gas;
        value           nonuniform List<scalar> 
150
(
300
300
300
300
300
300
300
300
300
300
300
300
300
300
300
300
300
300
300
300
300
300
300
300
300
300
300
300
300
300
300
300
300
300
300
300
300
300
300
300
300
300
300
300
300
300
300
300
300
300
300
300.000000001
300.000000002
300.000000004
300.000000008
300.000000017
300.000000036
300.000000078
300.000000168
300.000000354
300.00000073
300.000001462
300.000002839
300.000005394
300.000009334
300.000014099
300.000018448
300.000021573
300.00002361
300.000025101
300.000026244
300.000026141
300.000026044
300.000026114
300.000026633
300.000027597
300.00002964
300.000030508
300.00003163
300.000033203
300.000035353
300.000038201
300.000041894
300.000046669
300.000052907
300.000061115
300.000071876
300.000085699
300.000102826
300.000122568
300.000146876
300.00017653
300.000211803
300.000253255
300.000301184
300.000355266
300.000414747
300.000479074
300.00054719
300.00061877
300.000692626
300.000767636
300.000846194
300.000920544
300.000992645
300.001060779
300.001123151
300.001178568
300.001226186
300.001270532
300.001322714
300.001387574
300.001468909
300.001591556
300.001790848
300.002128962
300.002707933
300.00367287
300.005140284
300.00707708
300.009330183
300.011814097
300.014525495
300.017481265
300.021230169
300.026425858
300.0330635
300.04140886
300.052092824
300.065716214
300.083054027
300.10527353
300.133919609
300.170725178
300.217630568
300.277631524
300.356169124
300.460248079
300.594639451
300.763154507
300.972278782
301.239330826
301.582292903
302.01316
302.538042222
303.134559493
303.751460222
304.32795742
304.825354224
305.20332757
)
;
    }
}


// ************************************************************************* //
