/*--------------------------------*- C++ -*----------------------------------*\
| =========                 |                                                 |
| \\      /  F ield         | OpenFOAM: The Open Source CFD Toolbox           |
|  \\    /   O peration     | Version:  2312                                  |
|   \\  /    A nd           | Website:  www.openfoam.com                      |
|    \\/     M anipulation  |                                                 |
\*---------------------------------------------------------------------------*/
FoamFile
{
    version     2.0;
    format      ascii;
    arch        "LSB;label=32;scalar=64";
    class       volScalarField;
    location    "0.855/water";
    object      alpha.gas_0;
}
// * * * * * * * * * * * * * * * * * * * * * * * * * * * * * * * * * * * * * //

dimensions      [0 0 0 0 0 0 0];

internalField   nonuniform List<scalar> 
1496
(
0.664636439203
0.225287845368
0.208287263118
0.206679635064
0.208148674195
0.205604784401
0.208147990251
0.205383610306
0.20802633659
0.205649026184
0.208148674195
0.215179804932
0.286069350072
0.380053473248
0.475289957653
0.541441590186
0.568768506865
0.573460625401
0.562200699698
0.54515866824
0.578785116762
0.315235024886
0.269142194737
0.230477824461
0.209248172257
0.208147990251
0.205706616272
0.20802633659
0.205629613262
0.20802633659
0.222641451835
0.260311882171
0.300171305318
0.36031558565
0.427313915626
0.483581105517
0.521420667854
0.539518251204
0.540840938124
0.526520480031
0.598834471996
0.538937806932
0.464471871163
0.381229872117
0.317680508236
0.279387025738
0.261230786607
0.249722611909
0.245394267313
0.248202104941
0.260082668848
0.272428740617
0.283576921668
0.300780572742
0.334188379143
0.38629870549
0.441564828028
0.485827516275
0.511816528086
0.516847323439
0.720189686054
0.759544998363
0.696675715117
0.624197687672
0.562823237575
0.515780417056
0.477147303142
0.437490530772
0.390105370877
0.343537132419
0.307155220819
0.283758897881
0.27114034272
0.261861428048
0.262706559338
0.28443127306
0.336868446263
0.400171284555
0.461313842886
0.499355033386
0.853092266008
0.85628050064
0.807677858913
0.761474922171
0.733594237716
0.713880882775
0.692989911727
0.660725542023
0.603300604345
0.516884396562
0.419831895812
0.342931096809
0.294725667785
0.266590965843
0.248604807432
0.239644025339
0.251963067671
0.298918764738
0.378808228239
0.464459922209
0.884257468077
0.876921155783
0.839007784419
0.79540895416
0.773245945448
0.763484981811
0.755886683041
0.743156046977
0.715299868571
0.660178546899
0.570845784966
0.471244138218
0.382436660914
0.312782718733
0.262876840691
0.235104128974
0.223404041473
0.235152331601
0.290543612262
0.406544996632
0.883375325187
0.883135523463
0.848152782314
0.802821026189
0.776728947181
0.765100935274
0.757568139899
0.746986765919
0.726627236021
0.690584107996
0.632476779685
0.557857448427
0.474341972182
0.38763326312
0.305167467969
0.242503394892
0.217289004352
0.21701547053
0.242254550564
0.345385561831
0.884474719617
0.883375325187
0.850099593105
0.80288703045
0.772611896536
0.756151425805
0.745406407741
0.733727851844
0.715140680185
0.683501020751
0.632426299113
0.567504831091
0.495423694712
0.416171624626
0.331554037107
0.253025471354
0.21419863725
0.211736006088
0.229715255609
0.306776363523
0.883375325187
0.882468842327
0.846504658442
0.7954506514
0.756974968702
0.731605833632
0.712019420276
0.692313451304
0.671135822079
0.645297799682
0.606856942051
0.553196933313
0.487084507087
0.411216294505
0.328706926387
0.251083016243
0.209965682659
0.209111622596
0.22813310093
0.287015154247
0.884449306838
0.874587579272
0.832192050901
0.77604864911
0.733021717156
0.700301190664
0.667724042811
0.631836573057
0.598052833856
0.56952411842
0.538690564308
0.497384298738
0.441857179971
0.373764401453
0.29881379559
0.232486632864
0.205630632358
0.208518267892
0.230838968127
0.268511747043
0.883375325187
0.855955034999
0.806100020809
0.749929941785
0.709421551133
0.672264408383
0.626606520115
0.571083554963
0.517338537623
0.474903060257
0.437824271929
0.397088218762
0.348024371926
0.291831015248
0.238172261493
0.205288664101
0.203768556705
0.212651772809
0.233177877971
0.240919780554
0.883573219207
0.823927391699
0.773204586738
0.725406336105
0.690389788458
0.649248601053
0.592485437569
0.519857327845
0.44516982305
0.381653913314
0.327873336372
0.280867789107
0.242522539882
0.214850210478
0.199386820803
0.196802954427
0.20334329528
0.22151363122
0.229863752397
0.213389094114
0.860751300205
0.778943125645
0.738735956404
0.706097291392
0.676825788659
0.632023201702
0.5648395177
0.478594540889
0.386334846106
0.302546936209
0.238469050155
0.207329705148
0.198092260374
0.196677395663
0.19660671788
0.196594340605
0.211577908658
0.221742494346
0.219033302803
0.200748812764
0.791531999473
0.725401298481
0.704966630425
0.689793161361
0.667355107687
0.620402250185
0.543596918333
0.445537443075
0.34023748916
0.247805208634
0.201059189708
0.196760475424
0.196510991426
0.19660671788
0.196234651258
0.1971134143
0.215812178003
0.220826374277
0.203722851805
0.200791585452
0.714276214148
0.666453769406
0.668543425177
0.66919836452
0.655045833875
0.608373696427
0.525250791996
0.418623868572
0.306847875265
0.220866670093
0.196760475424
0.196519545432
0.19660671788
0.196208333037
0.196485173781
0.198715547818
0.216064413519
0.214248757666
0.195478541843
0.206972895562
0.682565127349
0.60490877677
0.622880437362
0.636414568073
0.629055308515
0.587144620215
0.503258555567
0.393386635819
0.282248767868
0.209680135278
0.196639810474
0.19660671788
0.196208333037
0.196485173781
0.195953255141
0.199112513886
0.212866478873
0.202004243742
0.195424016164
0.235690887664
0.681968187154
0.538812310622
0.563944730702
0.583765068369
0.581443487247
0.547524445489
0.469077991636
0.362086462562
0.257938611728
0.201925833356
0.19660671788
0.196259162931
0.196485173781
0.195969078413
0.196275039801
0.19848038374
0.203095932603
0.193118643041
0.197821795135
0.272156569573
0.681361115068
0.470766408457
0.494927375718
0.511137941942
0.511072877268
0.484099289032
0.41431028106
0.316273404757
0.22863592521
0.196856749871
0.196404096263
0.196485173781
0.195980744393
0.196275039801
0.19591400794
0.196184054749
0.194288191021
0.193008674864
0.208992031086
0.282198428276
0.676954622821
0.425816981442
0.435864546427
0.438514801089
0.435064776942
0.405991553499
0.341098301645
0.258364381013
0.202602373937
0.19659875782
0.19660671788
0.196087473928
0.196485173781
0.1960416738
0.197435235154
0.198636874771
0.193906403602
0.193127440318
0.215036931336
0.272084891284
0.644750390005
0.419568324488
0.418718847835
0.415315821036
0.399370835178
0.354650506762
0.289977416122
0.22967598758
0.199004580945
0.196760475424
0.196381055407
0.196868859186
0.201459799504
0.206604080849
0.208943559112
0.203390005793
0.194597800859
0.193672108927
0.209418663716
0.237373821117
0.602446373277
0.450844013646
0.446951949794
0.437626813848
0.411011303793
0.358219786659
0.293455037714
0.240421170297
0.217573085343
0.21616010062
0.219337585152
0.22689767684
0.234807154979
0.237098494608
0.228751541538
0.212526676952
0.19852820131
0.190105779704
0.188361648586
0.191191499518
0.617865813857
0.569987574301
0.559266127754
0.535723940465
0.489823382004
0.428551577225
0.370253794399
0.333579465924
0.323310855413
0.325143934978
0.329133725697
0.329274101358
0.319857730854
0.298921606533
0.268809279885
0.237029555846
0.209426704656
0.188349558436
0.16914817956
0.161577511265
0.702460873989
0.726616638999
0.711091037109
0.680973890447
0.641294863973
0.59977876078
0.567140243407
0.550550107388
0.546079705782
0.545253624731
0.537973064213
0.511357851285
0.465989650142
0.411945118914
0.353199401914
0.293516836309
0.2369278052
0.193490514912
0.16770553401
0.156819241943
0.799819239147
0.815399712158
0.790072759904
0.77116427642
0.757031347754
0.7446151441
0.734621845434
0.728210649089
0.724472306867
0.720109617858
0.705205938081
0.666946522306
0.607565357978
0.539186811782
0.462821391941
0.377060062336
0.288406810455
0.214119224201
0.171651623406
0.15678126348
0.850452803664
0.842378036208
0.812289358905
0.804311684623
0.801674897343
0.798584514878
0.79403864683
0.789465085016
0.785504543467
0.779173499527
0.762624978618
0.727033175984
0.672959567166
0.60837108651
0.532923926205
0.442532173281
0.34120023958
0.245331258485
0.181489624917
0.156839031855
0.879984442032
0.85278154379
0.823452730903
0.817465513272
0.816223235796
0.813696205447
0.809332843594
0.804557822737
0.799525926692
0.791139856798
0.772784645093
0.737810098114
0.686785519938
0.625556280971
0.553566011362
0.466366948439
0.365499658941
0.264247936715
0.18936270415
0.157333239861
0.882594102535
0.859728900266
0.83239606957
0.823629642822
0.821717370151
0.818695122972
0.81404528671
0.808841862973
0.802773178227
0.792813222587
0.773197969599
0.737841643472
0.68723826644
0.626762679837
0.555456014115
0.468847596599
0.368307624484
0.266750938573
0.190396160367
0.157512273567
0.882961115929
0.865006491828
0.83724549326
0.825406298899
0.822848145075
0.819436658772
0.814548191246
0.809018789312
0.802308151184
0.790991394142
0.76917466494
0.732170420887
0.682354767334
0.623279887632
0.552549411987
0.465795351878
0.364963590537
0.263560786334
0.188209073133
0.157200324426
0.882631439797
0.867233284017
0.837717778123
0.824161411981
0.82107402339
0.817330308683
0.812136313877
0.805774085471
0.796713469887
0.780827032522
0.753246534035
0.713202916285
0.664921823227
0.60849142704
0.538504064089
0.450823810106
0.34922573646
0.249593205289
0.180489329248
0.157386144785
0.882918478218
0.867457540589
0.835239239597
0.816898752289
0.812225106073
0.80792978508
0.801977939152
0.793340306532
0.779250281732
0.755500251176
0.72056701484
0.678362762789
0.632249576915
0.57762496674
0.506853979047
0.416986084616
0.315076387195
0.222368705369
0.171969816788
0.161304736842
0.882612915941
0.864822684424
0.824695992352
0.798144069789
0.791141497679
0.786705693892
0.779430940524
0.766563652061
0.744876962876
0.712326203794
0.672303276069
0.630500283316
0.586034085374
0.530712847506
0.456804932411
0.364082976952
0.264800660253
0.192064325979
0.171803862906
0.172629869943
0.882712956166
0.85268124303
0.799608189276
0.763713350413
0.75458525734
0.75096344231
0.741622248905
0.722246598508
0.691882986688
0.653194499111
0.612528101088
0.572685308633
0.528228605014
0.469628956814
0.391254945541
0.297576091051
0.210103359678
0.176554623865
0.176249881793
0.195342785844
0.881929997129
0.825514314381
0.753678547651
0.707523220972
0.699234466704
0.697852164492
0.685958004459
0.658970440743
0.62215041497
0.582088120274
0.543893412533
0.505727652762
0.4592309022
0.396019643426
0.314969829038
0.228511834701
0.174329102885
0.173919889665
0.190164938213
0.217011660396
0.87063003384
0.779352596555
0.675051435686
0.624681094794
0.622780771284
0.624880656814
0.611071216869
0.578409572763
0.539458959371
0.501882907936
0.466820591472
0.428648092306
0.378897092536
0.313071217092
0.237754844776
0.17699315231
0.164765683012
0.174568815428
0.21464494756
0.22008650413
0.846287045524
0.704364530924
0.570069612424
0.517853621902
0.524007054789
0.530886662029
0.516790482437
0.482986250782
0.446508172578
0.41300485106
0.380023808692
0.341030600105
0.29063970877
0.230967997368
0.177561571811
0.159017841891
0.163188420721
0.188501805897
0.231868054493
0.220914486796
0.796572381246
0.644708030465
0.534572222218
0.429917880568
0.408890077232
0.414597325095
0.402512033948
0.373813968679
0.343538678555
0.314610578376
0.283813834068
0.246755016393
0.203641580573
0.165983211002
0.153462873551
0.15544775452
0.170934073369
0.219481521732
0.241432169283
0.203969003477
0.74379287072
0.639491274996
0.547219727734
0.432641148503
0.328578333463
0.273754274
0.24738901703
0.22758031452
0.210713666783
0.194919901664
0.179016716526
0.163356785114
0.151727136616
0.148568437574
0.150340781167
0.174093854625
0.229444581164
0.281417075897
0.255681336296
0.178814470142
0.74713505039
0.740780431315
0.717393353773
0.648363751879
0.462268454772
0.193153689188
0.0331982936402
0.00148919543833
7.75058936905e-05
3.96345646281e-05
2.30299610172e-05
2.30290670842e-05
0.000647714198746
0.164736523882
0.475472825401
0.00621183989925
0.540652541605
0.571768656022
0.621285253701
0.656167587123
0.667082914823
0.656264971308
0.617299600546
0.510669470504
0.295043710791
0.0861353158713
0.00928913021949
0.000567861014773
0.000130103641223
7.88958659114e-05
3.28635274511e-05
6.82667768508e-05
0.0153316249418
0.392636211983
0.475372013323
0.00155764946354
0.503399966793
0.498765140188
0.524116936337
0.549936418444
0.557943960443
0.542662749664
0.482951706398
0.340019248849
0.142620215697
0.0268463916534
0.00258489708271
0.00052565546573
0.000304673266226
0.000162106012706
8.60240366271e-05
0.00224864052463
0.187052666536
0.604856408042
0.405435928709
0.000875401951567
0.501980811239
0.4676770559
0.451345893172
0.454615184924
0.452396474445
0.424001175246
0.327978533345
0.170074681627
0.0445263337748
0.00510008542557
0.00103473658424
0.000541087879765
0.000394664260657
0.000207078951366
0.000720551602832
0.105182103465
0.58275066384
0.626099644395
0.292103344751
0.000516187588108
0.501793844184
0.470691363381
0.420825388361
0.390333532694
0.369366273226
0.313735197525
0.180015607907
0.0559719193921
0.00842962573546
0.00107550763223
0.000550805184197
0.000473040849701
0.000394559300321
0.00047388583531
0.0697144696979
0.548852568106
0.626213870505
0.626984176759
0.229410447984
0.00027689815596
0.501211289477
0.475289866037
0.414525046496
0.353280149245
0.313252482804
0.239516026578
0.104730302614
0.0221600185051
0.00346897222093
0.000981918728967
0.00047328772998
0.000473164288897
0.000471092622206
0.0560819666703
0.524963467856
0.626213870505
0.63018990642
0.626213870505
0.204702156083
0.000187104758748
0.487439436054
0.468960534925
0.406014231855
0.323348146202
0.276355115988
0.21898248289
0.101262471799
0.0216719800366
0.00366700602093
0.00109003854484
0.000473411172948
0.000573597539283
0.0621600096914
0.523579457654
0.626099644395
0.63018990642
0.626213870505
0.605941492664
0.195299104877
0.000186923798372
0.448507566945
0.437768270904
0.378445887025
0.287724394472
0.25239609343
0.220384798881
0.113068102985
0.0274270689058
0.00519782173483
0.00139754238615
0.00183677068263
0.100297358084
0.55280473188
0.626099644395
0.630139806407
0.626099644395
0.629853284145
0.581448041372
0.223014749224
0.000187104758748
0.388965852992
0.377040170493
0.323131621051
0.259182506619
0.247497456044
0.236358190277
0.150992847787
0.0498860209693
0.0111492921031
0.0128155232842
0.186834670775
0.59384137763
0.626099644395
0.630069555087
0.626099644395
0.629460874894
0.626099644395
0.619133353273
0.323825930575
0.000317123388042
0.323207441385
0.301930535205
0.268885095214
0.258870742985
0.274733777584
0.320498488887
0.23661674952
0.10580138499
0.0865682536663
0.27937851334
0.617019202107
0.625943554121
0.630014468534
0.626099644395
0.628992262774
0.626099644395
0.628753375285
0.626099644395
0.479079531047
0.00704208423897
0.264003745324
0.243313181933
0.24484273505
0.29992683184
0.446201368887
0.522892476265
0.381990881759
0.249339192095
0.358705381089
0.617782831004
0.625929841578
0.629872999193
0.625943554121
0.628802897549
0.626099644395
0.627335739711
0.626099644395
0.626989827969
0.581704923176
0.0297247844241
0.22248914164
0.223516727725
0.297291285985
0.506965752694
0.656100294693
0.667007483631
0.502978879011
0.351485492759
0.478847494662
0.625929841578
0.62930126555
0.625929841578
0.628918519598
0.625943554121
0.62661188754
0.62113979001
0.600827527837
0.611472063177
0.593990236964
0.0517944150924
0.213090792692
0.255836343077
0.477147742846
0.647653302794
0.671424688132
0.672050387368
0.569625323813
0.351448602876
0.431986428488
0.614701309868
0.625929841578
0.62850269508
0.625929841578
0.626680024049
0.612593361525
0.545466226223
0.48605731007
0.517884172831
0.586278769239
0.0570259592274
0.216277725417
0.385705560893
0.584167863979
0.633712520035
0.664073041439
0.671424688132
0.6017557962
0.351014763293
0.352372689676
0.54326857483
0.626992564042
0.625929841578
0.626703242768
0.623418843396
0.5453254144
0.429535021696
0.336243924122
0.387270064329
0.564030975678
0.0423224499515
0.271308899135
0.495454253235
0.575007820851
0.576639641165
0.60750913041
0.671821684012
0.618079642282
0.350703335226
0.350370990861
0.440332918298
0.603081547896
0.6230534984
0.610936060445
0.562174101863
0.4413100792
0.308024046769
0.208347954004
0.333887915078
0.554743176639
0.0198198775311
0.351984826019
0.507004613525
0.527789287564
0.512378352933
0.540748569079
0.644303151479
0.653121151199
0.350275738574
0.350049650209
0.357449071985
0.51835425936
0.560958728165
0.52663484137
0.449563577358
0.321531863605
0.187561218369
0.182297296825
0.393382771984
0.44475233479
0.00504211217224
0.391258063623
0.480446915927
0.473058094914
0.468456412522
0.500204894942
0.608965867128
0.690770878499
0.458291341504
0.349704231716
0.349380528248
0.389477480744
0.426696240699
0.398342340786
0.340682630109
0.237847916435
0.18152670178
0.181692460075
0.402505366224
0.254913498631
0.00120192999254
0.388378292211
0.425628759399
0.426872915082
0.439270765256
0.475751309608
0.573085103122
0.690995113273
0.652491071962
0.456695282692
0.348989338342
0.296905646424
0.294843205347
0.281791670527
0.258183890858
0.211608992289
0.194070365603
0.323392441719
0.412206201336
0.115773979624
0.00120195099961
0.355941504321
0.368036761782
0.384413048625
0.410800207843
0.445977590806
0.516162620012
0.680336772318
0.672496802366
0.586103712195
0.42700521492
0.306966482498
0.256873148317
0.256845695057
0.256744903155
0.270863619202
0.449467835055
0.660145474779
0.415744604178
0.121459661996
0.00120192999254
0.301893201925
0.313352156474
0.337912596936
0.372285094213
0.400667949715
0.435910397218
0.582526928268
0.581091681526
0.528705079033
0.425388465987
0.326090692389
0.291226232098
0.321438035835
0.465919761066
0.661523125549
0.765990094098
0.78322311077
0.592272942587
0.242886399267
0.00203064850624
0.246764562531
0.259964603035
0.286283318189
0.324454631281
0.339948069262
0.334702394418
0.384007490763
0.378285866268
0.379309399073
0.417406675767
0.473827143021
0.559284195111
0.664304368843
0.756965936713
0.782276354878
0.783446641045
0.781969662045
0.623189384425
0.319812653738
0.00611524556023
0.1967332207
0.209235385555
0.234728161377
0.275800141958
0.277509676012
0.243752207851
0.238742385871
0.280686694681
0.452082663885
0.626847987675
0.723278621178
0.766766557705
0.783247632537
0.782562446819
0.783659604212
0.782276354878
0.782970436525
0.615477959531
0.375992048079
0.0115691899213
0.163188210134
0.170582241817
0.192470149776
0.232558977535
0.230571808458
0.195438294319
0.227665089584
0.447393374508
0.693855930886
0.767887409255
0.782868758391
0.784116612163
0.782868758391
0.783949441233
0.782562446819
0.783655529236
0.771785259763
0.596072028511
0.40417524909
0.0177174552953
0.156744819756
0.156980898057
0.167758368963
0.196939879371
0.196412776884
0.185041165788
0.313258424323
0.666588317081
0.772533452103
0.782868758391
0.783897136333
0.783173396327
0.78432755557
0.782868758391
0.783544298659
0.782562446819
0.712128759774
0.562003193299
0.409684104965
0.0231000091512
0.1566852315
0.15671583525
0.157153968132
0.171277807428
0.174902665462
0.17920081007
0.352080498292
0.706176710081
0.780194997094
0.783774253717
0.783173396327
0.784899178566
0.783173396327
0.783751486758
0.782868758391
0.783035081555
0.634320298665
0.531367947103
0.404167406511
0.0288683062532
0.15671583525
0.156561365752
0.156689769001
0.157979993757
0.163650129376
0.171573999785
0.316598581126
0.677063535151
0.780162491186
0.783173396327
0.785005331978
0.783457353736
0.784900170643
0.783173396327
0.783144406909
0.78168389584
0.599501476382
0.511207068435
0.40087117546
0.0365201762848
0.156620608954
0.156682437668
0.156506950749
0.156638463056
0.159094459613
0.163032816538
0.23017346321
0.561927575536
0.770931946852
0.784540699445
0.783457353736
0.785624862465
0.783457353736
0.783638088414
0.778629330163
0.75062949459
0.598898302261
0.503109215542
0.404145895992
0.0459088675576
0.156682437668
0.156506950749
0.156638463056
0.156468012603
0.156797192388
0.153702588161
0.159921943908
0.368938158363
0.731668517152
0.783457353736
0.785570766413
0.783761375397
0.78543630717
0.783457353736
0.757882960421
0.69585066537
0.591801128095
0.502669315379
0.411707832436
0.0567661251536
0.156584717579
0.156638463056
0.156434380354
0.156561731844
0.156499595967
0.145062786048
0.110723033228
0.204311059515
0.654498230992
0.784550205698
0.783761375397
0.786116949566
0.783761375397
0.778463214075
0.719774018656
0.64968543925
0.58013856246
0.503002960723
0.432323190907
0.0769740655521
0.156682437668
0.15651181508
0.159469566121
0.160997392433
0.156747869165
0.131195703701
0.10484910436
0.141000628984
0.593792671428
0.783761375397
0.785549242811
0.784063804205
0.785766234497
0.762508559644
0.672201460495
0.613989714328
0.555998536588
0.492651533976
0.466955459051
0.135482732991
0.1631383051
0.167967324403
0.170663618172
0.163537639921
0.144954639059
0.11249968763
0.104823061216
0.140192825757
0.596615710549
0.784540135745
0.784063804205
0.786389292462
0.784063804205
0.734843976415
0.62969171658
0.577162060929
0.507699734327
0.460359198556
0.466475962784
0.236266403035
0.183963573056
0.186550034927
0.174988490158
0.152536602841
0.122142576444
0.10478662353
0.104787164497
0.168276396174
0.655440670131
0.784063804205
0.785725266742
0.784345519554
0.786693913182
0.69175083515
0.588024571538
0.52053973172
0.428818590253
0.400404738184
0.451724383351
0.297819586732
0.204408417634
0.192317756793
0.165481775084
0.12828742891
0.106714128563
0.104765603118
0.104786097677
0.302610982853
0.740969770536
0.784899210827
0.784345519554
0.786482740078
0.784345519554
0.646370151756
0.543354357353
0.445391378656
0.330936605365
0.322867242666
0.391985810518
0.318664518123
0.209722466614
0.183975576156
0.139549186888
0.108423759865
0.104691931962
0.104741048655
0.134687795187
0.587560287169
0.777982132578
0.784345519554
0.785722741106
0.784647238101
0.78656502172
0.616721964388
0.493063790377
0.36425859094
0.233272092246
0.235690636959
0.316741120465
0.329225220764
0.203473660892
0.156760801804
0.111913550332
0.104636179195
0.104662622681
0.104691421217
0.335702756765
0.754270524631
0.784345519554
0.785199471564
0.784647238101
0.786109792019
0.784647238101
0.614956981363
0.453150309749
0.291176146158
0.154183982384
0.148595858831
0.241953663519
0.328765278009
0.177987468015
0.119550752962
0.104636179195
0.104632123814
0.104636179195
0.169884777844
0.654620188006
0.781554991691
0.784807595345
0.784647238101
0.78552590433
0.784947442532
0.785952820421
0.631692031623
0.435737739772
0.238194950835
0.102300747432
0.0739650539497
0.173171082407
0.321099375712
0.132154000758
0.104655787063
0.104639034457
0.104623084959
0.108831555795
0.426804419149
0.775164924616
0.784564490472
0.784647238101
0.785116564295
0.784947442532
0.785608057814
0.784947442532
0.645129355389
0.425144089924
0.202274418929
0.072132047407
0.0299547105421
0.110733108245
0.304812285339
0.113983559955
0.104632123814
0.104616174317
0.104613323306
0.208283832386
0.659658631404
0.783548453887
0.784647238101
0.784866019816
0.784947442532
0.785222556892
0.785226881991
0.785212929228
0.64222946999
0.403119325228
0.15767336951
0.0402597072609
0.00696766141226
0.0551684677384
0.246568689674
)
;

boundaryField
{
    emptyPatch
    {
        type            empty;
    }
    minY
    {
        type            fixedValue;
        value           nonuniform List<scalar> 0();
    }
    maxY
    {
        type            inletOutlet;
        phi             phi.gas;
        inletValue      uniform 1;
        value           nonuniform List<scalar> 
40
(
0.74379287072
0.639491274996
0.547219727734
0.432641148503
0.328578333463
0.273754274
0.24738901703
0.22758031452
0.210713666783
0.194919901664
0.179016716526
0.163356785114
0.151727136616
0.148568437574
0.150340781167
0.174093854625
0.229444581164
0.281417075897
0.255681336296
0.178814470142
0.113983559955
0.104632123814
0.104616174317
0.104613323306
0.208283832386
0.659658631404
0.783548453887
0.784647238101
0.784866019816
0.784947442532
0.785222556892
0.785226881991
0.785212929228
0.64222946999
0.403119325228
0.15767336951
0.0402597072609
0.00696766141226
0.0551684677384
0.246568689674
)
;
    }
    water_to_cooler
    {
        type            zeroGradient;
    }
    water_to_heater
    {
        type            zeroGradient;
    }
    procBoundary0to1
    {
        type            processor;
        value           nonuniform List<scalar> 
41
(
0.744483748374
0.22745576111
0.207970628291
0.208287263118
0.206936620775
0.208148674195
0.20613752216
0.208147990251
0.205718313455
0.208148674195
0.206012182966
0.208209831978
0.219175141544
0.33341261892
0.478916188627
0.559236740326
0.591138979517
0.595747933838
0.585768902124
0.580097036687
0.773645203533
0.773998765087
0.766727606671
0.738540074412
0.60896998398
0.334990855341
0.0906349538799
0.00735801552692
0.000124937224205
3.21109555126e-05
2.30307522135e-05
2.30314262959e-05
4.54757294299e-05
0.0412925707988
0.475372013323
0.0669565065934
0.601409706867
0.656662307317
0.71106762183
0.739487072757
0.739487072757
)
;
    }
}


// ************************************************************************* //
