/*--------------------------------*- C++ -*----------------------------------*\
| =========                 |                                                 |
| \\      /  F ield         | OpenFOAM: The Open Source CFD Toolbox           |
|  \\    /   O peration     | Version:  2312                                  |
|   \\  /    A nd           | Website:  www.openfoam.com                      |
|    \\/     M anipulation  |                                                 |
\*---------------------------------------------------------------------------*/
FoamFile
{
    version     2.0;
    format      ascii;
    arch        "LSB;label=32;scalar=64";
    class       volScalarField;
    location    "0.605/water";
    object      p_rgh;
}
// * * * * * * * * * * * * * * * * * * * * * * * * * * * * * * * * * * * * * //

dimensions      [1 -1 -2 0 0 0 0];

internalField   nonuniform List<scalar> 
1503
(
101620.38872
101617.023389
101616.515507
101615.905741
101615.306454
101614.744513
101614.224197
101613.751099
101613.330504
101612.960796
101612.640046
101612.364969
101612.13087
101611.93321
101611.768278
101611.632958
101611.524769
101611.44171
101611.382372
101611.345694
101603.592789
101608.69313
101611.802375
101613.207719
101613.431519
101613.35513
101613.168296
101612.950075
101612.720657
101612.493983
101612.285476
101612.10046
101611.936805
101611.79205
101611.665355
101611.556828
101611.466997
101611.396404
101611.345641
101611.315189
101591.716749
101598.734827
101605.146109
101608.86231
101610.450988
101611.171952
101611.476139
101611.58348
101611.600819
101611.57132
101611.518865
101611.461008
101611.405892
101611.354702
101611.307312
101611.264325
101611.227265
101611.198065
101611.17886
101611.171505
101582.29117
101589.898348
101598.761675
101604.610791
101607.729024
101609.348551
101610.120297
101610.461241
101610.617543
101610.698
101610.743369
101610.772331
101610.794996
101610.815505
101610.834535
101610.851998
101610.868411
101610.884918
101610.903203
101610.924891
101573.797142
101580.696201
101590.289199
101598.138495
101603.529206
101606.91482
101608.73309
101609.55328
101609.887707
101610.03858
101610.129007
101610.199318
101610.261675
101610.320703
101610.377792
101610.432591
101610.484661
101610.533938
101610.580935
101610.626239
101567.314579
101572.65006
101581.014361
101589.414362
101596.829115
101602.641554
101606.445993
101608.435956
101609.253469
101609.545633
101609.672524
101609.760865
101609.839803
101609.915191
101609.989056
101610.061323
101610.131237
101610.198019
101610.261307
101610.320802
101561.115537
101565.84493
101572.482177
101579.927935
101588.042668
101595.893285
101602.232458
101606.361206
101608.396914
101609.1229
101609.33943
101609.439523
101609.522511
101609.601488
101609.679066
101609.755598
101609.830434
101609.902597
101609.971365
101610.036006
101553.541591
101558.430127
101564.353947
101570.712558
101578.465224
101587.154125
101595.506578
101602.249369
101606.557685
101608.497661
101609.064052
101609.212333
101609.297581
101609.373738
101609.446687
101609.518003
101609.587822
101609.6556
101609.720815
101609.782707
101546.955899
101552.668907
101557.721801
101563.118961
101569.985296
101578.337819
101587.316188
101595.889685
101602.900873
101607.178732
101608.775633
101609.107122
101609.186439
101609.242542
101609.295375
101609.347657
101609.400254
101609.4531
101609.505918
101609.558076
101539.721607
101546.335458
101551.334551
101556.260342
101562.382146
101570.007221
101578.626321
101587.852346
101596.952486
101604.281179
101608.094276
101609.076231
101609.180927
101609.193344
101609.205173
101609.221707
101609.244107
101609.272403
101609.306236
101609.344873
101533.942616
101542.753475
101547.095947
101551.475243
101556.325983
101562.651279
101570.40782
101579.523028
101589.56862
101599.399408
101606.332374
101608.890899
101609.200435
101609.152465
101609.104934
101609.074669
101609.061441
101609.064139
101609.081275
101609.110937
101527.824284
101539.324601
101543.426621
101546.700577
101550.216068
101555.303487
101562.447806
101571.49043
101581.85031
101592.953002
101602.81657
101607.997746
101609.002542
101608.943423
101608.848832
101608.788004
101608.758073
101608.755295
101608.776038
101608.816438
101520.294464
101535.407369
101539.244406
101540.90479
101542.994463
101547.217857
101554.242145
101563.427806
101573.780154
101585.192065
101597.187089
101605.656204
101608.193237
101608.324464
101608.253883
101608.225468
101608.235846
101608.278114
101608.346513
101608.435443
101512.42654
101527.823074
101530.767388
101532.006138
101533.428593
101537.646775
101545.067828
101554.266426
101564.1606
101575.334426
101588.762908
101600.930391
101606.282151
101607.108374
101607.209683
101607.323421
101607.465604
101607.627513
101607.803568
101607.988595
101502.620006
101514.089026
101516.03701
101517.363038
101519.936162
101525.689067
101533.771971
101542.645711
101551.844727
101562.424517
101576.401175
101592.338955
101602.520856
101605.289319
101605.835274
101606.209269
101606.572767
101606.921148
101607.253576
101607.569364
101484.105779
101492.401568
101495.833285
101498.921941
101504.402844
101512.483695
101521.223715
101529.662365
101538.158347
101547.779538
101560.725801
101578.605782
101595.416262
101602.9042
101604.580572
101605.273479
101605.872194
101606.411584
101606.897659
101607.336528
101464.226271
101476.096081
101481.020148
101485.079801
101492.249049
101502.052445
101511.803804
101520.492731
101528.286899
101536.190219
101545.986334
101561.597725
101583.087627
101598.999562
101603.896966
101605.018595
101605.747629
101606.388591
101606.95437
101607.454121
101459.271718
101468.550874
101472.78735
101477.038501
101484.821339
101495.925383
101507.339715
101517.314201
101525.314863
101530.728129
101536.039114
101546.221984
101566.754595
101591.175356
101603.270295
101605.670346
101606.408921
101607.011276
101607.542215
101608.008805
101454.453164
101465.305121
101467.596453
101472.250249
101481.008926
101493.168545
101505.47061
101516.30512
101525.098366
101530.152248
101531.038982
101535.404557
101551.681149
101579.631131
101601.127185
101606.975414
101607.811503
101608.246744
101608.631894
101608.973257
101450.050297
101461.335434
101462.754703
101467.726877
101477.834145
101491.354191
101505.238251
101517.987306
101528.15083
101531.596895
101530.308383
101530.495332
101541.77267
101568.877256
101597.000963
101608.295927
101609.709917
101609.907971
101610.069567
101610.220369
101446.130956
101460.965785
101460.568235
101465.674852
101477.099916
101492.692309
101508.838685
101523.781229
101531.714323
101531.563869
101530.814218
101529.424897
101537.0262
101561.745957
101592.689572
101609.163426
101611.727863
101611.707531
101611.620822
101611.558266
101442.638242
101459.874966
101459.433444
101465.525057
101479.08261
101497.319624
101515.910085
101530.156291
101530.710466
101530.448432
101530.312227
101529.019197
101534.130739
101557.009005
101589.354994
101609.559214
101613.489411
101613.333976
101613.029744
101612.777475
101437.847942
101460.290852
101461.659916
101469.585855
101484.837646
101504.887273
101524.168552
101529.461158
101528.958999
101528.801933
101528.271417
101528.14324
101530.06469
101551.680861
101585.740227
101609.169793
101614.675614
101614.518708
101614.074019
101613.696431
101431.928158
101457.757721
101462.946487
101474.507651
101491.569977
101511.645907
101526.912368
101526.44654
101526.105609
101525.489031
101525.397317
101521.473596
101520.5719
101542.59529
101579.156182
101606.90268
101614.97868
101615.085042
101614.609782
101614.198852
101423.805303
101455.11156
101463.213276
101477.688284
101495.879929
101514.263322
101523.165955
101522.461843
101521.818417
101521.576019
101520.556031
101504.024958
101502.562352
101526.355327
101565.475131
101600.59753
101614.044754
101615.017162
101614.620137
101614.264213
101416.900145
101453.68867
101463.189774
101477.618185
101494.723377
101511.443033
101518.709869
101517.981934
101517.545998
101516.501158
101502.033925
101494.712419
101495.201337
101503.561675
101540.568316
101586.801065
101611.045285
101614.391019
101614.188194
101613.948045
101410.135495
101454.383458
101462.488282
101473.900546
101489.304727
101505.761498
101513.896622
101513.037829
101511.893942
101499.586793
101488.838042
101489.254147
101488.879234
101489.201228
101512.566132
101563.474784
101603.97185
101613.111244
101613.393988
101613.316544
101409.784988
101452.842979
101456.016265
101464.611238
101478.743476
101493.487362
101501.762425
101499.410131
101491.530729
101482.245836
101482.486503
101482.183906
101482.408402
101482.257473
101490.115355
101534.966842
101590.394495
101610.538799
101612.248404
101612.41623
101407.700686
101435.696199
101435.131456
101440.727975
101454.3977
101468.785149
101474.882419
101473.483148
101473.387364
101476.521237
101478.949595
101476.814253
101474.756947
101475.128775
101477.18092
101510.432331
101570.167335
101605.311631
101610.743603
101611.336643
101384.429183
101392.534875
101388.918003
101394.5928
101415.557628
101435.936529
101446.722341
101454.030242
101464.133448
101474.794387
101481.815653
101478.678938
101470.696692
101467.553987
101470.242785
101492.481063
101546.336643
101595.698041
101608.784314
101610.262704
101341.42533
101335.782836
101334.773677
101342.569508
101371.544147
101401.514407
101422.45791
101438.956793
101456.714912
101474.209419
101483.505628
101481.958896
101473.384991
101466.044934
101466.436233
101479.925915
101522.621093
101580.703666
101606.0007
101609.488468
101307.029287
101308.939398
101309.317002
101312.283659
101335.591093
101369.328637
101400.728581
101425.869083
101449.537858
101471.943031
101482.183694
101482.718934
101478.326205
101471.090963
101467.00669
101471.657557
101500.58106
101560.688021
101601.478065
101609.302769
101305.756079
101305.804498
101307.126233
101306.810898
101314.780486
101343.124208
101380.430721
101413.660339
101444.032099
101469.980129
101481.504412
101482.855943
101481.837359
101477.516569
101470.272876
101465.051763
101481.810856
101537.737357
101593.891727
101609.749349
101301.319738
101304.595481
101304.565774
101305.708845
101305.506086
101327.308544
101365.218255
101403.971733
101440.206241
101470.635492
101482.666496
101483.720677
101484.486567
101482.715577
101474.160773
101459.68234
101466.582698
101514.975634
101582.619907
101610.40125
101302.034601
101302.213184
101304.089158
101303.694229
101304.568164
101321.278525
101358.435208
101400.25267
101440.547916
101473.633426
101485.432484
101486.096806
101486.577382
101486.921277
101478.111364
101456.405687
101455.205619
101496.012972
101569.257209
101610.507739
101299.373363
101302.74987
101302.853171
101303.983858
101303.788926
101320.732165
101358.573802
101402.075404
101444.5606
101479.238758
101489.168845
101489.516298
101489.615883
101489.683789
101482.738698
101455.691795
101450.061042
101484.816046
101557.381466
101609.679799
101301.773484
101302.063284
101303.346222
101303.144979
101303.736839
101324.121057
101363.741438
101409.10061
101454.161321
101487.884201
101493.438309
101493.377202
101493.32846
101492.948688
101486.682705
101456.456978
101451.149032
101480.868622
101549.507706
101608.302482
101300.121208
101303.034338
101303.430593
101303.961714
101309.4796
101337.205477
101379.023599
101425.681749
101470.776125
101496.999308
101497.68235
101497.482211
101496.958531
101496.43296
101489.06157
101457.230701
101452.279587
101480.069487
101544.840012
101606.69843
101611.331283
101611.337746
101611.36236
101611.402772
101611.457388
101611.525151
101611.605517
101611.698301
101611.803666
101611.92202
101612.054058
101612.200807
101612.363885
101612.545833
101612.75012
101612.978689
101613.22835
101613.504543
101613.877559
101617.629768
101611.305303
101611.314964
101611.341704
101611.383079
101611.437288
101611.502856
101611.578623
101611.663579
101611.756873
101611.857793
101611.965933
101612.081377
101612.204874
101612.337374
101612.477869
101612.620448
101612.757909
101612.892185
101613.041322
101613.04931
101611.176585
101611.19374
101611.221902
101611.259382
101611.304571
101611.355851
101611.411775
101611.471022
101611.532512
101611.595467
101611.659558
101611.724838
101611.791304
101611.85755
101611.919015
101611.968934
101612.003973
101612.029497
101612.056281
101611.953735
101610.949773
101610.977418
101611.008228
101611.041833
101611.077479
101611.114234
101611.151296
101611.188013
101611.224047
101611.259369
101611.294267
101611.329004
101611.36317
101611.394711
101611.419948
101611.436498
101611.447762
101611.463515
101611.483838
101611.394174
101610.668306
101610.706015
101610.740716
101610.773202
101610.803635
101610.831988
101610.858319
101610.882781
101610.905763
101610.927802
101610.949473
101610.970968
101610.991568
101611.009237
101611.021529
101611.028514
101611.03539
101611.047717
101611.054848
101610.977271
101610.373841
101610.418629
101610.456924
101610.490121
101610.518986
101610.544126
101610.566186
101610.585826
101610.603819
101610.620899
101610.637608
101610.653902
101610.668821
101610.680496
101610.687517
101610.691641
101610.698654
101610.708526
101610.708684
101610.64901
101610.093281
101610.141126
101610.181323
101610.215322
101610.244155
101610.268699
101610.289853
101610.308473
101610.325431
101610.341425
101610.356833
101610.37139
101610.384047
101610.393278
101610.398711
101610.403367
101610.411846
101610.418624
101610.414878
101610.369417
101609.838148
101609.885122
101609.925024
101609.959043
101609.988126
101610.013108
101610.034871
101610.054225
101610.07195
101610.088583
101610.104302
101610.11868
101610.130697
101610.139265
101610.144958
101610.151495
101610.160688
101610.16422
101610.159289
101610.124472
101609.606869
101609.650083
101609.688249
101609.721935
101609.751661
101609.777947
101609.801431
101609.822708
101609.842345
101609.860663
101609.877651
101609.89279
101609.905179
101609.914233
101609.921371
101609.930259
101609.939207
101609.940272
101609.935666
101609.908434
101609.385516
101609.425075
101609.462646
101609.497714
101609.530063
101609.559682
101609.586825
101609.611775
101609.634849
101609.656154
101609.67555
101609.692504
101609.706328
101609.716993
101609.726598
101609.737842
101609.746024
101609.745833
101609.742197
101609.720399
101609.149361
101609.191617
101609.234665
101609.276668
101609.316569
101609.353798
101609.388234
101609.419892
101609.448902
101609.475256
101609.498785
101609.519061
101609.535711
101609.549308
101609.562371
101609.575822
101609.583368
101609.583121
101609.58067
101609.56283
101608.870774
101608.931241
101608.99253
101609.051894
101609.107818
101609.159497
101609.206718
101609.24947
101609.287916
101609.322121
101609.352066
101609.377576
101609.398722
101609.416703
101609.434092
101609.44965
101609.457178
101609.457798
101609.456626
101609.441761
101608.536826
101608.639741
101608.737708
101608.828507
101608.911217
101608.985589
101609.051908
101609.110599
101609.162211
101609.207169
101609.245827
101609.278437
101609.305643
101609.329262
101609.351479
101609.369095
101609.377374
101609.379421
101609.379571
101609.367044
101608.173169
101608.344541
101608.497575
101608.632869
101608.751664
101608.855353
101608.945494
101609.023496
101609.090697
101609.148174
101609.196861
101609.237592
101609.271681
101609.301479
101609.328342
101609.347826
101609.357386
101609.361022
101609.362437
101609.351821
101607.860274
101608.114369
101608.330858
101608.515316
101608.672516
101608.806387
101608.920343
101609.017166
101609.099237
101609.168445
101609.226403
101609.274583
101609.314977
101609.350273
101609.380668
101609.401426
101609.41224
101609.417207
101609.41964
101609.410591
101607.723047
101608.048208
101608.316953
101608.540262
101608.726623
101608.882548
101609.013283
101609.122917
101609.214788
101609.291497
101609.355238
101609.408028
101609.452411
101609.49107
101609.522904
101609.54376
101609.555118
101609.560734
101609.563698
101609.555858
101607.884578
101608.239416
101608.527684
101608.763666
101608.958094
101609.118998
101609.252659
101609.36386
101609.456415
101609.533256
101609.596846
101609.649511
101609.69408
101609.732756
101609.76322
101609.782477
101609.793093
101609.798335
101609.801131
101609.79407
101608.407329
101608.732861
101608.995247
101609.208515
101609.383168
101609.526997
101609.646029
101609.744783
101609.826823
101609.894853
101609.951188
101609.998131
101610.038423
101610.073259
101610.099371
101610.115112
101610.123438
101610.127134
101610.128963
101610.122175
101609.265334
101609.503743
101609.695922
101609.852154
101609.980249
101610.085968
101610.173772
101610.246938
101610.308046
101610.359029
101610.401653
101610.437873
101610.469898
101610.497464
101610.51674
101610.527285
101610.531918
101610.533008
101610.53314
101610.526091
101610.353068
101610.463451
101610.554226
101610.629458
101610.692475
101610.745691
101610.79103
101610.829808
101610.863102
101610.8917
101610.916556
101610.939017
101610.96031
101610.978466
101610.989518
101610.993878
101610.993938
101610.991737
101610.989681
101610.98189
101611.513099
101611.481535
101611.460646
101611.447364
101611.439817
101611.43653
101611.436488
101611.438774
101611.44278
101611.448051
101611.454669
101611.463196
101611.473505
101611.481968
101611.484865
101611.483063
101611.478459
101611.472845
101611.468474
101611.459601
101612.57392
101612.41637
101612.296818
101612.2058
101612.136695
101612.084445
101612.045343
101612.016454
101611.995691
101611.981558
101611.973384
101611.970869
101611.972319
101611.972797
101611.969121
101611.962295
101611.953804
101611.945284
101611.938887
101611.928801
101613.387401
101613.146033
101612.961181
101612.819187
101612.710172
101612.626569
101612.562794
101612.514542
101612.478793
101612.453437
101612.437306
101612.42924
101612.425995
101612.421912
101612.414526
101612.4048
101612.393971
101612.383622
101612.375871
101612.36468
101613.859415
101613.59337
101613.38964
101613.233658
101613.1145
101613.023662
101612.954867
101612.903364
101612.865925
101612.840368
101612.825321
101612.818843
101612.816417
101612.812343
101612.804948
101612.795126
101612.784046
101612.773346
101612.765193
101612.753226
101613.969922
101613.740133
101613.566166
101613.43545
101613.33807
101613.266103
101613.213738
101613.176692
101613.152243
101613.138629
101613.134529
101613.137365
101613.141832
101613.142826
101613.139467
101613.132661
101613.123669
101613.114291
101613.10683
101613.09459
101613.758232
101613.616306
101613.515253
101613.445745
101613.400048
101613.371838
101613.356632
101613.351332
101613.354284
101613.364505
101613.380926
101613.400548
101613.417894
101613.428946
101613.433591
101613.432887
101613.428316
101613.421941
101613.416281
101613.40438
101613.280496
101613.27206
101613.283096
101613.307855
101613.341527
101613.380182
101613.4214
101613.463898
101613.507554
101613.552469
101613.598022
101613.641121
101613.676785
101613.702415
101613.71865
101613.726853
101613.728836
101613.727004
101613.724177
101613.713271
101612.593171
101612.768379
101612.931992
101613.083649
101613.223048
101613.349928
101613.464933
101613.569357
101613.665137
101613.753802
101613.835465
101613.907401
101613.965784
101614.00962
101614.040316
101614.059689
101614.069958
101614.073931
101614.074792
101614.065528
101611.792427
101612.202333
101612.556862
101612.864361
101613.131538
101613.363585
101613.565487
101613.741991
101613.897674
101614.03588
101614.157818
101614.261682
101614.34535
101614.409493
101614.456321
101614.488204
101614.507812
101614.518378
101614.523485
101614.516427
101611.052542
101611.732536
101612.301727
101612.780842
101613.186243
101613.530319
101613.823524
101614.074774
101614.29171
101614.479805
101614.641686
101614.776968
101614.885579
101614.969767
101615.032544
101615.076854
101615.105807
101615.123025
101615.132471
101615.128006
101610.638779
101611.582899
101612.358379
101612.999395
101613.532978
101613.979323
101614.354649
101614.672124
101614.942447
101615.173234
101615.368651
101615.530016
101615.659329
101615.760176
101615.836266
101615.891036
101615.927944
101615.950896
101615.964148
101615.962379
101610.860969
101612.005617
101612.935657
101613.695788
101614.321793
101614.84035
101615.272405
101615.634532
101615.939856
101616.197699
101616.413536
101616.590321
101616.731792
101616.842464
101616.926512
101616.987673
101617.02958
101617.056244
101617.072054
101617.072712
101611.986226
101613.217233
101614.209259
101615.01484
101615.673701
101616.215775
101616.664403
101617.037856
101617.350451
101617.612315
101617.829622
101618.006507
101618.147807
101618.258425
101618.342648
101618.404234
101618.446753
101618.474083
101618.490532
101618.492939
101614.152952
101615.34022
101616.27504
101617.032332
101617.649087
101618.153987
101618.569608
101618.913676
101619.20006
101619.438422
101619.634733
101619.793559
101619.920006
101620.018762
101620.093811
101620.148601
101620.186371
101620.210609
101620.225298
101620.228396
101617.306053
101618.36844
101619.11982
101619.730366
101620.226847
101620.631613
101620.963075
101621.236029
101621.462105
101621.649069
101621.801672
101621.92402
101622.020636
101622.095422
101622.151648
101622.192137
101622.219534
101622.236703
101622.247068
101622.249539
101621.1463
101622.144416
101622.607498
101622.988015
101623.297718
101623.548574
101623.752123
101623.918313
101624.054943
101624.166625
101624.256015
101624.32595
101624.379667
101624.419832
101624.448677
101624.468142
101624.480078
101624.48654
101624.490202
101624.490638
101625.212137
101626.3809
101626.499222
101626.598628
101626.679049
101626.740623
101626.787065
101626.822415
101626.849704
101626.869582
101626.882133
101626.888353
101626.889769
101626.887544
101626.882681
101626.876086
101626.868691
101626.861639
101626.856721
101626.853755
101629.065852
101630.745253
101630.513117
)
;

boundaryField
{
    emptyPatch
    {
        type            empty;
    }
    minY
    {
        type            zeroGradient;
    }
    maxY
    {
        type            prghTotalPressure;
        U               U.gas;
        p0              nonuniform List<scalar> 0();
        value           nonuniform List<scalar> 0();
    }
    water_to_cooler
    {
        type            fixedFluxPressure;
        gradient        uniform 0;
        value           nonuniform List<scalar> 
37
(
101617.629768
101613.04931
101611.953735
101611.394174
101610.977271
101610.64901
101610.369417
101610.124472
101609.908434
101609.720399
101609.56283
101609.441761
101609.367044
101609.351821
101609.410591
101609.555858
101609.79407
101610.122175
101610.526091
101610.98189
101611.459601
101611.928801
101612.36468
101612.753226
101613.09459
101613.40438
101613.713271
101614.065528
101614.516427
101615.128006
101615.962379
101617.072712
101618.492939
101620.228396
101622.249539
101624.490638
101626.853755
)
;
    }
    water_to_heater
    {
        type            fixedFluxPressure;
        gradient        uniform 0;
        value           nonuniform List<scalar> 
61
(
101620.38872
101603.592789
101603.592789
101591.716749
101591.716749
101582.29117
101582.29117
101573.797142
101567.314579
101561.115537
101561.115537
101553.541591
101553.541591
101546.955899
101546.955899
101539.721607
101533.942616
101527.824284
101527.824284
101520.294464
101520.294464
101512.42654
101512.42654
101502.620006
101484.105779
101464.226271
101464.226271
101459.271718
101459.271718
101454.453164
101454.453164
101450.050297
101446.130956
101442.638242
101442.638242
101437.847942
101437.847942
101431.928158
101431.928158
101423.805303
101416.900145
101410.135495
101410.135495
101409.784988
101409.784988
101407.700686
101407.700686
101384.429183
101341.42533
101307.029287
101307.029287
101305.756079
101305.756079
101301.319738
101301.319738
101302.034601
101299.373363
101301.773484
101301.773484
101300.121208
101300.121208
)
;
    }
    procBoundary2to3
    {
        type            processor;
        value           nonuniform List<scalar> 
41
(
101302.575089
101307.080996
101304.237806
101307.316697
101325.04053
101359.943477
101403.59588
101450.367784
101490.99265
101502.373452
101501.575152
101500.957067
101500.474742
101499.355705
101488.707793
101456.388567
101453.132568
101479.425883
101540.20608
101604.137882
101630.315311
101630.150182
101630.008017
101629.884679
101629.778533
101629.687195
101629.607403
101629.536383
101629.473188
101629.417368
101629.368585
101629.326507
101629.29098
101629.26198
101629.239709
101629.225037
101629.217628
101632.306381
101634.926877
101630.315311
101634.377605
)
;
    }
}


// ************************************************************************* //
