/*--------------------------------*- C++ -*----------------------------------*\
| =========                 |                                                 |
| \\      /  F ield         | OpenFOAM: The Open Source CFD Toolbox           |
|  \\    /   O peration     | Version:  2312                                  |
|   \\  /    A nd           | Website:  www.openfoam.com                      |
|    \\/     M anipulation  |                                                 |
\*---------------------------------------------------------------------------*/
FoamFile
{
    version     2.0;
    format      ascii;
    arch        "LSB;label=32;scalar=64";
    class       volScalarField;
    location    "0.94/water";
    object      epsilon.gas;
}
// * * * * * * * * * * * * * * * * * * * * * * * * * * * * * * * * * * * * * //

dimensions      [0 2 -3 0 0 0 0];

internalField   nonuniform List<scalar> 
1504
(
2731.30001206
738.793986066
220.836586877
71.9468304832
25.4896336989
9.8569977096
4.19246133171
2.03436478092
1.18410982346
0.827439714795
0.687467550437
0.652857038286
0.655573751647
0.664484779627
0.704774408409
0.782787841562
0.767823535412
0.572176897036
0.264701269687
0.0496298967082
2648.53601864
719.699131672
217.71142114
71.7113806745
25.4488508441
9.71866796633
4.06347042356
1.95622445553
1.12756097631
0.770934116378
0.633160847267
0.599953479698
0.612074101781
0.630516065732
0.682316828063
0.799832044077
0.818424934146
0.641338924049
0.340254702947
0.0838077438731
2396.9230777
682.29180708
213.670538224
71.9635158099
25.5944841585
9.65768255152
4.0493778246
1.93523633258
1.08118755726
0.714472750131
0.574971119105
0.536402738265
0.548808123077
0.576106494721
0.635026448245
0.780249678724
0.832705718122
0.691932591325
0.408711100118
0.116198881811
2231.3940253
665.574807906
214.775897554
73.6060029739
26.1531829101
10.2127651914
4.33765781698
2.01065515568
1.06482218652
0.668023175446
0.51684222276
0.470817412885
0.476739543362
0.50466524348
0.568387832266
0.724904853226
0.809224540659
0.716371777759
0.449776574252
0.170249796229
2275.13133045
681.208210887
220.645099249
76.6833131567
28.3718197543
11.6811991363
5.00275889145
2.21554927177
1.09010241138
0.639372920397
0.470626896723
0.414182525094
0.409960609579
0.433965755731
0.497451142167
0.647336826012
0.759870441022
0.716727652273
0.479950843226
0.224787430045
2376.53146753
701.74477092
226.407540483
80.9085945836
32.503566812
13.9983161632
6.01076289653
2.53101697624
1.15482163426
0.633430596922
0.443561844773
0.375890476311
0.361287760081
0.378544609191
0.433425183374
0.568380733521
0.698917028471
0.70272189256
0.513008530241
0.276448737655
2342.10694238
698.74306182
228.511962397
84.2101816104
36.1503638116
16.7643160283
7.1064058334
2.86175032122
1.2340576705
0.646107920203
0.436003944144
0.358967001914
0.335676344245
0.346745922075
0.390344140871
0.503970841934
0.639793152215
0.686836047866
0.551742581404
0.327888786803
2266.39323801
684.888618458
226.376484113
84.996703287
38.047365507
18.4936626372
7.9425633477
3.100664044
1.2990427505
0.66880200217
0.443657343443
0.360287829179
0.330367935127
0.337621606749
0.371392586786
0.459120500022
0.589927869068
0.676554392909
0.597171730438
0.371560448857
2212.11175813
675.59625666
225.017368033
84.8695790055
38.3519984141
18.6559330648
7.94995027387
3.12235549551
1.32542217292
0.691851930572
0.45953044798
0.372176537056
0.338998487562
0.345335217041
0.367835768462
0.42921602721
0.548080004841
0.670490885549
0.642245036498
0.411861589091
2184.72266369
683.890490634
229.068758484
84.746215778
37.1118650776
17.3726811417
7.19401287613
2.87024001905
1.27557456521
0.696434254693
0.47297945265
0.385088109583
0.352722569326
0.360793572577
0.367939974155
0.405655130577
0.508458619248
0.660695397131
0.68370486269
0.456755870234
2250.79555521
731.08245222
243.23175107
87.2397887859
36.3581501682
15.75238581
6.29864977073
2.53924062529
1.19540754221
0.686775983817
0.479781325893
0.391137571206
0.362268226676
0.367676607797
0.356533962732
0.37591730783
0.466885142956
0.639772798624
0.710975954546
0.501650838867
2585.5286179
844.910759364
282.27745381
99.4959172822
37.9622511487
14.8144228724
5.72146938277
2.37312893224
1.15810065968
0.67980475079
0.478760980447
0.385977973206
0.357180489293
0.350172796551
0.330119343523
0.333728027834
0.419411309444
0.60077362295
0.714455053974
0.540452827523
3087.71339582
1055.39614433
358.841194455
122.203688077
43.2561172695
15.560828019
5.84846711335
2.45458392176
1.20136358809
0.699138920683
0.478895593723
0.37424035441
0.335276742994
0.315018677023
0.291109223309
0.28636825647
0.361323913356
0.545308708242
0.692008748215
0.568303121994
4102.37117319
1413.86095617
456.076010341
153.761427695
53.8460909874
18.9586811062
7.05254281375
2.92437880876
1.38419241985
0.76639300669
0.496418230614
0.367717266539
0.310262807232
0.278974034272
0.251931970081
0.245732340262
0.310213488315
0.48701048212
0.65299713931
0.586408387491
6468.55046939
1867.64860008
578.051002798
198.998915166
71.3631093104
25.4352611931
9.48377811942
3.87434442841
1.7602550612
0.912617017866
0.550198485245
0.380065873345
0.297590314318
0.254984789346
0.225263895186
0.220044199675
0.276731155908
0.442699332813
0.614119085776
0.599973886347
7635.32858736
2112.55067348
691.878783572
254.760448326
94.0455344164
33.8826262176
12.7178174369
5.20334820778
2.32487780882
1.15043496434
0.649743021453
0.417241244527
0.304333561863
0.248790405652
0.216515780107
0.211733394531
0.264005983611
0.421259332693
0.588900028699
0.613814268597
7191.99341533
2123.41831357
725.136930766
277.214054736
108.819735541
40.6470475314
15.8610916159
6.65727146222
2.99852673665
1.46257091792
0.789530785392
0.47718543875
0.330014319626
0.257696905457
0.224305146232
0.220171887076
0.270203651107
0.421797270231
0.582506342386
0.634130536466
6817.60163878
2027.0411826
693.039949864
266.071017578
105.70328412
42.2983747167
17.5033590186
7.67316716255
3.56092757963
1.75878602546
0.933059959813
0.544510887568
0.366004418799
0.281290299684
0.242770225031
0.240668079859
0.292759946882
0.437382702128
0.592540879072
0.664458673155
6828.75830204
1974.46986948
659.510768207
247.817059856
99.2635019878
41.3533497977
17.891949826
8.15316045474
3.91285675734
1.97612346603
1.04772538073
0.604153547474
0.40552513713
0.315173017509
0.274436991161
0.27111633175
0.322816195341
0.462609303161
0.614513061022
0.70755076056
7323.03077136
2008.42615739
647.877081802
239.500823722
96.8043805975
40.5727125106
17.8284619705
8.29827109783
4.08866828654
2.10276184631
1.11650649408
0.647661751018
0.44497329667
0.355709379967
0.315013305578
0.309598604165
0.356556641378
0.493111954281
0.644984984398
0.764173910336
7789.70068523
2150.78282262
701.150389069
260.264154157
102.054183395
41.7173653271
18.042381611
8.38172500069
4.16637165696
2.14453464567
1.13643648065
0.675336143562
0.484752161451
0.402120801764
0.362585289987
0.354175634788
0.394069572009
0.524982181147
0.681002324589
0.83154754383
7654.62092583
2235.93010976
767.871035938
286.77165005
111.173969032
44.3652183855
18.66987757
8.5235579828
4.17234748595
2.10289756402
1.11777347263
0.694474616789
0.527638774776
0.454335296184
0.415794975428
0.402844489019
0.433459727902
0.556305531965
0.719027508175
0.905910775866
7315.54109633
2251.93162317
797.370443855
303.279755863
118.405009172
46.9206356433
19.3885014276
8.61831543782
4.05462423425
1.98697811187
1.07856365362
0.713906620264
0.575719034698
0.51171499577
0.472889881678
0.45406004429
0.47144050409
0.587379065329
0.755785408573
0.982253710461
7122.16745732
2210.44746443
788.457210021
304.014252611
120.355762017
48.0078301071
19.6446545078
8.39704297153
3.76094922131
1.82422168202
1.03645171804
0.738881162845
0.628243473604
0.571801047691
0.531677718001
0.506202095327
0.506552754849
0.604817072373
0.78643471541
1.05108762786
7150.81942282
2139.96184751
756.807593404
292.53383305
116.814076214
46.8540143465
18.7624113699
7.64191771611
3.32654477702
1.64819625046
1.00274264338
0.768493886595
0.680370343213
0.630157557131
0.588515501515
0.557516944186
0.546093353765
0.611698276599
0.805054997219
1.09691723095
7217.65920263
2064.98874516
718.687612252
274.775399013
109.138353497
43.032710354
16.5428208244
6.52994195999
2.86389160169
1.49433223592
0.981445262321
0.796121027121
0.724066654931
0.679751595874
0.638474251792
0.60323031157
0.584038964952
0.611339992726
0.799418256725
1.09924043242
6903.82200197
1934.43787059
658.119101126
246.597567654
95.8857641661
36.4832238978
13.6561354572
5.42651570645
2.47840774784
1.38293039002
0.96741748597
0.811125120914
0.748112007878
0.710800512469
0.673370956889
0.636501579031
0.611197538172
0.61658060896
0.744418623559
1.04630353823
6108.90200576
1688.61631584
566.274961954
209.804753522
79.6822148997
29.7501000446
11.2266428336
4.62354199336
2.23302285841
1.31747269708
0.950790795221
0.801637561402
0.740004221734
0.709268229356
0.680611897155
0.646023854885
0.616218513292
0.606747140033
0.666964830743
0.939908465967
4755.72091227
1389.55738271
476.137680745
177.507626091
67.1633291312
25.2882345975
9.86513776919
4.28448286983
2.16131051944
1.29611316026
0.923987412173
0.760337143375
0.689715198265
0.661152576648
0.643442876895
0.617296643757
0.587267466319
0.56832584438
0.588569360642
0.759539262877
3688.46321075
1206.61579766
435.32459519
164.344175957
63.3446845663
24.7048673345
10.0810740107
4.4941019593
2.26273258556
1.31625023215
0.890898526679
0.692976868334
0.601993221748
0.565480274717
0.554124851161
0.539912495078
0.51699168409
0.496466446447
0.497162596894
0.577297869187
3639.4394877
1286.06602079
470.627658889
179.052904241
69.4336061872
27.8310758558
11.7768343901
5.3175586508
2.62064980215
1.44196748525
0.897428527158
0.636385708348
0.50978829834
0.451999842728
0.432823889511
0.426387753687
0.414123659711
0.400516185903
0.396910816522
0.436157511573
4400.77470685
1543.31296208
550.669125193
199.697324127
77.3064214094
32.5126269556
14.7106705609
6.89624018935
3.38908852061
1.77860301624
1.01396354883
0.641778129037
0.458634663311
0.367120608589
0.326084264813
0.313613198362
0.308175733012
0.304355079593
0.305969186
0.329581731166
5191.78328756
1689.38744171
574.310397463
211.641442891
85.6277103813
38.3262128451
18.8933040063
9.32491156837
4.67275005534
2.39688523581
1.28917283981
0.747581307142
0.479995317079
0.342929854419
0.271406912052
0.24102672284
0.232006969974
0.23276208704
0.239752656051
0.258585836674
4697.69923058
1429.912346
502.52522535
198.426230567
87.8752506734
43.97104375
24.0460346913
12.9083732884
6.51025492321
3.30256914038
1.72534529068
0.956472854319
0.576404231137
0.380457973986
0.27265395196
0.218848627194
0.197824283652
0.194991082927
0.202371457505
0.21884900826
3934.1790969
1216.58657314
435.515233092
178.908191813
84.2799154653
45.4055033192
26.7185020918
15.5489372097
8.31544668567
4.3133765785
2.25379342237
1.23164251778
0.725084425663
0.461050609941
0.313215623694
0.234151853813
0.197486057019
0.185958359566
0.189151247039
0.202236634958
3412.70372865
1054.3682553
380.474202292
159.33493379
77.5361677008
43.5322283926
26.7696894258
16.4033613146
9.23913341147
4.97083345741
2.65728619656
1.47028328917
0.870476120413
0.551736279299
0.369543121527
0.268298138889
0.217142271173
0.196038201584
0.193091079683
0.201601887434
3075.5544689
948.089992659
340.810748621
141.831695275
69.0113983408
39.2189068917
24.6456420493
15.5422110679
9.12121456614
5.10076042532
2.81733374337
1.60311238104
0.972195658774
0.627514720632
0.424606566958
0.308398734552
0.246568073209
0.217393285991
0.208258485045
0.211687131364
2973.87521835
909.023729283
319.464866422
127.500341974
59.6810746631
33.4425735726
21.1269635811
0.00135505378918
0.00182958251069
0.00291177465264
0.00528419792785
0.0104096862084
0.0208259449133
0.0393358506343
0.0663876447478
0.0990875999622
0.134093804333
0.170134901355
0.208821919798
0.255880133404
0.325474591814
0.456071101574
0.777952740335
1.79591738511
0.00928757362733
0.00229463326508
0.00142326080092
0.00152777829381
0.0021143426784
0.00346359678668
0.00639696244816
0.0125695179402
0.0245450425875
0.0445133559666
0.0718767192727
0.103424756984
0.136256976805
0.169533380116
0.205002072789
0.248185819689
0.31246688784
0.433572302076
0.73095827358
1.67215656598
0.0127352349931
0.00311516365218
0.00163988799231
0.00173722064237
0.00246396249686
0.00414238453252
0.0077402882527
0.0150753141748
0.028600639124
0.0497473324778
0.0770384277515
0.107209492919
0.137822834834
0.168396774657
0.200763922905
0.240226146278
0.299420665077
0.411524518875
0.685493908212
1.54900274452
0.0159866437685
0.00450366350956
0.00192445272907
0.00199399268365
0.00289543497955
0.0049760470337
0.00934967228063
0.0179447261532
0.0329495997322
0.0549584338731
0.0818364346308
0.110459287775
0.138836937313
0.166781275304
0.196168065989
0.232066101928
0.286405498973
0.390025118717
0.641950972188
1.42885284307
0.0229550876568
0.0066616986308
0.00230914816013
0.00231212893474
0.00343011789173
0.00599741751526
0.0112621383027
0.0211864319402
0.0375383496389
0.0600760141509
0.0862467418075
0.113194032946
0.139340891565
0.164737178511
0.191269691445
0.223765931973
0.273485198082
0.369142303285
0.600568463777
1.31360572317
0.0425641061353
0.0089605658871
0.00284474148892
0.00270991660244
0.00409430082286
0.00724413669562
0.0135139280526
0.0247967507592
0.0423044033845
0.0650375495886
0.090252598884
0.11543281834
0.13937124814
0.162308794011
0.186118204474
0.215380356315
0.260715136488
0.348922892866
0.561499313301
1.2048259649
0.0649563518746
0.00973559262959
0.0036063636694
0.00321111368219
0.00491973867431
0.0087579911717
0.0161370237922
0.0287566263291
0.0471784320046
0.0697873679977
0.093841009595
0.117192393029
0.138959538444
0.159534838253
0.180757228439
0.206957146718
0.248142029303
0.329391645277
0.524799006802
1.10363294
0.0931752039805
0.0100687281455
0.00465753049826
0.00384759210996
0.00594454996939
0.0105836993449
0.0191546980929
0.0330295960262
0.0520862057151
0.0742745834925
0.0969997954951
0.118485844941
0.138131843347
0.156448148839
0.175223807916
0.198536121054
0.235801227023
0.310552070548
0.490431051678
1.01063952401
0.134215017893
0.0137955895804
0.00590634232671
0.00466299165316
0.00721289292151
0.0127649043115
0.0225743166878
0.0375588999044
0.0569478721661
0.0784488076218
0.0997136667241
0.119320183544
0.136907215201
0.153074104375
0.169546472419
0.190146118819
0.223714637823
0.292385522098
0.45827894581
0.925979940637
0.176419926819
0.0240161939346
0.00698691462019
0.0057145021831
0.00877170365567
0.0153354920003
0.0263771636567
0.0422637969952
0.0616753977301
0.0822558531772
0.101961486202
0.119695379805
0.135297546036
0.149430727793
0.163745128066
0.181805050806
0.211889811378
0.274855860053
0.42817478768
0.849442953009
0.218071339186
0.0403421548029
0.00754251890467
0.00706544339483
0.0106654511156
0.0183086215193
0.0305105066866
0.0470404282911
0.0661744790844
0.0856397388622
0.103720217345
0.11960955193
0.133313027967
0.145533750664
0.157835693813
0.17352392597
0.200325646181
0.257918314586
0.399933075439
0.780681484227
0.258285377716
0.0546241871584
0.00787562581194
0.00874485075703
0.0129318147142
0.0216689665232
0.0348892098023
0.0517728714337
0.070355855657
0.0885539342342
0.104976466671
0.119069877802
0.130971700272
0.141404780053
0.151837248917
0.165314166443
0.189019369689
0.241530480887
0.373377768377
0.719414590109
0.297205902324
0.0819313233681
0.0092271368198
0.0106159073445
0.0156061144841
0.0253764464432
0.0394121021798
0.0563549174061
0.0741538842972
0.0909770298913
0.105739535104
0.118102826001
0.128307117116
0.137076981566
0.145776663127
0.157191692279
0.177972060664
0.225656931924
0.348345728073
0.665537978209
0.336253347961
0.117068645308
0.0137200138336
0.0120754770553
0.0187327963708
0.0293851760422
0.0439892127168
0.0607146674317
0.0775436836236
0.0929244456167
0.106049043711
0.116758687172
0.125370764983
0.132596405483
0.139689609617
0.149178650975
0.167190102497
0.210271437497
0.324676789121
0.619097094399
0.370088234403
0.158634032027
0.0248777577216
0.0120851211763
0.0223430457136
0.033678471173
0.0485740366395
0.0648359575015
0.0805524075233
0.0944533532878
0.105975896174
0.11511018704
0.122229570082
0.128019200746
0.133618013281
0.141300962224
0.156684454361
0.195356487196
0.302196547146
0.580089620061
0.411736818318
0.207823111966
0.0389537399768
0.0108325368683
0.0262652302148
0.0383199562963
0.0531933660379
0.0687682108329
0.0832563208762
0.0956530215852
0.105609442698
0.113238664772
0.118952400528
0.123399124638
0.127598605735
0.13357783177
0.146458728949
0.180888300428
0.280678090106
0.548113287149
0.459519845226
0.263458737168
0.0613286314062
0.0109855197913
0.0295429377058
0.0434781542221
0.057936600097
0.072593237881
0.0857394326895
0.0966031607478
0.105019172697
0.111200503513
0.115581411621
0.118763188738
0.121641803882
0.126002193591
0.136491302669
0.166819453527
0.259819305356
0.521994212245
0.511378863976
0.322649157202
0.097954137416
0.0150570905765
0.0300884600313
0.0493488436323
0.0628910569188
0.076350731982
0.0880264370886
0.097319728289
0.104213358295
0.108996469066
0.112109271565
0.114094016882
0.115716661591
0.118526482012
0.126720618364
0.153071364455
0.239278886699
0.499642248428
0.570791675966
0.376157556237
0.142527681707
0.0247170400433
0.0273421832278
0.0559584826251
0.0681089883269
0.0800086192755
0.0900679001433
0.0977542523892
0.103148002822
0.106585242377
0.108492957732
0.109340768295
0.109757254141
0.111063902328
0.117042916711
0.139533016249
0.218736766969
0.478269844379
0.644317934571
0.440574204713
0.196176562535
0.0385296310522
0.0245123259069
0.0629576679201
0.0737087992355
0.0835492665993
0.0918199281964
0.0978669570607
0.101791424709
0.103937706513
0.104696856165
0.104451380647
0.103685425037
0.103503187451
0.107317891233
0.12605275558
0.197860851099
0.454825650579
0.736980498457
0.525907795046
0.26392440221
0.0567246078
0.0250006759194
0.0693053904366
0.0800622528922
0.0871066345227
0.0933443529357
0.0977009465144
0.100179210964
0.101078463353
0.100726918618
0.0994054028468
0.0974463463135
0.0957456033217
0.0973976039844
0.112439513544
0.176301715979
0.42627221889
0.848464884429
0.637950927489
0.352210499216
0.0953964433408
0.0312144409588
0.0720067862402
0.0879124737528
0.0910744157826
0.0948660475373
0.0974155777686
0.0984374412052
0.0981071562939
0.0966542655356
0.0942410220693
0.0910434814446
0.0877732379595
0.087286456573
0.0987742991537
0.154213617986
0.390144690396
0.97379724646
0.777840587719
0.465339043287
0.157334460421
0.0479584474269
0.0664303544269
0.0980045728716
0.0962022463685
0.0968077161507
0.0973040943152
0.0967989191734
0.0952202777339
0.092652443027
0.0891420626015
0.0847681315268
0.0801680893798
0.0780078604253
0.0864253848073
0.1330888363
0.345523684392
1.10677486186
0.94486087962
0.610113883683
0.244109477245
0.0799325178404
0.0559639845376
0.108718997718
0.103702365655
0.0998332676066
0.0978075512706
0.0956227406609
0.0927651983026
0.0891249783411
0.0846814262479
0.079537868781
0.0743231065519
0.0712446364679
0.0767648248841
0.113244712786
0.290366395954
1.23834045597
1.13078406367
0.757321355412
0.354775040128
0.109872852537
0.0554628287439
0.109644256868
0.114833464575
0.10483368458
0.0993846621822
0.095227330299
0.091090139519
0.0866210365746
0.0818239395926
0.0769722318255
0.0727093462723
0.0703757975121
0.0736664878588
0.0979727178413
0.227077493164
1.35199298176
1.31121702768
0.920647096366
0.488346438815
0.183250963367
0.0793484995944
0.0896460665261
0.127330954625
0.113197848599
0.102785217476
0.0961470434787
0.0907265675192
0.0856916098158
0.080965164116
0.0769427038858
0.0744745461097
0.0749138196267
0.0803344815178
0.0971646641942
0.170999901575
1.42117628347
1.45785743626
1.09470787739
0.645406603649
0.288167815706
0.122469942374
0.0718025156673
0.124877283826
0.126083982264
0.109805531345
0.0999863334749
0.0935249100152
0.0886146083998
0.0848574109689
0.0826339156197
0.0830618424299
0.0882731503328
0.10141890393
0.121980805413
0.136462753592
1.41624375304
1.54537171636
1.25296219233
0.790965731629
0.420389575877
0.179421331867
0.093301442422
0.0934350605945
0.1362309471
0.124248139656
0.111300401003
0.105257701216
0.103092412194
0.103665660185
0.107232286488
0.115689333711
0.132207497001
0.163287946933
0.207072881073
0.173610817051
1.3113013782
1.53866477308
1.3485294851
0.933823768706
0.577290242995
0.291496699027
0.131498406682
0.0782283188299
0.116060650463
0.14682854304
0.139808709629
0.137903522098
0.143742171366
0.155112399519
0.171097696356
0.193856052622
0.231426917128
0.298062366877
0.405644901055
0.477638708581
1.1139397689
1.41278072795
1.35514840944
1.05155453363
0.722719749502
0.437589490225
0.213538142718
0.118671191232
0.079591510387
0.145111417163
0.189350832569
0.201265839126
0.219022833297
0.242779033402
0.274094293625
0.320138304276
0.395183255492
0.524923164934
0.744204836238
1.02978958184
0.870730128986
1.1807396369
1.26198610814
1.11249905566
0.865560163483
0.600144034542
0.341172218649
0.161061487097
0.101462563066
0.0958772311601
0.205178627559
0.284662809271
0.318726977185
0.357185875412
0.41063352856
0.490504465703
0.621101200249
0.846857833826
1.24451522778
1.90371911847
0.610185283569
0.906745297256
1.08647385191
1.10646626776
0.990979565436
0.760423800479
0.496652210495
0.266257710101
0.132103657017
0.101239682656
0.130788296387
0.304892588713
0.436822199807
0.507280381411
0.585679990453
0.701523360426
0.898181145309
1.24971212717
1.90015234644
3.13128180779
0.418671637974
0.656481756038
0.875237301889
1.03201044252
1.05987552334
0.900139359225
0.643524296178
0.412229657624
0.231335247723
0.133508929794
0.123240556135
0.17960930051
0.444892303341
0.694062662341
0.798363742037
0.946360928173
1.21112469022
1.70101951001
2.67069747704
4.68654425728
0.310522579033
0.451530497636
0.679720338953
0.901890674288
1.03272522164
0.976741468686
0.791464431935
0.578989604052
0.394613458617
0.256818000035
0.175475708599
0.195068350738
0.251133872986
0.37227903705
0.256952684498
0.336674956972
1.52580128382
2.15673218216
3.48564279663
6.51416667233
0.254113028983
0.337748348056
0.510362388864
0.752652225297
0.936782249894
0.977190202908
0.886380246652
0.736269778782
0.599808335218
0.487476912979
0.384625298902
0.320941841661
0.352381270265
0.382709918201
0.341107641717
0.212648880408
0.54870662531
2.49960366405
4.18494025052
8.38920704078
0.228579372377
0.284283481154
0.399950058843
0.616209807307
0.825152081565
0.92818177938
0.924459160925
0.852051456738
0.759233547647
0.678371599015
0.644478991362
0.694666116454
0.829723022805
0.707637676093
0.457089984345
0.258288649095
0.244203599702
1.54468980255
4.57425512835
9.7165364985
0.221701279275
0.26221314757
0.344583501188
0.505780641328
0.724265483808
0.87029070783
0.927617941517
0.92081211432
0.878883230986
0.861855148798
0.968793141799
0.990515524866
0.750545440121
0.607227790485
0.532482953552
0.325981157409
0.258038766255
0.484070061238
4.72622531738
10.1032471373
0.226400464203
0.25725199336
0.318709676171
0.439532987913
0.638648109635
0.820963721542
0.917568769178
0.95570175233
0.980695967766
1.07055146874
1.07154878925
0.875472685026
0.728844359301
0.663848396217
0.598580611389
0.414325904205
0.28925500995
0.444635819902
4.71025953222
9.72002274669
)
;

boundaryField
{
    emptyPatch
    {
        type            empty;
    }
    minY
    {
        type            fixedValue;
        value           nonuniform List<scalar> 0();
    }
    maxY
    {
        type            inletOutlet;
        inletValue      nonuniform List<scalar> 0();
        value           nonuniform List<scalar> 0();
    }
    maxX
    {
        type            epsilonWallFunction;
        blending        stepwise;
        value           nonuniform List<scalar> 
38
(
17.1851504209
16.1495316897
15.143400149
14.1743989218
13.2487184997
12.3709289011
11.5436502097
10.7674841179
10.0412881306
9.36287602558
8.72996044103
8.14085459743
7.59469792864
7.09119427869
6.62975364433
6.20844670554
5.82309275203
5.46742006527
5.1345714438
4.8175638491
4.50575729503
4.19570858169
3.88378337869
3.5294628665
3.095622166
2.80177263116
2.98561616615
4.45360324519
8.72420900083
16.2746623667
27.4964700296
42.2624312455
59.6947509267
78.3447888253
95.5597498096
107.601995269
114.532744337
118.580513959
)
;
    }
    water_to_heater
    {
        type            epsilonWallFunction;
        blending        stepwise;
        value           nonuniform List<scalar> 
60
(
7653.15129093
7653.15129093
7233.3148951
6560.27545209
6300.67719159
6300.67719159
6564.42219456
6564.42219456
6921.85361193
6921.85361193
6890.40007972
6732.6514329
6605.19726347
6605.19726347
6660.00406938
6660.00406938
7229.01520874
7229.01520874
8648.07728053
11037.3653827
16261.8005222
16261.8005222
25239.5100191
25239.5100191
29540.2664452
29540.2664452
29060.633986
27997.9369735
27957.8703948
27957.8703948
29316.0014708
29316.0014708
30297.7892158
30297.7892158
29181.9943992
27621.6525956
26559.1168266
26559.1168266
26122.8402042
26122.8402042
25188.8319423
25188.8319423
22890.7761159
18579.0688146
13530.1635296
13530.1635296
10864.5627699
10864.5627699
11829.8722331
11829.8722331
15652.3168193
19390.2435208
18418.6731945
18418.6731945
15923.0013383
15923.0013383
13902.165894
13902.165894
12599.4901269
12366.8783002
)
;
    }
    procBoundary3to1
    {
        type            processor;
        value           nonuniform List<scalar> 
41
(
13.4919988585
8.20239238748
4.76851666457
2.73639458112
1.6181811851
1.01793696229
0.677473952477
0.469645133894
0.347563556659
0.280056303322
0.245293828515
0.230783583874
0.228950449218
3438.77966669
968.455550573
318.933764553
118.140184011
51.3362607041
27.5931117802
13.4919988585
17.2118311049
0.238469629607
0.262097429195
0.309415260808
0.403347688054
0.571828901819
0.773213238797
0.899635628395
0.971481288866
1.04289069983
1.08161915757
0.961645983515
0.842962788214
0.781206801045
0.745350276855
0.681937299983
0.442126288895
0.327309571709
0.548154754022
4.88407762528
9.0476431224
)
;
    }
    procBoundary3to2
    {
        type            processor;
        value           nonuniform List<scalar> 
41
(
2692.66622857
736.232861891
221.051411271
71.9161073004
25.5459356823
10.0055875762
4.33755403785
2.11931706159
1.23077745727
0.868126578106
0.728896966411
0.695520986455
0.691411333777
0.688955895627
0.709022764796
0.740764227094
0.688166854178
0.492274614481
0.189791379785
0.0240660735648
0.00121103389389
0.00159631449617
0.00246361667349
0.00436930313827
0.00857235344302
0.0174752154468
0.0343023552603
0.0606266136136
0.0941889859539
0.131287099032
0.170141201849
0.212159344973
0.263244350803
0.338378213595
0.478929399387
0.826151628271
1.91974798942
0.00619469950668
0.0017894108741
0.0012534282023
0.0012534282023
)
;
    }
}


// ************************************************************************* //
