/*--------------------------------*- C++ -*----------------------------------*\
| =========                 |                                                 |
| \\      /  F ield         | OpenFOAM: The Open Source CFD Toolbox           |
|  \\    /   O peration     | Version:  2312                                  |
|   \\  /    A nd           | Website:  www.openfoam.com                      |
|    \\/     M anipulation  |                                                 |
\*---------------------------------------------------------------------------*/
FoamFile
{
    version     2.0;
    format      ascii;
    arch        "LSB;label=32;scalar=64";
    class       volScalarField;
    location    "0.94/water";
    object      T.gas;
}
// * * * * * * * * * * * * * * * * * * * * * * * * * * * * * * * * * * * * * //

dimensions      [0 0 0 1 0 0 0];

internalField   nonuniform List<scalar> 
1504
(
402.012614364
335.791082951
311.926473376
304.010318116
301.457572156
300.6166987
300.30915172
300.175221314
300.105104393
300.062197643
300.033156114
300.013563076
300.003582394
300.000644303
300.000094614
300.000008821
300
300
300
300
399.698446198
335.864780587
312.078294848
304.053279853
301.445363614
300.596164699
300.295982872
300.170673755
300.105720091
300.064943333
300.035797423
300.015167658
300.004023853
300.000664501
300.000086291
300.000006624
300
300
300
300
393.652973224
334.491553048
311.929683116
304.04260698
301.408781894
300.560164178
300.277583014
300.166299143
300.107849074
300.068813921
300.039192579
300.017097983
300.004493663
300.000672487
300.000074502
300.000004565
300
300
300
300
388.474373637
332.906015488
311.587268582
303.970927646
301.36176965
300.524328514
300.263892252
300.166684661
300.11317417
300.074662342
300.043703582
300.019479856
300.005054469
300.000686538
300.000064731
300.000003608
300
300
300
300
387.567609507
332.307254078
311.525170404
304.058131685
301.409123088
300.533093238
300.268571888
300.175290399
300.122797222
300.082939658
300.049602281
300.022576379
300.005873266
300.00075541
300.000065173
300.00000425
300
300
300
300
389.839352566
333.407730634
312.258778352
304.482286808
301.61641017
300.61358666
300.298733679
300.192834326
300.1365301
300.093537345
300.056899101
300.026537214
300.007111298
300.00094291
300.000085293
300.000006935
300
300
300
300
391.499360698
334.371224043
312.943990266
304.912198563
301.843955731
300.71600475
300.34190495
300.215326241
300.152242487
300.105293615
300.064955979
300.031035494
300.008746769
300.001277892
300.000132724
300.000012568
300
300
300
300
392.282180666
334.599012017
313.079324297
305.024154314
301.921985263
300.766382609
300.372804031
300.234854939
300.166422489
300.115988668
300.072333749
300.035217079
300.010480269
300.001697224
300.000202122
300.000021354
300.000000473
300
300
300
392.081437294
333.934930796
312.571554165
304.758274972
301.80715942
300.7383892
300.377714298
300.245402893
300.176247276
300.123769348
300.07765856
300.038179895
300.011847295
300.002081554
300.000271833
300.000030551
300.000001273
300
300
300
389.582781522
331.914226866
311.253060797
304.067615536
301.511385185
300.644154815
300.358652433
300.246215131
300.180929804
300.12798021
300.080286138
300.039514943
300.012554963
300.002323052
300.000315542
300.00003555
300.000001664
300
300
300
385.453422585
329.929952304
309.794891821
303.197804387
301.143711433
300.529569626
300.329884199
300.241469213
300.181802843
300.129102324
300.080075535
300.039314298
300.012531465
300.002367818
300.000320502
300.000034074
300.000001459
300
300
300
382.850593743
328.832460995
308.469570938
302.336565187
300.842271626
300.440069129
300.307136578
300.237112753
300.181277066
300.128092546
300.078613826
300.038553798
300.012293088
300.002398418
300.000323081
300.000031889
300.000001381
300
300
300
381.367775549
328.330107866
306.854475436
301.705697291
300.667772924
300.399179494
300.301043952
300.238663934
300.183119452
300.128806573
300.079118623
300.039186682
300.012862506
300.002629809
300.00037147
300.000036585
300.000002414
300
300
300
388.782450505
329.48174502
306.147662282
301.531389779
300.6247869
300.403208792
300.314340068
300.251247341
300.192844826
300.136585567
300.085310184
300.043355152
300.015175661
300.003403542
300.000541971
300.000062666
300.000006254
300
300
300
429.589384658
339.31233806
310.49568181
302.46304005
300.844394242
300.479880185
300.352412272
300.276127825
300.211715733
300.151561364
300.096857706
300.051400473
300.019667977
300.004966265
300.000922654
300.000131026
300.000016367
300.000000936
300
300
480.806084798
354.652532856
316.868871982
305.017629197
301.577066302
300.69046296
300.426412346
300.312649402
300.236859284
300.170806051
300.111416305
300.061822472
300.025982648
300.007412044
300.001584009
300.000267969
300.000038678
300.000003801
300
300
502.328112236
365.436061204
321.628075144
306.94843455
302.336812988
300.946530748
300.524096955
300.356954421
300.263671607
300.191210289
300.126483776
300.072429737
300.032711047
300.010486028
300.002502627
300.000478499
300.000076303
300.000009105
300
300
510.832712466
368.883256154
322.444284945
307.207039984
302.479199954
301.103838949
300.605800425
300.397001187
300.286433915
300.207140491
300.137868605
300.080419007
300.038042222
300.013333278
300.003482202
300.000721612
300.000122119
300.000016484
300
300
512.643661786
366.284253657
320.446651724
306.49084138
302.492502084
301.182047064
300.658923829
300.426035103
300.302600928
300.216926318
300.144105864
300.084717178
300.041049702
300.015262499
300.004244332
300.000920429
300.000156148
300.000022029
300
300
511.583993604
360.013143181
317.361049759
305.859258086
302.493693681
301.224976704
300.690041797
300.443707838
300.31168549
300.220113779
300.145085403
300.085224183
300.041847165
300.016040033
300.004705341
300.001055758
300.000183193
300.000025696
300
300
504.088818829
359.233918075
317.452428383
306.332408274
302.690147138
301.306381579
300.724389864
300.45840485
300.315985985
300.21755033
300.141771399
300.082877016
300.04082404
300.016020722
300.004838457
300.001134861
300.000198902
300.000027911
300
300
480.85562332
358.096400133
319.743065508
307.442988578
303.132129366
301.468192018
300.782886434
300.478248097
300.316374762
300.211780986
300.135855803
300.078869226
300.039024024
300.015498642
300.004825449
300.001156373
300.000209515
300.000029433
300.000000023
300
457.529278978
357.914616761
321.833580131
308.726428723
303.707736519
301.697026158
300.868386484
300.501253572
300.313798081
300.203988338
300.128886266
300.074660609
300.037087018
300.015010464
300.004747086
300.00117143
300.000214129
300.000030653
300.00000006
300
446.459131856
357.400680955
323.019744819
309.658191245
304.204176481
301.922564601
300.949886987
300.51240752
300.30744894
300.19467079
300.1221119
300.07092032
300.03577202
300.014709553
300.004768553
300.001187101
300.000222672
300.000030236
300.000000065
300
448.090424496
356.392297371
322.92981874
309.873262599
304.398645697
302.017799138
300.955164761
300.499386605
300.292449915
300.183742406
300.115801624
300.068406719
300.035183635
300.014887097
300.004901781
300.001241648
300.000231195
300.000030289
300.000000138
300
455.753556148
356.160068026
322.532046406
309.713425911
304.311252197
301.905278534
300.882702257
300.4584171
300.269813637
300.171972876
300.111071661
300.067264408
300.035763842
300.015546239
300.005248465
300.001326084
300.000243758
300.000029583
300.000000129
300
459.680708347
356.386084112
322.031641066
309.276694761
303.881502861
301.648522515
300.759361357
300.401700456
300.244302061
300.162307776
300.108518547
300.068227555
300.037517675
300.016888003
300.005773679
300.001453344
300.000256013
300.000027112
300.000000017
300
449.029895847
354.519787519
320.930791178
308.240876973
303.251677949
301.338631319
300.62133778
300.343898801
300.223791259
300.156611357
300.109487544
300.071298665
300.040733429
300.018846904
300.006540572
300.001619036
300.000276403
300.000024505
300
300
420.855495157
347.526110608
318.20058851
306.82502563
302.548625037
301.022632994
300.491257608
300.300000321
300.211710935
300.157206562
300.114053634
300.077020109
300.045479484
300.02174085
300.007647214
300.001890507
300.000320115
300.0000282
300.000000009
300
395.751619461
338.496647692
314.701516693
305.336657215
301.903569113
300.753173162
300.403730523
300.278784711
300.213903382
300.165724801
300.124222829
300.086398201
300.052911863
300.026265455
300.009559866
300.002430705
300.00043153
300.000045003
300.00000097
300.000000397
383.617495683
335.119501313
313.777869302
304.866537271
301.514375842
300.58276946
300.368409832
300.286647776
300.231166974
300.184104122
300.14116413
300.101117787
300.064581198
300.033907351
300.013216707
300.003618166
300.00071095
300.000092479
300.000004695
300.00000115
390.207651266
342.971413939
318.959446498
306.998056957
302.051092881
300.672019259
300.412205929
300.324066452
300.265730822
300.215125208
300.167836398
300.123205784
300.081791639
300.045569614
300.01924288
300.005798711
300.001283536
300.000205683
300.000020685
300.000002524
433.69716398
364.054743572
327.400478748
310.435568865
303.477671731
301.153833176
300.546316371
300.38803847
300.312765303
300.255052386
300.202206509
300.151789787
300.104198146
300.061397283
300.028149755
300.009456697
300.002399794
300.000488657
300.00007597
300.000008649
500.109005777
378.132436044
331.875009889
312.670797155
304.77261203
301.810898975
300.824094412
300.506205266
300.370776894
300.295775749
300.236247369
300.181312297
300.128657519
300.079696839
300.039948017
300.015398703
300.004651198
300.001143174
300.000228119
300.000035406
523.841039408
385.265047965
334.115846832
313.886742316
305.61955231
302.333438202
301.087762555
300.626020983
300.434099508
300.334253357
300.265396785
300.206705356
300.151357292
300.098191938
300.053307683
300.023052378
300.007942387
300.002235835
300.000521176
300.000098985
531.675447233
387.427205775
334.607716182
314.265113637
306.027498294
302.65101308
301.280736607
300.725802713
300.486985771
300.364562169
300.286524606
300.224623554
300.167934859
300.112691463
300.064622989
300.030222725
300.011421107
300.003543751
300.000916653
300.000197696
534.174634881
385.865564119
332.910248223
313.500007381
305.865664611
302.697352473
301.355250447
300.777596311
300.517701512
300.382620585
300.298574501
300.234588574
300.177369746
300.121472299
300.072074673
300.035445575
300.014226429
300.004714279
300.001307716
300.000305901
532.988071476
378.25566788
327.748253361
311.141421479
304.979597997
302.41186514
301.280969318
300
300
300
300
300
300
300
300
300
300
300
300
300
300
300
300
300
300
300
300
300
300
300
300
300
300
300
300
300
300
300
300
300
300
300
300
300
300
300
300
300
300
300
300
300
300
300
300
300
300
300
300
300
300
300
300
300
300
300
300
300
300
300
300
300
300
300
300
300
300
300
300
300
300
300
300
300
300
300
300
300
300
300
300
300
300
300
300
300
300
300
300
300
300
300
300
300
300
300
300
300
300
300
300
300
300
300
300
300
300
300
300
300
300
300
300
300
300
300
300
300
300
300
300
300
300
300
300
300
300
300
300
300
300
300
300
300
300
300
300
300
300
300
300
300
300
300
300
300
300
300
300
300
300
300
300
300
300
300
300
300
300
300
300
300
300
300
300
300
300
300
300
300
300
300
300
300
300
300
300
300
300
300
300
300
300
300
300
300
300
300
300
300
300
300
300
300
300
300
300
300
300
300
300
300
300
300
300
300
300
300
300
300
300
300
300
300
300
300
300
300
300
300
300
300
300
300
300
300
300
300
300
300
300
300
300
300
300
300
300
300
300
300
300
300
300
300
300
300
300
300
300
300
300
300
300
300
300
300
300
300
300
300
300
300
300
300
300
300
300
300
300
300
300
300
300
300
300
300
300
300
300
300
300
300
300
300
300
300
300
300
300
300
300
300
300
300
300
300
300
300
300
300
300
300
300
300
300
300
300
300
300
300
300
300
300
300
300
300
300
300
300
300
300
300
300
300
300
300
300
300
300
300
300
300
300
300
300
300
300
300
300
300.000000001
300
300
300
300
300
300
300
300
300
300
300
300
300
300
300
300
300
300
300
300.000000073
300
300
300
300
300
300
300
300
300
300
300
300
300
300
300
300
300
300
300
300.000000146
300.000000001
300
300
300
300
300
300
300
300
300
300
300
300
300
300
300
300
300
300
300.000000107
300.00000001
300
300
300
300
300
300
300
300
300
300
300
300
300
300
300
300
300
300
300.000000096
300.000000072
300
300
300
300
300
300
300
300
300
300
300
300
300
300
300
300.000000026
300
300
300.00000009
300.000000177
300.000000001
300
300
300
300
300
300
300
300
300
300
300
300
300
300
300.000000037
300
300
300.00000008
300.000000108
300.000000009
300
300
300
300
300
300
300
300
300
300
300
300
300
300
300
300.00000012
300.00000004
300.000000043
300.000000039
300.000000031
300
300
300
300
300
300
300
300
300
300.000000033
300.000000144
300.000000224
300
300
300
300.000000243
300.000000024
300
300
300
300.000000001
300
300
300
300
300.000000041
300.000000382
300.000000856
300.000001378
300.000001864
300.000002205
300.000002335
300
300
300
300.000000102
300
300
300
300
300
300
300.000000127
300.000000783
300.000001767
300.000003041
300.000004569
300.000006243
300.000007878
300.000009189
300.000009821
300.00000975
300
300
300
300
300.000000001
300
300
300
300.000000141
300.000001971
300.000004047
300.000006604
300.000009706
300.000013275
300.000017109
300.000020915
300.000024035
300.000025924
300.000026183
300.000025249
300
300
300
300
300
300
300
300.000001663
300.000004544
300.000008872
300.000014607
300.000020058
300.000025817
300.000031638
300.000036724
300.000040477
300.00004286
300.000043784
300.000043249
300.000041746
300.000000611
300
300
300
300
300
300.000002808
300.0000081
300.0000145
300.000021241
300.000029368
300.000037314
300.000043449
300.000047995
300.000051154
300.000053136
300.00005406
300.000053999
300.000053045
300.000051465
300.000001898
300.000000992
300
300
300
300.00000173
300.000008564
300.000017446
300.000026514
300.000034625
300.000041392
300.000048133
300.000052382
300.000054658
300.000056094
300.000056951
300.000057293
300.000057072
300.000056235
300.000054844
300.000002299
300.000002541
300.000000804
300
300
300.000004324
300.000014585
300.000025599
300.000035168
300.000042452
300.000047376
300.000050303
300.000052729
300.000054177
300.000055143
300.000056035
300.000056744
300.000057021
300.000056646
300.000055551
300.000002103
300.000002832
300.000001929
300.000000246
300
300.000006324
300.000018112
300.000029778
300.000038419
300.000044004
300.000047041
300.000048371
300.000049056
300.000050025
300.000051281
300.000052838
300.000054908
300.000056054
300.000056354
300.000055621
300.000002283
300.000002266
300.000002231
300.000000928
300
300.000007051
300.000018429
300.000029771
300.00003753
300.000041745
300.000043531
300.00004394
300.000044254
300.000045287
300.000047206
300.000048928
300.000050862
300.00005479
300.000055969
300.000055683
300.000005111
300.000001859
300.000001735
300.000001292
300.000000228
300.000006459
300.000016785
300.000026996
300.000034454
300.000038102
300.000038993
300.000038594
300.000038643
300.00004017
300.000042931
300.00004558
300.00004768
300.000050937
300.000055439
300.000055749
300.00001556
300.000002916
300.000001374
300.000001186
300.000000699
300.000005191
300.000014162
300.000023076
300.00002974
300.000033077
300.000033598
300.00003314
300.000032836
300.000032557
300.000035078
300.000040475
300.000045333
300.000047441
300.00005307
300.00005514
300.000036201
300.000006097
300.000001583
300.000000983
300.000000836
300.000003785
300.000010991
300.000018506
300.000023927
300.000026429
300.000026742
300.000026138
300.000025357
300.000024804
300.000026991
300.000033465
300.000041895
300.000046855
300.000048894
300.000054762
300.000061875
300.000011185
300.000002311
300.000000926
300.000000672
300.00000226
300.000007602
300.000013598
300.000017704
300.000019302
300.000018983
300.000018044
300.000017179
300.000017851
300.000020987
300.000028742
300.000040239
300.000046617
300.00004796
300.000055655
)
;

boundaryField
{
    emptyPatch
    {
        type            empty;
    }
    minY
    {
        type            fixedValue;
        value           nonuniform List<scalar> 0();
    }
    maxY
    {
        type            inletOutlet;
        inletValue      nonuniform List<scalar> 0();
        value           nonuniform List<scalar> 0();
    }
    maxX
    {
        type            fixedValue;
        value           uniform 300;
    }
    water_to_heater
    {
        type            copiedFixedValue;
        sourceFieldName T.liquid;
        value           nonuniform List<scalar> 
60
(
785.588237429
785.658039198
785.65796156
785.757710863
785.759985333
785.886967874
785.886366247
786.04821651
786.046655332
786.245459759
786.245193891
786.480081277
786.480044764
786.727477151
786.728320664
786.978773103
786.981206324
787.22899239
787.229380713
787.479473209
787.477096008
787.712913754
787.725095864
787.936829551
788.027152383
788.20005152
788.208384289
788.351361941
788.35010033
788.440659414
788.440724117
788.475960643
788.464884361
788.447960946
788.404843091
788.316033322
788.307969273
788.21309491
788.217606401
788.074004923
788.085826201
787.898003445
787.899516375
787.684240381
787.659060026
787.50378012
787.506361788
787.41881427
787.421925095
787.405892837
787.400376161
787.455395757
787.55486957
787.62829957
787.640966634
787.73809627
787.744047128
787.8583552
787.857214275
787.976004696
)
;
    }
    procBoundary3to1
    {
        type            processor;
        value           nonuniform List<scalar> 
41
(
300.766040112
300.520413604
300.386354881
300.301442113
300.237214175
300.180263392
300.12462365
300.075313165
300.038131916
300.015898271
300.005483927
300.00159185
300.000391745
523.823825725
362.380445846
319.909329141
307.722008014
303.644491448
301.913074654
300.766040112
301.105828339
300.000084521
300.00001616
300.000003158
300.00000093
300.000000516
300.000000769
300.000004226
300.000008631
300.000011615
300.000012386
300.000010772
300.000009975
300.000010358
300.000011976
300.000016296
300.0000267
300.000040446
300.000047122
300.000048842
300.000057741
)
;
    }
    procBoundary3to2
    {
        type            processor;
        value           nonuniform List<scalar> 
41
(
402.244768435
335.647920556
311.953097029
304.079657814
301.498666514
300.638302807
300.320494323
300.181410817
300.106918636
300.06102347
300.030747057
300.011899351
300.003071011
300.000600218
300.000096047
300.000010139
300
300
300
300
300
300
300
300
300
300
300
300
300
300
300
300
300
300
300
300
300
300
300
300
300
)
;
    }
}


// ************************************************************************* //
