/*--------------------------------*- C++ -*----------------------------------*\
| =========                 |                                                 |
| \\      /  F ield         | OpenFOAM: The Open Source CFD Toolbox           |
|  \\    /   O peration     | Version:  2312                                  |
|   \\  /    A nd           | Website:  www.openfoam.com                      |
|    \\/     M anipulation  |                                                 |
\*---------------------------------------------------------------------------*/
FoamFile
{
    version     2.0;
    format      ascii;
    arch        "LSB;label=32;scalar=64";
    class       volScalarField;
    location    "0.71/water";
    object      alpha.gas;
}
// * * * * * * * * * * * * * * * * * * * * * * * * * * * * * * * * * * * * * //

dimensions      [0 0 0 0 0 0 0];

internalField   nonuniform List<scalar> 
1496
(
0.84962670107
0.821325419816
0.820968611266
0.824440841889
0.827097744924
0.823950871328
0.811650402177
0.779402490966
0.713370437035
0.609713951314
0.489066325465
0.372046882366
0.268705692411
0.207397016848
0.20471285843
0.204755827225
0.206648513609
0.227911778871
0.308336670576
0.390347918266
0.85053522208
0.794239984364
0.797328118186
0.80859881736
0.818433643409
0.818020284671
0.807072444809
0.773639472299
0.707722048428
0.607494773125
0.489617967018
0.372448812196
0.267288090237
0.206754470905
0.204755827225
0.204646629551
0.204951702526
0.227624631632
0.308025081977
0.364454354873
0.84962670107
0.75868698111
0.767265031761
0.786335016025
0.803685886972
0.805526325197
0.79506933706
0.758738163419
0.690057035164
0.592569552474
0.478219844038
0.359786262813
0.252573597602
0.204861762825
0.204618501139
0.204755827225
0.204660127341
0.231867102121
0.311296123581
0.342564786516
0.847034600695
0.724523156021
0.73204646815
0.755166643408
0.779920084193
0.783824631997
0.773074197954
0.73349739068
0.660741551799
0.561752050515
0.446788001747
0.325506926966
0.224843921304
0.204650943739
0.204755827225
0.20436287474
0.204755827225
0.244510223983
0.31321452243
0.321443577943
0.826709346624
0.697352663061
0.690051552323
0.711170580195
0.740660202944
0.746774859755
0.735629728957
0.694408763251
0.61923847669
0.517737378019
0.399119308309
0.27687467602
0.206446786647
0.204755827225
0.204264522339
0.204755827225
0.205335824897
0.267550372529
0.313163670498
0.301909214509
0.822943781009
0.650160573943
0.638134863531
0.651127435333
0.678702232618
0.685610140663
0.674153546637
0.63351544781
0.559592812074
0.457742652648
0.337790326377
0.228207136421
0.204755827225
0.20423993307
0.204755827225
0.203983288577
0.221484855059
0.294226705881
0.306560457358
0.285623390115
0.822987444209
0.572004669299
0.582209435277
0.578329885673
0.593857259075
0.59597809799
0.583114439304
0.544366205865
0.474643934383
0.375927773061
0.264222107965
0.205204079363
0.204410020989
0.204755827225
0.203971400691
0.205809806278
0.272413794178
0.306644637416
0.294654451644
0.282241344812
0.804189284172
0.513675431408
0.536406129333
0.511099231309
0.499554758236
0.485069062424
0.465193691916
0.426853428274
0.36274809056
0.275770309319
0.209484569458
0.204480267958
0.204755827225
0.203965091244
0.205256517021
0.261519970238
0.323431606725
0.310550809193
0.292405711266
0.289260716457
0.721011656562
0.508397023982
0.509232144812
0.477031086459
0.426281602647
0.379508096827
0.343203396701
0.301369133642
0.249329563608
0.208332047669
0.204446462601
0.204755827225
0.203904304199
0.219245509288
0.282734424816
0.348400861548
0.33628844612
0.307760202958
0.296055584949
0.339208914541
0.622224473666
0.507889355361
0.507698525796
0.473222513038
0.40162412688
0.331523706962
0.279689076796
0.239021485885
0.209290149323
0.204419995022
0.204755827225
0.213787238093
0.257948136803
0.338463333475
0.391555429747
0.368758440829
0.330862557213
0.30734508747
0.330931017327
0.460077841421
0.597690055436
0.551975650321
0.54160833499
0.492846236353
0.412261825384
0.337356860673
0.282769916621
0.243869131874
0.22150188127
0.22071511819
0.247616428126
0.318288591549
0.402676502077
0.441563806827
0.409786806239
0.360387265394
0.321072319438
0.312771586102
0.398274849236
0.542791512271
0.65984802145
0.686071848744
0.646626490595
0.581632199056
0.495910838557
0.417212130009
0.359929222962
0.326764658841
0.315953927707
0.327186358964
0.380416628802
0.444015528607
0.475261718463
0.449321637951
0.400478452266
0.342528903594
0.312641360462
0.315975595428
0.420259409825
0.552475219474
0.79758821653
0.819624457818
0.779382341799
0.724404871324
0.663820775882
0.609018223833
0.568304490783
0.546655441282
0.535427159704
0.523523752335
0.515192624774
0.50114458829
0.476102314873
0.438877641195
0.381230550321
0.32383713166
0.299718437389
0.308374279452
0.410085359281
0.542363927181
0.889167570009
0.873895696704
0.853054162857
0.820235724624
0.786897127047
0.761117529627
0.742982746733
0.73123089397
0.71756080434
0.685759435842
0.6230128645
0.546448089965
0.481559601807
0.42791141905
0.362875904801
0.305150823304
0.280709428566
0.287187819059
0.371705728391
0.501528795732
0.894403187747
0.884752642657
0.87742430487
0.853962022409
0.829296017853
0.811624463626
0.799311918889
0.78861728709
0.774360556584
0.747145413148
0.689702590351
0.600806506532
0.508270082665
0.434250452013
0.36242931071
0.291547390092
0.261780337868
0.26540206804
0.320407599782
0.430048362016
0.896438283804
0.88970893949
0.883748866693
0.861870808329
0.839259948944
0.822855314971
0.811005434777
0.79961581309
0.784397302927
0.758930773308
0.712346418132
0.636600996699
0.543184487855
0.453534448067
0.370582845469
0.291222046333
0.249290445165
0.249805585854
0.278349157389
0.351666805348
0.894486354449
0.893172286849
0.884808081914
0.86242780648
0.840678067114
0.825068635639
0.813534977411
0.80179386887
0.785606229851
0.759328831343
0.714267650372
0.644770761352
0.559423852685
0.470636895912
0.38292540155
0.294567016464
0.240247253109
0.235488568045
0.24723036806
0.282615790442
0.896410306743
0.894393906038
0.882513033974
0.858169389143
0.837547370307
0.823198691484
0.812240724923
0.800266395565
0.782636457298
0.75370911832
0.707532602507
0.640308420507
0.558856075179
0.472491868622
0.384561749762
0.293488697506
0.230018013257
0.218925325216
0.221771172618
0.230573188329
0.894486354449
0.894558931151
0.87288610148
0.843211814136
0.824929445563
0.813710937302
0.804357180686
0.792185489389
0.772423440757
0.740172966017
0.690957448979
0.623866287057
0.54525754376
0.460389438291
0.37013897303
0.276023005863
0.215431555985
0.206834785217
0.206884446897
0.206971142862
0.896587947354
0.891161051749
0.853721606362
0.816959787921
0.801108486877
0.793539435007
0.786321345009
0.774587521294
0.753963368588
0.720181047465
0.66905584764
0.600127067684
0.518663292755
0.42824302626
0.329011602241
0.237201128258
0.205940540608
0.205841232095
0.205631747584
0.205841232095
0.894262778845
0.881100134593
0.825941679633
0.783576013508
0.76870673304
0.762703291558
0.755911982959
0.743576461864
0.72187020631
0.686826920517
0.63449345349
0.563528112883
0.475394325931
0.37156826352
0.2621094801
0.207100592393
0.205841232095
0.205552754771
0.205841232095
0.246673945574
0.896508189688
0.862093940728
0.791953142232
0.746249037534
0.72932741369
0.719619048174
0.707690128043
0.689737456322
0.663139519756
0.624391240847
0.5688557009
0.492925265225
0.39540596773
0.283312578898
0.213592040753
0.206842827953
0.207527457032
0.252966524753
0.364002387323
0.510251636006
0.894128891512
0.836428331802
0.754447046539
0.705900112001
0.681105207575
0.658721273189
0.632613965831
0.601587866391
0.564090992967
0.516405119139
0.453000132765
0.370368222296
0.287086478827
0.245682940376
0.231609361705
0.270540220665
0.395121988003
0.561270912507
0.693842334408
0.751235251582
0.895945307941
0.80752808641
0.716934027992
0.659837434011
0.616713687348
0.571198966401
0.521827884529
0.471034695687
0.418286641079
0.360658046104
0.302203119448
0.277034182295
0.276641180133
0.312238080153
0.437499855921
0.598583591323
0.719787089247
0.759770331888
0.763168895936
0.759899071007
0.893800932132
0.780450138712
0.676107557112
0.596219009386
0.523785122823
0.449051027118
0.376630586845
0.310156419001
0.254425538711
0.234788863984
0.236790003448
0.309738132356
0.455582049656
0.628042208893
0.733729236042
0.762343904532
0.759932743712
0.764760627732
0.759899071007
0.764914965694
0.894573950172
0.749728160138
0.616150646037
0.500938854634
0.397358352226
0.304550158614
0.234406839229
0.196514025733
0.195548216716
0.213872970319
0.367197573146
0.6064887498
0.738058774435
0.759899071007
0.76332844125
0.759932743712
0.764613811199
0.759932743712
0.764905616067
0.759899071007
0.893645988873
0.696105067668
0.517679780054
0.368984805743
0.258921083535
0.200192762981
0.187655864556
0.187881004196
0.196238692764
0.399821678954
0.69308799363
0.762011321894
0.759899071007
0.763747388202
0.759899071007
0.763789436085
0.759932743712
0.764048016416
0.759899071007
0.762538751121
0.887179897006
0.589255443311
0.37716190459
0.233290359005
0.189641320793
0.187111392226
0.18760503969
0.186444340796
0.342214121978
0.705657813333
0.763217163373
0.759899071007
0.763891412218
0.759899071007
0.763878308607
0.759899071007
0.76339085221
0.759899071007
0.762223726212
0.759899071007
0.83222575687
0.439725490367
0.236633542373
0.18760503969
0.186832796433
0.187498721344
0.183729313367
0.211433470563
0.616011845949
0.762347540042
0.759899071007
0.763560602037
0.759899071007
0.763279952574
0.759899071007
0.762788491461
0.759899071007
0.761884671982
0.759899071007
0.751393565964
0.736801314197
0.285799759442
0.18760503969
0.186643444603
0.187498721344
0.183415423704
0.187498721344
0.305847310497
0.730163158373
0.759899071007
0.761904101404
0.759899071007
0.761818910702
0.759899071007
0.761520584812
0.759899071007
0.761094286947
0.759899071007
0.751884172173
0.694689403284
0.614366151641
0.195059185515
0.186792641701
0.187498721344
0.183214303074
0.187219287631
0.183050035731
0.419653512952
0.71877488916
0.741996588192
0.745726794614
0.74671320928
0.745395634597
0.743984122803
0.741945463858
0.740132167618
0.736413352474
0.725814419856
0.68564115906
0.600462586984
0.466779635495
0.186398246449
0.187498721344
0.183050035731
0.187219287631
0.182964217675
0.193082870552
0.483776742465
0.638879677065
0.659337535417
0.667017961664
0.667899048278
0.664448730551
0.658559597006
0.651960538496
0.644600918352
0.63586671499
0.615987008775
0.572857499322
0.532217441241
0.375907482528
0.193367568922
0.185006312982
0.187498721344
0.182987176664
0.207443503533
0.326823947487
0.46551453172
0.499480097696
0.512769142914
0.519075699398
0.519867474895
0.514843135398
0.506326174787
0.497202003021
0.492354658229
0.495012512635
0.500169722509
0.507655887626
0.527868686184
0.398708493404
0.327246555765
0.312152352635
0.303968877696
0.312749261095
0.362182670504
0.428509416205
0.45013411905
0.42846498908
0.399405664699
0.378983230055
0.372048613005
0.368544540769
0.365735215323
0.37472563384
0.404211725052
0.445267183705
0.487266095083
0.52041033052
0.558231094069
0.541887174993
0.590520565457
0.558047975919
0.547593978695
0.544346507565
0.548352255571
0.528844326698
0.494091860548
0.462334566823
0.413189421648
0.36814605811
0.342320609791
0.338032432702
0.338329619529
0.369725904731
0.415516068007
0.469671362136
0.523011667872
0.572827179565
0.608280570456
0.689963247174
0.704034273179
0.66862120144
0.655282409373
0.653630950946
0.656339506463
0.64976385814
0.631161943844
0.605758352235
0.546882844739
0.463037494194
0.399195174907
0.377431300388
0.384228192883
0.434085106758
0.499488777475
0.556299596499
0.599627461523
0.625615254966
0.632053078199
0.734869951658
0.717368676157
0.685983393912
0.670920108179
0.67050254769
0.68284056546
0.710057889994
0.729347670802
0.729746387689
0.703524486833
0.639255328183
0.560024947451
0.520985427228
0.52594965895
0.573682472639
0.621172519691
0.647198407547
0.657714366182
0.654918112384
0.634023930219
0.364284785533
0.242123724988
0.219560154992
0.252418511643
0.365891314626
0.372555854791
0.317662112275
0.216397305719
0.118586825674
0.0573900068008
0.20861687027
0.39783946004
0.292857410313
0.135941301165
0.0344887604106
0.00104819467036
0.416913651544
0.442943193506
0.452667152199
0.4149563574
0.312610409959
0.219504082324
0.218655250461
0.246586920505
0.368119531634
0.366173919738
0.287404894177
0.179136195371
0.0875225898554
0.0413402278652
0.201276542587
0.401643943111
0.306867869122
0.129903715207
0.0275040987548
0.00102830557811
0.355910738222
0.349399704233
0.361365318657
0.328131961165
0.238198736063
0.218807042996
0.219504082324
0.25132163678
0.368729066985
0.341752392438
0.24014484495
0.135375281072
0.0561300417804
0.0289722488971
0.198832464609
0.429277770836
0.335203449518
0.114123987596
0.0127030201342
0.000965954801342
0.316301010712
0.284498275485
0.280611363498
0.243412049386
0.219021521903
0.219393441371
0.218042396635
0.274980391342
0.362261298473
0.297698230026
0.183398206851
0.0910336290418
0.0298759116133
0.0206775528216
0.192766975296
0.474911201031
0.386163970354
0.106075958837
0.00479841835943
0.000957664381114
0.288836853727
0.260810979241
0.243752402899
0.219273542908
0.219345158148
0.217840112493
0.219393441371
0.307779022579
0.32400443863
0.232691000321
0.122874229439
0.0497875347158
0.0141536404378
0.0143561557356
0.173433633903
0.518813072673
0.467640523507
0.11714984755
0.00397438038633
0.000949318027326
0.272435596789
0.257620048829
0.237706952236
0.219345158148
0.217840112493
0.219345158148
0.248966045782
0.309812637038
0.26602783398
0.153363599856
0.0652253398733
0.0193050003495
0.00850249940932
0.0110044119335
0.142206396857
0.557609649135
0.558804987119
0.167594699031
0.00532194095074
0.00094097063297
0.270266126344
0.260354102432
0.242283111313
0.218296965531
0.219160028871
0.217712499298
0.299816173292
0.293532420846
0.184987100609
0.0788959724617
0.0235365592493
0.00767281362237
0.00718052506746
0.00975582482267
0.120769555097
0.599914035655
0.601951730355
0.236718432271
0.00983423536971
0.000932914207543
0.277034532322
0.288409141675
0.284785684098
0.223500705729
0.217840112493
0.296963386009
0.299953346666
0.219664889784
0.0964138649352
0.0277939839814
0.00780560835748
0.00625815450324
0.00657795893838
0.00876567359245
0.124933364092
0.608576513396
0.609221426312
0.281678536836
0.0155095985384
0.000924834181994
0.321398592958
0.394876494585
0.401935711877
0.320399443755
0.294617320921
0.299071387698
0.269395952189
0.127110473928
0.036863743561
0.00852056824811
0.00584764551301
0.00588891648929
0.00614365604755
0.00795541605919
0.197095231331
0.611259113733
0.608576513396
0.293094482051
0.0201598950758
0.000916747509828
0.453240832442
0.553649694628
0.533317755294
0.442309952366
0.354627994126
0.297357738086
0.18359694415
0.0579696893873
0.0119627396627
0.00563243084141
0.00559919974442
0.0055631952648
0.00570313140704
0.0161170069364
0.375334545678
0.608576513396
0.60986495848
0.290857315671
0.0229014113422
0.000901042181419
0.58884003995
0.59898672886
0.590788732287
0.488647344497
0.351233062268
0.240646153162
0.0971868365701
0.0212506572587
0.00581426878954
0.00541810216629
0.00542008464595
0.00537613307441
0.00619317647152
0.0744420817325
0.518271711515
0.610608779954
0.608576513396
0.295728290931
0.0261440845011
0.00086968871297
0.599166064578
0.598159618221
0.598436974394
0.490772101814
0.320372046681
0.159066070566
0.0417260964728
0.00737350237816
0.00524315367955
0.00533575612354
0.00529057068671
0.00531899154461
0.0137004832895
0.184836165111
0.535092576237
0.608576513396
0.608993382337
0.310256526374
0.0333022149564
0.000829258713635
0.598159618221
0.599166064578
0.598159618221
0.48028050979
0.257900984525
0.0890418505331
0.0132340304205
0.00523301536184
0.00523361444208
0.00524825803775
0.00525082585067
0.00677859587086
0.0412907203737
0.241488915915
0.449821335617
0.560316134327
0.566510916829
0.32015418211
0.0467252583297
0.000793086255171
0.598601070543
0.598159618221
0.598275719342
0.451367472458
0.180995003259
0.0418080376643
0.00535891634254
0.00521822904647
0.00523301536184
0.00522546488551
0.00525492574217
0.0144016104877
0.0877472122362
0.226092887116
0.315128824872
0.445728971134
0.478706041353
0.312719166469
0.0630551379579
0.000766654650102
0.590367400706
0.598486684325
0.590116676773
0.413302870481
0.117686280818
0.015608504823
0.0052135632171
0.00522363211835
0.00518263264752
0.00523301536184
0.00592067192223
0.0366507443286
0.137209955811
0.174571255058
0.200394851007
0.332410116356
0.375719838156
0.285310612532
0.0708862208275
0.000741302288072
0.542721577467
0.585771495642
0.561519925435
0.37812264548
0.102272452615
0.011673179314
0.00522363211835
0.00516185233137
0.00522473835717
0.00515114875025
0.00918653520419
0.0975624672309
0.176299278184
0.123893488358
0.110663385006
0.24809327654
0.294418495072
0.254750957939
0.0696712968686
0.000597261680291
0.455674224163
0.523596579473
0.497523379408
0.336754393561
0.104860974017
0.013156520499
0.00518321602833
0.0052145730749
0.00515004250918
0.00522363211835
0.0365824315593
0.230244259452
0.204587644729
0.0718842250585
0.0559546249181
0.198881711408
0.259558195418
0.231886843527
0.0584677751885
0.000266246438923
0.350537684253
0.409508077423
0.393037711209
0.277463840241
0.10551199995
0.0178663448943
0.00522287090706
0.00515602547138
0.00522287090706
0.0107791293983
0.222546830585
0.288349149259
0.176426140703
0.0456866546097
0.0368130045014
0.157046430205
0.248717599731
0.202783430635
0.0367958348259
4.14460017112e-05
0.256366000275
0.287910738757
0.279251150761
0.211973805902
0.102882180648
0.0247886153885
0.00519928941473
0.00522287090706
0.00574852372804
0.145687233886
0.373788606544
0.292770787409
0.132453966456
0.0403748595198
0.0366257280947
0.143289152095
0.235628151847
0.150443505421
0.0119156589197
2.90774059159e-05
0.214635864545
0.237398066911
0.231207210372
0.186943299163
0.102383885411
0.0305725530821
0.00722695368603
0.00889762640353
0.110103740457
0.419804794354
0.385442933198
0.235200689916
0.120754034343
0.0569687264886
0.0495186002946
0.145964748145
0.19574926555
0.0703184699718
0.00104475205016
2.90894525469e-05
0.219085355709
0.250525700273
0.242884674251
0.198655573068
0.118741026527
0.0504611547462
0.0458122685262
0.151518973036
0.490807119641
0.464112908775
0.321425225079
0.19217456924
0.120039761342
0.0648179018038
0.07790370291
0.146176782875
0.126847297403
0.020816108784
5.35100245867e-05
2.90488414107e-05
0.32733347535
0.379202930074
0.360329816631
0.311662211925
0.25325556417
0.223590833428
0.310349692988
0.487861257487
0.49908463421
0.417427474112
0.260614001985
0.171386181665
0.113720305594
0.0609935857305
0.0843978081548
0.145292057667
0.0848726218724
0.00879194149589
3.29506683652e-05
2.90609918652e-05
0.613592767242
0.637370866676
0.612346056185
0.579618273564
0.55816736578
0.555143416651
0.583805975435
0.582598807804
0.497981519764
0.342184449018
0.223043742464
0.149697852863
0.0961741857589
0.0500871318502
0.0722489428706
0.158025414905
0.0743005007095
0.0055426005803
3.00268443388e-05
2.90212215965e-05
0.759831399138
0.760332280687
0.751906977014
0.732430586165
0.702032324581
0.663493952187
0.615659278941
0.545612060677
0.413937919764
0.273679741558
0.17955126833
0.117880436233
0.0622639512645
0.0483893218067
0.089254465829
0.22220122324
0.0767008161222
0.00318300396125
2.90059098419e-05
2.90390940365e-05
0.764129044508
0.759899071007
0.761082513236
0.734863669884
0.686306542868
0.62851806259
0.544414598939
0.427619152649
0.296224897629
0.193041333894
0.122424633171
0.0660306585877
0.0435522013346
0.0483537967407
0.251856841823
0.325242376734
0.0594756008631
0.00100368427772
2.90337314153e-05
2.90126793322e-05
0.759899071007
0.761719187153
0.741999229178
0.671330280853
0.605006391864
0.521504028012
0.401520397435
0.277161370419
0.174797785543
0.102605297949
0.0499743187878
0.0345276388355
0.0352392336988
0.255133918461
0.591556488838
0.408524566403
0.048699215148
0.000751187657941
7.59488779696e-05
2.90464357235e-05
0.762576823322
0.751703240669
0.664246635336
0.566944691572
0.51251272403
0.406579092968
0.261893771912
0.142456114151
0.0663041470703
0.0252627308766
0.0184104200069
0.0303699733985
0.355812255064
0.670182027291
0.670945593512
0.398677044229
0.0449832083975
0.00134112547738
0.000552476612707
0.000116626046985
0.759899071007
0.69004367545
0.562299434049
0.507756375934
0.46121592198
0.321017160841
0.149123790087
0.043953723231
0.0105452473188
0.00893444118786
0.0231562085696
0.314906191304
0.680062044561
0.680336137063
0.613971782376
0.236587322405
0.0172625245087
0.00205809139222
0.00212226298154
0.00072759840529
0.734586589775
0.592059360544
0.508253335755
0.506129766838
0.442433998516
0.252104334112
0.0676254974456
0.00818220440843
0.00686135114548
0.0191725921385
0.213398737804
0.506010909511
0.615152761106
0.590386661533
0.392363296576
0.0739334955934
0.00238053583656
0.00438606814808
0.00712466083727
0.00340698834978
0.657106195474
0.52611818989
0.508242948922
0.51898468364
0.425065459803
0.184943270152
0.0256961836872
0.00692684743666
0.0170850820357
0.132835933387
0.315078903504
0.42057821712
0.414501332329
0.344670424448
0.127788753589
0.00797619074913
0.000454415135964
0.0086817118006
0.0207424978474
0.0153605773661
0.571796839561
0.522271533111
0.522118925998
0.54241521855
0.397338095357
0.122053154512
0.0191099930023
0.0167301710757
0.0853067321639
0.195141689897
0.259973010712
0.234141545092
0.166345221682
0.0920376577487
0.0119650807814
0.000193706400739
0.000212670589656
0.011404481315
0.041395059832
0.0408288128861
0.52763070645
0.522083851575
0.557135448077
0.555715937756
0.352014029196
0.0830274643519
0.0245983313082
0.0590286439321
0.133952299891
0.170191514354
0.137742863561
0.0653257309272
0.0245528526125
0.00588668816139
0.000208270233807
5.74652911446e-05
7.87975700277e-05
0.0122009467027
0.0668674525167
0.0506842014571
0.527474667324
0.547029899755
0.589296401141
0.551063496122
0.294698051344
0.07319335565
0.0501821150088
0.0967266190432
0.129941053759
0.109477061338
0.0343204499724
0.00544351271648
0.000735600633048
0.000102695708505
5.74652911446e-05
5.71126593291e-05
0.000102658054351
0.0145298456244
0.116309187348
0.0529655281595
0.550280781647
0.589189932508
0.589566512785
0.523108187873
0.240259794715
0.0716028134207
0.0602903778431
0.0970270877818
0.119280395663
0.083449670966
0.0178349871427
0.00125007358871
0.000101446589526
5.74652911446e-05
5.71469183562e-05
5.74285050873e-05
0.000142865331992
0.0231751658439
0.125206032052
0.075579548942
0.601119723803
0.601834746637
0.581200469932
0.466426621662
0.198708380072
0.0675639348805
0.0560083419993
0.0834794893752
0.101259919651
0.0867731951838
0.0356036653187
0.0072539768715
0.000749988102315
7.92778496923e-05
5.74285050873e-05
5.70357399221e-05
0.00030823571616
0.0491168452375
0.125100558999
0.083633867903
0.610172441954
0.594864838286
0.539352163394
0.402239642196
0.186342088171
0.0595698142165
0.0404466486458
0.0512244669875
0.0710436675324
0.0794083026887
0.0635297152244
0.0446289093222
0.0159400614087
0.00259161044251
0.000398305861789
0.000271242914385
0.00610740267491
0.0667614599902
0.104219684579
0.0509244871943
0.609979595368
0.556975342966
0.466539832056
0.346290628039
0.200974368466
0.0679054588147
0.026839839297
0.0237031477464
0.0334913352386
0.0510584821387
0.0584038416787
0.0566197593364
0.0522028893043
0.029794482327
0.0112861027064
0.00780233679803
0.0219886370453
0.0502635405528
0.0553504098342
0.0234741816939
0.589876929124
0.496648231257
0.392079580316
0.314760519556
0.246311977831
0.140448168025
0.0489912097869
0.0194450888918
0.0159480735169
0.0207325103054
0.0316231847398
0.0411608397093
0.0469035822282
0.0488872334263
0.0494077829457
0.0555240235949
0.0603607637387
0.0374081220649
0.0234741816939
0.0234151968595
)
;

boundaryField
{
    emptyPatch
    {
        type            empty;
    }
    minY
    {
        type            fixedValue;
        value           nonuniform List<scalar> 0();
    }
    maxY
    {
        type            inletOutlet;
        phi             phi.gas;
        inletValue      uniform 1;
        value           nonuniform List<scalar> 
40
(
0.734869951658
0.717368676157
0.685983393912
0.670920108179
0.67050254769
0.68284056546
0.710057889994
0.729347670802
0.729746387689
0.703524486833
0.639255328183
0.560024947451
0.520985427228
0.52594965895
0.573682472639
0.621172519691
0.647198407547
0.657714366182
0.654918112384
0.634023930219
0.589876929124
0.496648231257
0.392079580316
0.314760519556
0.246311977831
0.140448168025
0.0489912097869
0.0194450888918
0.0159480735169
0.0207325103054
0.0316231847398
0.0411608397093
0.0469035822282
0.0488872334263
0.0494077829457
0.0555240235949
0.0603607637387
0.0374081220649
0.0234741816939
0.0234151968595
)
;
    }
    water_to_cooler
    {
        type            zeroGradient;
    }
    water_to_heater
    {
        type            zeroGradient;
    }
    procBoundary0to1
    {
        type            processor;
        value           nonuniform List<scalar> 
41
(
0.851386679015
0.837951538773
0.835901810832
0.833548547116
0.83056977956
0.825220832897
0.812130624003
0.779877627456
0.712861366397
0.602031303678
0.472970295194
0.356269931392
0.258735185575
0.206349190521
0.204755827225
0.205081604885
0.209609082893
0.231674526813
0.315611974126
0.429030288195
0.38953694878
0.28883206564
0.24295089571
0.272036351008
0.35663814499
0.372369569082
0.329018498721
0.239509634441
0.142609147063
0.0748699840544
0.22950757368
0.408164058702
0.282852155706
0.130957397794
0.031052459775
0.00105577721947
0.495989651558
0.531349798018
0.520965238758
0.468610140848
0.468610140848
)
;
    }
}


// ************************************************************************* //
