/*--------------------------------*- C++ -*----------------------------------*\
| =========                 |                                                 |
| \\      /  F ield         | OpenFOAM: The Open Source CFD Toolbox           |
|  \\    /   O peration     | Version:  2312                                  |
|   \\  /    A nd           | Website:  www.openfoam.com                      |
|    \\/     M anipulation  |                                                 |
\*---------------------------------------------------------------------------*/
FoamFile
{
    version     2.0;
    format      ascii;
    arch        "LSB;label=32;scalar=64";
    class       volScalarField;
    location    "0.71/water";
    object      Tf.gasAndLiquid;
}
// * * * * * * * * * * * * * * * * * * * * * * * * * * * * * * * * * * * * * //

dimensions      [0 0 0 1 0 0 0];

internalField   nonuniform List<scalar> 
1496
(
352.93267917
317.902485469
307.624465349
303.771155626
302.111186219
301.346902028
300.980261067
300.784041378
300.656608416
300.555857551
300.466861808
300.38819955
300.321292525
300.264054674
300.213525745
300.170684104
300.136162365
300.1086006
300.085919328
300.068289164
353.995713231
317.313476697
307.100511616
303.512052446
302.012450627
301.314974522
300.971304735
300.783248304
300.661122102
300.564950023
300.479704637
300.40360837
300.337784286
300.280663399
300.230346802
300.188011258
300.153862502
300.125982596
300.101956899
300.082103997
354.814066642
316.298777591
306.247526835
303.08998937
301.836925107
301.247395656
300.945559925
300.773122943
300.658443673
300.566767066
300.48571075
300.413181892
300.349536951
300.293098225
300.243584779
300.20258873
300.169644658
300.142029233
300.117158413
300.095385635
352.096752224
313.896283277
304.962518692
302.503997107
301.595419372
301.150487387
300.906441945
300.756447169
300.650264562
300.563163663
300.486460862
300.41799829
300.356907987
300.301500897
300.253483555
300.2143189
300.182831139
300.155739701
300.130499966
300.107247625
342.189409057
311.226786705
303.774175591
301.971185389
301.358101328
301.049852067
300.865367251
300.737492467
300.638543915
300.556006825
300.483727228
300.419262146
300.360293992
300.306383082
300.260519616
300.22350156
300.193432401
300.166759065
300.141357656
300.117153966
336.94822838
309.769120086
303.003635944
301.602752764
301.184760903
300.969400002
300.82738284
300.716568352
300.625127757
300.547361816
300.479366564
300.418052539
300.360535478
300.308751753
300.265461743
300.230574439
300.201605736
300.175318503
300.149819138
300.12487148
335.908780792
309.418040031
302.664950806
301.395753046
301.071695421
300.911904529
300.796189998
300.69794568
300.61305578
300.539720588
300.475108091
300.415275608
300.359254771
300.310057258
300.269324612
300.236122744
300.207898387
300.182235571
300.156269056
300.130628704
332.577228643
310.616317392
302.987105433
301.361497182
301.01421442
300.875982178
300.773968481
300.684086363
300.604521019
300.534639241
300.471556862
300.412485258
300.358575495
300.311980356
300.273266315
300.241292683
300.214078537
300.188376259
300.161498167
300.134982474
325.065914848
310.267595943
303.405897672
301.453923212
301.001366732
300.85721378
300.760884889
300.676312645
300.600608286
300.532433299
300.470170314
300.412774954
300.361144135
300.316772282
300.280012389
300.249224435
300.221510872
300.194427309
300.166548168
300.138766797
319.346864258
308.60747074
303.235284726
301.438879319
300.992444773
300.852525514
300.759080247
300.676885736
300.602977132
300.53626906
300.47550179
300.420163287
300.370991549
300.328645329
300.293025251
300.261372942
300.231283533
300.201753974
300.172549276
300.143620391
316.751063311
307.910262806
303.203335844
301.437809563
301.015707678
300.871810351
300.776201935
300.692923043
300.618352996
300.552112341
300.493115623
300.440241677
300.393079643
300.351635658
300.314014205
300.278709968
300.244860979
300.212202471
300.181309451
300.151504739
318.531142489
309.59319684
304.216171531
301.827874863
301.131725833
300.927513927
300.819980316
300.73184475
300.654193521
300.587287241
300.530026166
300.478901479
300.430928241
300.385428581
300.342337348
300.301734992
300.263368709
300.22695623
300.193584377
300.161784766
331.360209929
313.313584397
305.978157072
302.638554588
301.39653139
301.026530935
300.896094416
300.801102171
300.718660095
300.648473954
300.589049678
300.533800391
300.479490163
300.427006255
300.376844165
300.330219858
300.286782554
300.24584385
300.208618058
300.174228913
345.327173807
316.812651754
307.182670352
303.135919201
301.616718174
301.149150273
300.998349145
300.899750237
300.812551109
300.733614785
300.662686544
300.596587233
300.533213402
300.472633325
300.415309548
300.36250735
300.313741535
300.267850124
300.225555026
300.188454561
351.094515938
318.557354737
307.730440345
303.327139664
301.716244487
301.232232836
301.077868346
300.982031047
300.895432506
300.812488522
300.733210901
300.657766969
300.586294777
300.518608049
300.454891363
300.396126974
300.342212296
300.291627263
300.244323728
300.203307286
352.903828165
319.259276024
307.872018117
303.356873535
301.75133867
301.272262524
301.117376356
301.025717587
300.943870341
300.86410573
300.785601708
300.708170845
300.632564657
300.560044393
300.491665673
300.428411332
300.370156653
300.315371656
300.263494346
300.217426842
353.413892387
319.510662414
307.859474006
303.343668527
301.768834512
301.290879117
301.132790011
301.044147313
300.967554991
300.892924016
300.818643904
300.74384356
300.668308986
300.594009881
300.522887981
300.456447599
300.394722004
300.335947474
300.279886114
300.22912091
353.523948404
319.409002571
307.681916105
303.284874799
301.774741001
301.298708154
301.134508401
301.046493458
300.973856376
300.903915147
300.834252821
300.763097158
300.689836295
300.616224949
300.54448397
300.476405367
300.412086051
300.350013037
300.2906126
300.236394895
353.030267235
318.884662845
307.326482948
303.117199202
301.734361789
301.285886903
301.12258736
301.035299954
300.965412223
300.898933678
300.83271293
300.7645304
300.694047812
300.622544074
300.552048618
300.484137432
300.418421832
300.353996664
300.292582352
300.23674079
351.404257064
317.790991156
306.711100445
302.818775315
301.61122838
301.235760275
301.09200734
301.009747409
300.942360382
300.878112288
300.813508627
300.747064176
300.678938964
300.610241949
300.54251828
300.476243205
300.41004959
300.344829486
300.283441123
300.228020282
348.50842019
316.009646655
305.72873214
302.421399749
301.46516412
301.170228796
301.050117887
300.973417201
300.906399172
300.841443664
300.776167276
300.710418217
300.644498004
300.57928982
300.515282299
300.450524255
300.384655993
300.32070781
300.261264253
300.207388713
345.836963127
314.481053483
304.93411301
302.181469571
301.400455899
301.143616813
301.020608921
300.933852894
300.85957155
300.790177412
300.723183664
300.658082911
300.59504724
300.533768965
300.471831287
300.407608608
300.343290043
300.281359861
300.223696404
300.171304996
345.453109365
314.244250342
304.814198558
302.350243225
301.523401443
301.178081695
301.002284168
300.89036908
300.804386694
300.729746313
300.661392106
300.597860882
300.537485135
300.476945349
300.414949407
300.351387982
300.28755176
300.225440374
300.167257276
300.12178949
346.180897763
314.823265352
305.655718129
302.886696351
301.747419311
301.239748923
300.988536054
300.844330031
300.744940421
300.665552177
300.59664649
300.533210893
300.471641951
300.409698432
300.345971942
300.279393752
300.211492431
300.156887177
300.120766805
300.096744924
347.468827189
315.809892596
306.847069789
303.426876051
301.960285995
301.291014726
300.96849589
300.794726062
300.682836686
300.597642396
300.525978832
300.460265411
300.395361517
300.326709212
300.256599802
300.199536811
300.158313714
300.127859857
300.106428809
300.091072983
348.93022258
316.726721774
307.814816695
303.864301423
302.102323486
301.307812915
300.933374306
300.73650813
300.613039783
300.52182506
300.447516896
300.374531215
300.300350494
300.243921479
300.201562906
300.168843482
300.143012753
300.122932892
300.107153439
300.094433649
351.808637032
320.761937619
308.777582568
304.07655501
302.105922551
301.246873425
300.859898448
300.660595874
300.53348971
300.439751955
300.356685794
300.289675032
300.245339494
300.212372999
300.18631626
300.1645241
300.146008771
300.129985513
300.115756656
300.101940431
355.868183491
321.379671869
308.53942438
303.778000318
301.848176035
301.08880502
300.755199779
300.575356263
300.450049031
300.35687178
300.293526788
300.256629688
300.229815465
300.208292255
300.189790847
300.172996874
300.15748931
300.14252259
300.127941364
300.1093429
349.935375374
317.840114052
307.017802104
302.907949409
301.46041846
300.904735637
300.650488812
300.495265621
300.383029613
300.311298028
300.276227238
300.252796514
300.233657728
300.216970055
300.20132304
300.186367362
300.171309908
300.155971412
300.138764127
300.113959772
333.254504388
313.207323324
304.941682645
302.114391697
301.13987777
300.759563582
300.57387308
300.438100428
300.350799361
300.305653852
300.281586508
300.262624721
300.245864809
300.230043859
300.214741203
300.199292075
300.183331533
300.165841115
300.144247905
300.114344819
322.886464179
309.467006769
303.537181904
301.59747152
300.931927623
300.671236839
300.525061943
300.414625981
300.350585398
300.318593643
300.296932194
300.278051663
300.260322964
300.243188866
300.226196068
300.208912482
300.190435782
300.169125199
300.142502923
300.110403644
316.850573221
306.880500901
302.712412645
301.301750172
300.825536723
300.624381459
300.502703894
300.416060753
300.366606013
300.3377018
300.31475071
300.293572275
300.27318612
300.253253174
300.233472132
300.213226038
300.191153934
300.165388335
300.135186488
300.102599519
313.715077707
306.002124211
302.560393772
301.274578549
300.808925452
300.625073871
300.513925037
300.437145336
300.390382444
300.358757132
300.332357531
300.307688635
300.283716174
300.260220133
300.236917686
300.212916256
300.186710668
300.156923551
300.124359389
300.092762234
313.403618581
306.02785984
302.651368247
301.272249458
300.830392266
300.671159928
300.56516591
300.483360891
300.425830514
300.384782
300.351772753
300.321933127
300.293249764
300.265310032
300.237719306
300.209358216
300.178833407
300.1457732
300.11260773
300.083394112
316.354462418
307.496441887
303.175669803
301.510585486
301.004054933
300.804441237
300.671571702
300.565731593
300.484021341
300.423074985
300.376603386
300.338056539
300.303021804
300.269749262
300.237291116
300.204277375
300.169788641
300.13474097
300.102365648
300.076196836
320.955310641
309.132400834
303.965208409
302.012708496
301.315965611
301.017986247
300.838598034
300.695709457
300.57713002
300.481977423
300.409998779
300.356288752
300.31294679
300.274273471
300.237302206
300.199869072
300.161867512
300.125861676
300.095339813
300.07250488
324.84953082
310.947476933
305.371942432
302.810042328
301.715659391
301.230877323
300.977479609
300.80626665
300.665213645
300.545166893
300.448360255
300.37613965
300.322805852
300.278775176
300.237860417
300.196621472
300.156388697
300.121205304
300.093017607
300.071914577
300.014248681
300.010492543
300.008505039
300.006936814
300.005354132
300.003984167
300.003096786
300.002947311
300.003205058
300.003536529
300.003848278
300.004051396
300.004287314
300.00448606
300.004528096
300.004457706
300.053481876
300.041042504
300.031596144
300.02426204
300.017668557
300.012388272
300.009626107
300.007640054
300.005833895
300.004337127
300.003380226
300.003218754
300.003437091
300.00374828
300.004041864
300.004226036
300.004441561
300.004612725
300.004638732
300.004558204
300.064580062
300.050057472
300.038727319
300.029288444
300.020713844
300.013925522
300.010570166
300.008243735
300.006282931
300.004671027
300.003690717
300.003528297
300.003693859
300.003980044
300.004251094
300.00440782
300.004594244
300.004739198
300.004753507
300.004649096
300.07567336
300.059225728
300.04558266
300.033782553
300.023038602
300.015036584
300.011331428
300.008805448
300.006740268
300.005015889
300.004076819
300.003914873
300.004013221
300.004257873
300.004497357
300.00461886
300.004766928
300.004885715
300.004891291
300.004762753
300.086011827
300.067716391
300.051754446
300.037439196
300.024393311
300.015786672
300.011970604
300.009404234
300.007206832
300.005407071
300.004591501
300.004420235
300.004435279
300.00460888
300.004793435
300.004866389
300.004970488
300.005065791
300.005065295
300.004926871
300.094680599
300.074801998
300.056734988
300.039749769
300.024767138
300.016411158
300.012603709
300.010012577
300.007665876
300.005893497
300.005282709
300.005064267
300.004964501
300.005034393
300.005137525
300.005151612
300.005205346
300.005283738
300.005278473
300.005137212
300.101365309
300.080228813
300.060273787
300.040251363
300.024865355
300.017059617
300.013305733
300.010566658
300.008097051
300.006573791
300.006164254
300.005813159
300.005547917
300.005492112
300.005503046
300.005447238
300.005458098
300.005535492
300.005530548
300.005398943
300.106237824
300.084088753
300.06224261
300.040108126
300.025323549
300.017972146
300.013972447
300.011015943
300.008604162
300.007557845
300.007218012
300.006585887
300.006114746
300.005936796
300.005863778
300.00572478
300.005733898
300.005830177
300.005829074
300.005708152
300.109686998
300.086643013
300.063644638
300.041012991
300.026607212
300.019055903
300.014599161
300.011451454
300.009433673
300.008881518
300.008327015
300.007301937
300.006626542
300.006347847
300.006233912
300.006029046
300.006073688
300.006185432
300.006188462
300.006071747
300.112652999
300.089611156
300.066454153
300.043978218
300.028850423
300.020230147
300.015195261
300.012117134
300.010773632
300.010381648
300.009292124
300.007922688
300.007126912
300.00676994
300.006633267
300.006428732
300.006501882
300.006615305
300.006625293
300.006507341
300.1180782
300.094505547
300.071262821
300.04918
300.031818731
300.021532151
300.015901276
300.01326686
300.012538774
300.011775789
300.010125148
300.008558679
300.007635539
300.007226703
300.007081408
300.006953262
300.007037893
300.007140506
300.007170716
300.00705574
300.12634853
300.101569081
300.07816862
300.056189398
300.035584766
300.023155037
300.016947167
300.014971551
300.014486228
300.013063487
300.010991438
300.009243457
300.008170988
300.007717846
300.007566598
300.007537609
300.007648994
300.007810782
300.00791163
300.007819055
300.13676055
300.111276181
300.087302112
300.0640296
300.040429991
300.025435842
300.018540481
300.01713575
300.016540665
300.014427894
300.012000756
300.010002945
300.008797531
300.008275298
300.008116357
300.008180558
300.008465723
300.008829346
300.009091138
300.009050947
300.148596592
300.122679828
300.097729414
300.071691653
300.045996457
300.028823621
300.020936174
300.019665111
300.018841264
300.016010072
300.013169966
300.010886341
300.009543524
300.008943808
300.008845237
300.009133907
300.009835004
300.010682533
300.011309902
300.011367901
300.160738919
300.134255577
300.108107239
300.079065096
300.051580008
300.033222277
300.024210203
300.02249772
300.021503094
300.017951672
300.014468788
300.011946031
300.010455355
300.009750424
300.009837119
300.010734649
300.01245545
300.014524381
300.016025424
300.016272691
300.17186715
300.144459218
300.116813335
300.085758445
300.05738195
300.038361896
300.028152138
300.025582721
300.024312871
300.020356726
300.015898218
300.013195986
300.011540683
300.010672926
300.011152691
300.013573823
300.018025294
300.02308743
300.026547876
300.027195544
300.181253083
300.151909926
300.122738228
300.091185044
300.062800038
300.043391197
300.03235766
300.028824491
300.026887428
300.022580076
300.01763436
300.014676744
300.01272424
300.011602139
300.012820505
300.018702597
300.029941528
300.041599038
300.049195777
300.050883493
300.188197167
300.155898484
300.125399718
300.094380493
300.066670775
300.047403646
300.03628241
300.031952685
300.029098928
300.024276154
300.019346151
300.016311493
300.01387914
300.012477235
300.01465215
300.026732722
300.052156147
300.077984608
300.094312639
300.098816
300.191635484
300.156281438
300.124566301
300.094390096
300.068113951
300.049827593
300.039322567
300.034491995
300.030492456
300.025420168
300.021134473
300.017870011
300.01495218
300.013395932
300.015703791
300.035632841
300.0871017
300.141512327
300.174122532
300.187282278
300.189976722
300.152343331
300.119700533
300.090821303
300.066926931
300.050457892
300.0409136
300.035814159
300.031134168
300.026499636
300.022840898
300.019040951
300.016061906
300.014623645
300.016340396
300.039932813
300.129063028
300.2386666
300.296810005
300.338539256
300.180913358
300.142205258
300.110088789
300.083933174
300.063459574
300.049279615
300.040727852
300.035836568
300.031576853
300.027954074
300.023928373
300.019985071
300.017302138
300.016808718
300.019719709
300.042188248
300.182334014
300.377756788
300.489788586
300.556616536
300.161186177
300.124015834
300.095715623
300.07441972
300.05821879
300.0467714
300.039899127
300.035869616
300.032282687
300.028609845
300.024498834
300.02085237
300.019059431
300.02072789
300.02672873
300.056955251
300.270500841
300.567726822
300.744683493
300.829199837
300.128242119
300.098138324
300.078143014
300.063692659
300.052306852
300.044309879
300.039230782
300.035587925
300.032099861
300.028437949
300.024631507
300.021702812
300.021982452
300.027175954
300.038035484
300.084365999
300.411246418
300.80166864
301.034232444
301.133079596
300.093532832
300.076420086
300.064824534
300.055524674
300.047441985
300.04183442
300.037706077
300.034260259
300.030949833
300.027491734
300.024228164
300.023022042
300.027662847
300.038154942
300.05384875
300.131837396
300.59295318
301.044447439
301.332511186
301.437704122
300.080872829
300.069879762
300.060934074
300.052556254
300.045221772
300.039744505
300.035692878
300.032290303
300.029070515
300.025947406
300.024093436
300.027519458
300.040696363
300.05886102
300.079373517
300.213560153
300.808688935
301.274682858
301.629908943
301.730982461
300.079609948
300.070016615
300.060448676
300.051321655
300.043557541
300.037607727
300.033359883
300.029865617
300.026798667
300.024801216
300.027419586
300.042672536
300.071153354
300.095661776
300.151058272
300.355759128
301.006053101
301.531743303
301.933308436
302.048324777
300.083109695
300.071725487
300.060247105
300.050070385
300.041585856
300.035164629
300.030757959
300.027365138
300.025302436
300.027267359
300.042697906
300.082244183
300.125676566
300.19592473
300.307304048
300.528272768
301.165695402
301.825079737
302.309157906
302.445753357
300.087429433
300.072803929
300.059394663
300.047951666
300.039402797
300.032614076
300.028378529
300.02588714
300.027058882
300.039547513
300.07852104
300.140019533
300.235144473
300.356858855
300.500186172
300.720767573
301.386729634
302.284843578
302.859997502
302.973984605
300.090173888
300.072410351
300.057189467
300.045202306
300.037014029
300.030481637
300.026934432
300.026809098
300.035652172
300.065486408
300.125047649
300.225096743
300.347276016
300.52858989
300.677057606
300.960508124
301.740762264
302.905475908
303.588711041
303.771790638
300.090168729
300.070244621
300.053866621
300.042469848
300.034724263
300.028979922
300.026838645
300.03135903
300.05153124
300.096735024
300.184775991
300.315982295
300.473627733
300.700379528
300.900553326
301.296989509
302.563346548
303.824238547
304.673415891
304.936522199
300.087398669
300.066165025
300.050397624
300.039881218
300.032827656
300.028100884
300.027919085
300.038547842
300.068641754
300.134445108
300.254319387
300.416060563
300.650024839
300.950226569
301.227386898
301.838234888
303.770051369
305.350575425
306.477250291
306.849392659
300.081976933
300.061179796
300.04694905
300.037614107
300.031379455
300.027625615
300.029526959
300.04451269
300.083979649
300.173576732
300.336265267
300.571685383
300.935041035
301.362926722
301.820819652
302.926806851
305.508398398
307.712007821
309.383940408
309.999838112
300.074996771
300.055944863
300.04373564
300.035840568
300.03041395
300.027371427
300.030398564
300.046701071
300.0903141
300.195099473
300.409990752
300.787099764
301.363307368
302.049118064
302.83568431
304.599044986
308.125767905
311.056598201
313.218799745
313.995709546
300.06775468
300.051224935
300.041332258
300.034823927
300.030080945
300.027434809
300.030408314
300.04671424
300.089444964
300.185577
300.395261802
300.860891746
301.671111971
302.572085164
303.749990247
306.441907506
311.108615083
314.075027956
315.909278132
316.374803968
300.061596372
300.048151173
300.040149954
300.034678397
300.030586316
300.02819388
300.03050462
300.044350636
300.080734772
300.160192477
300.329037711
300.683618508
301.340171189
302.399211704
303.830093623
307.168739166
312.44439978
314.848722309
316.237322065
316.45174912
300.058019467
300.046949779
300.040181641
300.035365475
300.032098598
300.03010108
300.031468971
300.041337928
300.06798742
300.126116992
300.248129291
300.490957296
300.936071991
301.653268383
302.759684232
305.627322372
310.40238396
313.190407838
314.607376186
314.850268125
300.056891877
300.047289145
300.041123396
300.03713157
300.034723974
300.033507973
300.034446044
300.040550076
300.057707311
300.095802953
300.174983941
300.33369321
300.624589631
301.098826578
301.815417138
303.276393952
306.654501537
310.311874021
312.340525559
312.861280674
300.057457448
300.048473621
300.043011815
300.040069013
300.039011983
300.039430853
300.041367847
300.04556847
300.055576459
300.078863918
300.128775302
300.230054721
300.420968681
300.740784352
301.236540385
302.223216543
305.318102842
309.649706178
312.051800544
312.739543215
)
;

boundaryField
{
    emptyPatch
    {
        type            empty;
    }
    minY
    {
        type            calculated;
        value           nonuniform List<scalar> 0();
    }
    maxY
    {
        type            calculated;
        value           nonuniform List<scalar> 
40
(
324.849674581
310.947507509
305.371957671
302.810051688
301.715665243
301.230880909
300.977481859
300.806268263
300.665214913
300.545167969
300.4483612
300.376140377
300.322806324
300.278775466
300.237860577
300.196621548
300.156388725
300.121205315
300.093017617
300.071914586
300.057457457
300.048473632
300.043011835
300.040069047
300.039012044
300.039430963
300.041368003
300.045568629
300.05557656
300.078863928
300.128775243
300.230054543
300.420968453
300.740783934
301.236539196
302.223206683
305.318073511
309.649718281
312.051849333
312.739608905
)
;
    }
    water_to_cooler
    {
        type            calculated;
        value           nonuniform List<scalar> 
38
(
300.001016258
300.001015829
300.001013083
300.001008411
300.001004509
300.001004956
300.001013268
300.00103266
300.001065475
300.001113517
300.001182277
300.001280457
300.001419248
300.001631498
300.001998146
300.00271208
300.004206031
300.007386874
300.013968639
300.026641862
300.048547812
300.082131584
300.12813608
300.187413447
300.263611746
300.366683701
300.513553042
300.711275114
300.94476402
301.215471339
301.542220211
301.994753342
302.630321748
303.454272991
304.362420498
305.247822241
305.942980177
306.120847624
)
;
    }
    water_to_heater
    {
        type            calculated;
        value           nonuniform List<scalar> 
59
(
791.267240468
791.220764657
791.222164966
791.18127871
791.17305459
791.143930694
791.106300537
791.098940617
791.088884384
791.107060297
791.108545555
791.121469505
791.036286038
791.123638252
791.111814187
791.198125162
791.197071479
791.266827506
791.264773282
791.405596937
791.525891589
791.541127236
791.559158434
791.557943396
791.563417309
791.550448298
791.551196481
791.537636023
791.535985306
791.547037769
791.543984656
791.575458127
791.569063482
791.616910211
791.613677988
791.675170715
791.679337719
791.737498812
791.739628484
791.787706841
791.791008082
791.832487726
791.836433277
791.865846751
791.795101385
791.798502912
791.665520873
791.626967054
791.61003947
791.510957332
791.522964085
791.364792686
791.362005709
791.14256596
791.127630851
790.884099361
790.87976336
790.712439263
790.725064646
)
;
    }
    procBoundary0to1
    {
        type            processor;
        value           nonuniform List<scalar> 
41
(
351.737376522
318.23591558
307.928686118
303.896114504
302.139193689
301.34416132
300.97171392
300.773577799
300.642757789
300.537412185
300.445599079
300.365998884
300.299791985
300.243618754
300.193999022
300.151564677
300.117357779
300.090805179
300.070242825
300.055096524
300.01093631
300.008517289
300.007290594
300.006160311
300.004810489
300.003590899
300.002807837
300.002692046
300.00297453
300.003329007
300.00365307
300.003869474
300.004122538
300.004348112
300.004410796
300.004343634
300.042918667
300.032482472
300.024584381
300.01905826
300.01905826
)
;
    }
}


// ************************************************************************* //
