/*--------------------------------*- C++ -*----------------------------------*\
| =========                 |                                                 |
| \\      /  F ield         | OpenFOAM: The Open Source CFD Toolbox           |
|  \\    /   O peration     | Version:  2312                                  |
|   \\  /    A nd           | Website:  www.openfoam.com                      |
|    \\/     M anipulation  |                                                 |
\*---------------------------------------------------------------------------*/
FoamFile
{
    version     2.0;
    format      ascii;
    arch        "LSB;label=32;scalar=64";
    class       volScalarField;
    location    "0.84/water";
    object      k.gas;
}
// * * * * * * * * * * * * * * * * * * * * * * * * * * * * * * * * * * * * * //

dimensions      [0 2 -2 0 0 0 0];

internalField   nonuniform List<scalar> 
1503
(
0.0342419154595
0.00802329761036
0.00217851024913
0.000843411689075
0.000961304176252
0.00117583522039
0.00124867503675
0.00126762314948
0.00127283100115
0.00127218669472
0.0012684235714
0.00126311364813
0.00125751557844
0.00125237944688
0.00124805464218
0.00124462292769
0.00124201873654
0.00124011579357
0.00123877949849
0.00123789373916
0.472988998533
0.147275023278
0.0405943437407
0.013213143204
0.00360378090712
0.00164836579233
0.00117227182367
0.00122638866332
0.00127393571232
0.00128286907251
0.00128142900301
0.0012767191187
0.001270471469
0.00126371602475
0.00125719771045
0.00125140554438
0.00124658657588
0.00124279755596
0.0012399772822
0.00123801380879
0.669908908699
0.251049115403
0.0899705215344
0.0305310016008
0.0108146466453
0.00349508721474
0.00157458107749
0.00118257886153
0.00125083270984
0.00128572379909
0.00129047087651
0.00128845805621
0.00128371766565
0.00127747389245
0.00127054452256
0.00126361800402
0.00125724233933
0.00125178014991
0.00124740780593
0.00124415890679
0.825014398389
0.328459289779
0.130311003318
0.0497567310488
0.0210807543771
0.00666427040624
0.00249381831103
0.00131574902265
0.00121419519442
0.00127809601131
0.00129379557752
0.00129506115719
0.0012925266131
0.00128782689991
0.00128175384612
0.00127495028479
0.00126804561634
0.00126160496381
0.00125605194131
0.00125163780621
0.898887550524
0.377000626611
0.158993083314
0.0664978015458
0.0260071274166
0.0116753844172
0.00354812766478
0.00159630577076
0.00119387720631
0.00125902606533
0.00129322042232
0.00129820866252
0.00129797491818
0.00129513743583
0.00129049281232
0.00128458096546
0.00127796017507
0.00127124066696
0.00126500076938
0.00125969445548
0.908930475395
0.399872836538
0.177417695494
0.0788510060584
0.0338828155955
0.0131224361864
0.00565188020487
0.00179891190337
0.00116435376226
0.00122042934078
0.00128901617893
0.00129935682988
0.00130098339565
0.00129992163494
0.00129681262607
0.00129209421698
0.00128620390549
0.00127969164215
0.00127318307207
0.0012672702982
0.922002115661
0.410841592675
0.187272116427
0.086707967882
0.0397222382833
0.0171337535957
0.0064450047229
0.0025092859458
0.0010338529289
0.00111433398876
0.00127561355675
0.00130018372244
0.00130275817732
0.0013031087328
0.0013014050691
0.00129789464683
0.00129288422389
0.00128682109862
0.00128030488642
0.00127399620232
0.935281413446
0.418342212278
0.193621690186
0.0921230600033
0.0441161752882
0.020479133178
0.00862556440596
0.00336171927333
0.00114482556321
0.000861695052368
0.00121588922635
0.00130126946193
0.00130475025125
0.00130569661143
0.00130508486933
0.00130261376857
0.00129841797504
0.00129283272278
0.00128639804743
0.00127979140032
0.946645581493
0.424647505359
0.198193995794
0.0960617928001
0.0474738715972
0.023269923929
0.010781496283
0.00433217443369
0.00179887876224
0.00068135077686
0.000995114173537
0.00129117529659
0.001308849089
0.0013087772335
0.00130865304665
0.001306880453
0.00130326099598
0.00129800486975
0.00129158518113
0.00128467212265
0.952796565656
0.428971258521
0.201581455426
0.0989519001196
0.050063429225
0.0255780913323
0.0127577433395
0.00581974370967
0.00217645476482
0.0009210345291
0.000637030333127
0.00119028907122
0.00131512552036
0.0013136081229
0.00131279965962
0.00131116735948
0.0013077298501
0.00130251467561
0.00129592826441
0.00128863860829
0.950841066176
0.430519978751
0.203565501601
0.100905805432
0.0520455430913
0.0275175029501
0.0145479518348
0.00727761568498
0.00315108340814
0.00113527937656
0.000565137244438
0.000841933233103
0.00130143664658
0.00132128475951
0.00131798541584
0.00131568508395
0.00131191530711
0.0013063748558
0.00129940467165
0.00129164273353
0.944943708821
0.429588995066
0.204170713046
0.102029690581
0.0534999915778
0.0291087129101
0.0160471332963
0.00857698614038
0.00412126919071
0.00162835375662
0.000775975767905
0.000507951320636
0.00115982576034
0.00132970346598
0.00132439530932
0.00132039914409
0.00131573290451
0.00130951242669
0.0013019614255
0.00129365631802
0.94071338245
0.428177783148
0.204105322238
0.1025880334
0.0544803840403
0.0303087676524
0.0172152430364
0.00961472319842
0.00495932351718
0.00216027398078
0.000850890919602
0.000513197816422
0.000803533581413
0.00132114316297
0.00133188602277
0.00132517143607
0.00131910318903
0.00131192112225
0.0013036508178
0.00129478265954
0.946857948711
0.429338654586
0.2041766006
0.102962179775
0.0552313366259
0.0311989632972
0.0180481231424
0.0103503142106
0.00563215901253
0.0026477780984
0.00110746796584
0.000656515711557
0.000516057619584
0.00125133312735
0.00134001907747
0.00133006384771
0.00132216518997
0.00131383750683
0.00130477812391
0.00129535413871
0.96154667612
0.43433546944
0.206015401408
0.104055654372
0.0561113813706
0.0318998098177
0.0186187660735
0.0108894700717
0.00620503492894
0.00312750261921
0.00137799846557
0.000671334902189
0.000465550156859
0.00109401895644
0.00134885250059
0.00133569654663
0.00132543652154
0.00131584611122
0.00130595000082
0.00129594055395
0.981422031847
0.442451203313
0.210697885116
0.10697628499
0.0577017969637
0.0326491531598
0.0190639761238
0.0113586317517
0.00676135644204
0.00367088542147
0.0017160829437
0.00083898717902
0.000568967483831
0.000891795046834
0.00135910362389
0.00134398500144
0.00132991286714
0.00131882114333
0.00130797172992
0.00129723871031
0.998969656539
0.456897074076
0.221227060969
0.112833474183
0.0600979569837
0.033383298932
0.0194279293353
0.0118249433876
0.00737314965188
0.0043380856745
0.00213613372137
0.00105730001975
0.000735260892272
0.000685363359451
0.00134858238232
0.00135894954345
0.00133715105993
0.0013237639516
0.00131164872877
0.00129989580843
1.04673938834
0.489637592675
0.238828916934
0.119964407208
0.0621652659844
0.0338619006096
0.0197456532287
0.0123499840391
0.00803536569782
0.00501668109199
0.00262884253293
0.00130657705202
0.000785125409275
0.000618951735342
0.00116955734002
0.00138277869542
0.00134917084685
0.00133154956404
0.00131757368169
0.00130435128743
1.15769217438
0.54123151361
0.257630309053
0.125454280944
0.0637368246616
0.0345653415947
0.0203306266087
0.012952109344
0.00866139525944
0.0056552748174
0.00311385765517
0.00156211238433
0.00101476583319
0.000758340498388
0.000689179891223
0.00136147713422
0.00136769233013
0.00134264536634
0.00132596139315
0.00131075506378
1.31282635257
0.587456404851
0.271331751892
0.130361912416
0.0662376519554
0.0360893872818
0.0213129072645
0.0136435515482
0.00925852999995
0.00624640043262
0.00357799102202
0.00175602545047
0.00119276838859
0.000883766642815
0.000618994733697
0.00102232258328
0.00138525477901
0.00135686541986
0.00133655114579
0.0013189628189
1.3851730125
0.614199961035
0.282898335062
0.136318459123
0.0696582277467
0.0380754642512
0.0224585653621
0.0143607471583
0.00981552112377
0.00678010429617
0.003998426605
0.00191231844406
0.00127315909165
0.00106619954589
0.000662988199738
0.000524994676842
0.00133092963299
0.00137315222529
0.0013487912866
0.00132862246629
1.40497355221
0.626330196841
0.290408374939
0.141070890412
0.0725423007263
0.0397727103079
0.023430687389
0.0149625413036
0.0103134127456
0.00727237435914
0.00436461985248
0.00204722781455
0.00130986471681
0.00116335750077
0.000844000549768
0.000472162600776
0.00104660752423
0.00138597448278
0.00136200025417
0.00133922823007
1.41144239047
0.630807777241
0.294027678636
0.143644544518
0.0743021269857
0.0408842825293
0.0240995173535
0.0154530959761
0.010820989393
0.00774112645769
0.00468007879514
0.00216485719948
0.00135020198216
0.00122102849117
0.000964656950417
0.000571248214167
0.00067676787222
0.00138067285123
0.00137527755654
0.00135011087042
1.42188857743
0.634970478665
0.296163323252
0.144932003411
0.0752606094464
0.0415816669555
0.0246238322313
0.015982482865
0.0113801604928
0.00817547304194
0.00497395180639
0.00230096626178
0.00141439110069
0.00128197189882
0.00104815120803
0.00057358061847
0.000488055035272
0.00134668172182
0.00138764785662
0.00136043300729
1.4360708794
0.640991979581
0.29831762559
0.145757261367
0.0758481845023
0.0421354270451
0.0251906734309
0.0166264961655
0.0119391058164
0.0085642525692
0.00527958945242
0.00248827935864
0.0015185841953
0.0013742075463
0.0011393324907
0.000660114804087
0.000443152483918
0.00129431116431
0.00139845573514
0.00136929802248
1.45691867118
0.649358315216
0.301787334923
0.147155658443
0.076662666926
0.0428391950952
0.0259131506017
0.017326664102
0.0124320710889
0.00892015725395
0.00560403761521
0.00273027505736
0.00166626674998
0.00150039815105
0.00126474689565
0.00079042809087
0.000479509702247
0.00121959806224
0.0014077698973
0.00137616387117
1.47752797889
0.658807342519
0.306091475966
0.149164456548
0.0778472806591
0.0437478021373
0.0267335323256
0.0179575759184
0.0128323491642
0.00923554151254
0.00592423685868
0.00299785285587
0.00182503515375
0.00163829996283
0.00143783169145
0.00096746075251
0.000594601872139
0.00108396184787
0.00141719768318
0.00138154833661
1.50135871948
0.666869354306
0.309654138452
0.151067942624
0.0790659552584
0.0446440476152
0.0274328108616
0.018388603025
0.0131030363458
0.00946533992392
0.00618530914936
0.00322370105651
0.00193743443899
0.00175455315923
0.00161925714614
0.00118924124298
0.00078233051066
0.000858394987163
0.00142697893406
0.00138698546688
1.52311978199
0.673401997832
0.31170608647
0.152372006701
0.0800481513784
0.0453475444477
0.0278426482285
0.0185562303024
0.0131949011698
0.00955773064649
0.00633220517934
0.00335099572148
0.00201046521084
0.00184876612345
0.00175373243635
0.00140910660702
0.00079541073599
0.000651561829683
0.00142481687436
0.00139429756555
1.53193159295
0.672306716592
0.310935503482
0.15289260926
0.0807921753921
0.0457434320446
0.0278599322107
0.0184237665635
0.0130637038395
0.00946761773245
0.00628796835637
0.00340029203081
0.0020797128564
0.00190828633864
0.00183954940045
0.00157568884698
0.000994304300464
0.000613053220418
0.00137021235651
0.00140532106297
1.50251385429
0.656212713557
0.307470214571
0.153786635656
0.0817038845789
0.0457818142559
0.0274345569388
0.0179643407931
0.0126804607343
0.00913303073474
0.00606667395365
0.00345239467436
0.00213752009313
0.00192967734142
0.0018802871279
0.00164525723081
0.00116896765851
0.000748844566508
0.00120319059027
0.00142145474722
1.41372916743
0.634822488805
0.307762694235
0.157086091613
0.0827675534623
0.0451609495266
0.0264790412946
0.0171826221799
0.0120648346128
0.00862098164077
0.00583051917252
0.00349630982218
0.00216886330335
0.00191131580028
0.00187486105768
0.00167434972111
0.00130023414416
0.000836679267472
0.000921996830251
0.00143981230927
1.34268788978
0.639459847915
0.320908986072
0.162973204518
0.0826783014966
0.043904278538
0.0254297470094
0.0163898311378
0.0114189092375
0.00816624271061
0.00566137893174
0.00352628216257
0.00216890570731
0.00184266289627
0.00181684185581
0.00167580377831
0.00139528926622
0.000871417153294
0.000684571353461
0.00143757960592
1.40453146169
0.703832073505
0.348575856295
0.169431465873
0.0836097616522
0.0435627753006
0.0249468059191
0.0159368608999
0.0110464548367
0.00793608867046
0.00561760127651
0.0035830871295
0.00215001078345
0.00172649904014
0.0017077198332
0.00164407289879
0.00145360028527
0.00102708534664
0.000673152129855
0.00132886601504
1.70382068588
0.832780573826
0.382690919407
0.177846774571
0.0868009432443
0.0453192267366
0.0258074344915
0.016251999959
0.0111269538346
0.00799718661392
0.00574482637375
0.00372479925664
0.0021520056721
0.00159030474216
0.00156239509315
0.0015745635694
0.00145505036296
0.00114522092508
0.000776503319658
0.000966022711783
2.24004302361
0.97742079297
0.419269348049
0.193576117047
0.0957692101996
0.0504193148463
0.0284753033485
0.0175189331385
0.0117284643587
0.0083748425242
0.00608050919153
0.00401241407092
0.00222832022882
0.00147972677102
0.00141698769382
0.00148315701911
0.00142534541404
0.00121118142953
0.000776072577387
0.000575450423368
2.51003787135
1.11278767456
0.49988431687
0.233030847995
0.114133400338
0.0590247812041
0.0327036404268
0.0196293562435
0.012818868023
0.00905133375739
0.00662424971025
0.0044659136371
0.00243219554975
0.00143725512596
0.00131242221665
0.0014002966499
0.00138504819831
0.00120925513023
0.000890252041873
0.000542747224986
2.34978921428
1.10854560714
0.546668296956
0.28041017264
0.147505244854
0.0724505597857
0.0382019077374
0.0223093381859
0.0142645991214
0.00995063005634
0.00731028733106
0.00503163578238
0.00275908614952
0.00149169157211
0.00126363517748
0.0013546516946
0.00136382691762
0.00120818707009
0.000964484286092
0.000594563181702
0.00123737929278
0.00123716043962
0.00123716647763
0.00123735957882
0.00123772860109
0.00123827844906
0.00123902179789
0.00123997034834
0.00124112311319
0.00124244976809
0.00124386847262
0.00124522080989
0.00124625271323
0.00124661863376
0.0012459358412
0.00124400399076
0.00124306760039
0.00129210853339
0.00262396018132
0.0232985241102
0.00123681463461
0.00123625700628
0.00123619519438
0.00123653142958
0.00123721371993
0.00123821325343
0.00123950324109
0.00124103934455
0.00124274148731
0.00124447930096
0.00124606518863
0.00124725670901
0.0012477578889
0.00124718341717
0.00124497085016
0.00124136979714
0.0012605550021
0.00172003977625
0.00713668340088
0.0433777235997
0.0012420319104
0.00124092020433
0.00124061477457
0.00124093758491
0.00124176240457
0.0012429860338
0.00124449929942
0.0012461656114
0.00124780951809
0.00124921624011
0.00125013735068
0.00125028532151
0.0012492796262
0.00124649303148
0.001241026225
0.00123713256899
0.00133256601677
0.00268519427704
0.0129843717947
0.0557964466526
0.00124853905949
0.00124674319564
0.00124602021601
0.00124611746963
0.00124682405659
0.00124794776713
0.00124928996848
0.00125063275016
0.00125173894333
0.00125235782536
0.00125221915713
0.00125098602123
0.00124812370611
0.00124269099957
0.00123421583786
0.0012419928497
0.00154061302433
0.00443724917565
0.0194669682775
0.0625825543301
0.00125570818534
0.00125318021283
0.00125191036578
0.00125159422539
0.00125194689276
0.00125269549411
0.00125356783015
0.00125429084086
0.00125459516788
0.00125421160751
0.00125283730083
0.00125004237269
0.00124509183248
0.00123690891108
0.00122791741076
0.00127618183281
0.00198855436876
0.00698109506578
0.0252969075179
0.0658400088958
0.00126253098864
0.00125928283969
0.00125739331204
0.00125653604169
0.00125637354452
0.00125657163432
0.00125680622783
0.00125677026785
0.00125617440732
0.00125472591125
0.00125206604165
0.00124764500516
0.00124056855509
0.00123023030334
0.00122729743247
0.00137018940133
0.00277558560522
0.0100367783854
0.0297460824424
0.0671389010561
0.00126861988865
0.00126468167151
0.00126213175339
0.00126065164883
0.00125987396201
0.00125942369912
0.00125894255214
0.00125810028123
0.00125658697618
0.00125407404272
0.00125013052719
0.00124409416211
0.001235081916
0.0012242603806
0.00124038105296
0.001564439283
0.00394563002637
0.0131444632675
0.0327497991487
0.0673532298024
0.00127384845967
0.00126923669805
0.00126599969752
0.00126384572241
0.0012623958931
0.00126125067734
0.00126002881996
0.00125838020419
0.00125596912687
0.00125242154058
0.00124723308693
0.00123968277516
0.00122926140266
0.0012213017157
0.0012788516405
0.00190374344658
0.00544843753786
0.0159067131233
0.0346084446333
0.0669345900905
0.00127818386278
0.00127290045762
0.0012689619826
0.0012661100323
0.00126396548179
0.00126211473213
0.00126015951233
0.00125772960155
0.00125445887261
0.00124992528598
0.00124356926629
0.00123472779679
0.00122391796949
0.001224674959
0.0013586142693
0.00242505559405
0.00714761334604
0.0181266867952
0.0356625311134
0.0661291441826
0.00128158857026
0.00127563929692
0.0012710078052
0.00126746520572
0.00126463622405
0.00126209875563
0.00125944045099
0.00125627042924
0.0012521909156
0.00124673852635
0.00123934109019
0.00122959957624
0.00122014558245
0.0012391118143
0.0014994760084
0.00314209496664
0.00887235407301
0.0197917205114
0.0361726277214
0.0650839817068
0.00128401983164
0.00127743636274
0.00127215465506
0.00126796376164
0.00126449146211
0.00126131001523
0.00125799528467
0.00125413686789
0.00124930890555
0.00124302434135
0.00123477336124
0.00122475656049
0.00121945306531
0.00127115639957
0.00172305470295
0.00403541230967
0.0104769915389
0.0209849864952
0.0363157685295
0.063890956336
0.00128548540399
0.00127833743968
0.00127248342486
0.00126771579129
0.00126366294735
0.00125989403132
0.00125597638885
0.00125148389339
0.00124597173353
0.00123896045844
0.0012301221233
0.00122078157396
0.00122392521109
0.00132942565437
0.00204843786079
0.00505442469492
0.0118746396169
0.0218111334304
0.036209921142
0.0626084800735
0.0012861247731
0.00127850639818
0.00127217380228
0.00126690956159
0.00126234111992
0.00125803788944
0.00125356339374
0.00124848238533
0.00124234653905
0.00123473288256
0.00122567746699
0.0012184269334
0.00123640873624
0.00142449591395
0.00248656080281
0.00613088117756
0.013037359002
0.0223612907566
0.0359342617568
0.0612742330968
0.00128626513063
0.00127825052176
0.00127150882303
0.0012658027386
0.00126075832476
0.00125594908874
0.00125094016477
0.00124529626264
0.00123858835188
0.00123052222814
0.00122176813546
0.00121867801813
0.00126069979842
0.00156814935198
0.00303564222209
0.00719695029717
0.0139767873263
0.0227053678715
0.0355423242765
0.0599131271813
0.00128640293755
0.00127798564641
0.00127083098699
0.00126467497299
0.00125914174414
0.00125381148875
0.00124825578161
0.00124205040768
0.00123481736213
0.00122649488776
0.0012187804129
0.00122284491544
0.00130169087529
0.00177187230378
0.00367998141019
0.00819979527668
0.0147226427467
0.022895008245
0.0350705306057
0.0585423569699
0.00128710130145
0.00127814443886
0.00127046144933
0.0012637585946
0.00125765608935
0.0012517402306
0.00124559188924
0.00123881080184
0.0012311128222
0.00122281456428
0.00121720358079
0.00123268872415
0.00136543202395
0.0020448660069
0.00439289003009
0.00910797794248
0.0153083212106
0.0229682998646
0.0345438563591
0.0571744522557
0.00128884930741
0.00127906986984
0.00127062286128
0.00126318645974
0.00125637244837
0.0012497680917
0.00124296363088
0.00123559769189
0.00122753739301
0.00121968166524
0.00121770633451
0.00125058413865
0.00145907048585
0.0023921449421
0.00514255467171
0.00991000284275
0.0157642944224
0.0229535963937
0.0339795707918
0.0558187940288
0.00129195348909
0.00128095136842
0.00127141332834
0.00126299458575
0.00125529092897
0.00124788103987
0.0012403625387
0.00123243177346
0.00122418542044
0.00121739104701
0.00122123766541
0.00127971270089
0.0015906168667
0.00281328069992
0.00589843029759
0.0106084190446
0.0161162716479
0.0228722268747
0.0333896612558
0.0544819840833
0.0012965116646
0.00128384014482
0.0012728508524
0.00126318295762
0.00125440758668
0.00124608405358
0.00123781646322
0.00122938596749
0.00122122890743
0.00121638756565
0.00122914186256
0.00132426526228
0.00176842440246
0.00330205602607
0.00663591282697
0.0112131606035
0.0163852144074
0.0227403237659
0.0327823881111
0.053167558136
0.00130245799038
0.00128771864776
0.00127494932669
0.00126378714798
0.00125377571888
0.00124444927967
0.00123542399811
0.00122660812756
0.00121893631354
0.00121730607127
0.00124328208335
0.00138959224599
0.00200022575285
0.00384701245719
0.00733820743866
0.0117363629308
0.016587714688
0.0225699884087
0.0321632860114
0.0518756053532
0.00130962424228
0.00129254938131
0.00127775252107
0.0012648975565
0.00125351197383
0.00124311100163
0.00123334093903
0.00122430368512
0.00121766288858
0.00122100199261
0.0012661685407
0.00148217247568
0.00229168633011
0.0044327564449
0.007995685314
0.0121892914229
0.0167363736052
0.0223700278924
0.0315358483874
0.0506027919181
0.00131773668601
0.00129824293065
0.0012812882912
0.00126660865943
0.00125374522903
0.00124221632004
0.00123173462531
0.00122269780353
0.00121783360264
0.0012285911027
0.0013010718064
0.0016092226282
0.0026447525293
0.00504182972342
0.00860388729435
0.0125810638577
0.0168402731846
0.022146504956
0.0309020610241
0.0493430524143
0.00132636244249
0.00130457948313
0.00128548670646
0.00126894383876
0.00125455104723
0.00124186950384
0.00123073870693
0.00122200469954
0.00121994251141
0.00124151287878
0.00135207178994
0.00177783926346
0.00305641612805
0.00565683164672
0.00916142644486
0.012918555308
0.0169056469763
0.0219032876994
0.0302628855192
0.0480888873737
0.00133487731752
0.00131116376483
0.00129013262122
0.00127181024344
0.00125591080564
0.00124209725705
0.00123042785434
0.00122241983531
0.00122458253205
0.00126161730989
0.00142397279068
0.00199379488404
0.00351855483057
0.00626235713881
0.00966854855289
0.0132069164852
0.0169367073337
0.0216426637065
0.0296187133688
0.0468329175752
0.00134254655641
0.00131747825048
0.00129489302103
0.0012750065135
0.00125770826182
0.00124284309877
0.00123081960832
0.00122414299089
0.00123251208262
0.0012912594718
0.00152203807071
0.00226036421237
0.00401908944466
0.00684632835767
0.01012646214
0.0134502658855
0.0169364702713
0.0213659680335
0.028969758893
0.0455692349016
0.0013487967823
0.00132306179193
0.00129942756757
0.0012782881308
0.00125977011341
0.00124399966555
0.00123191270272
0.00122743915279
0.00124475635526
0.00133337301425
0.00165156478631
0.00257760675631
0.0045440558136
0.00740048858422
0.0105371230633
0.0136522507891
0.0169073989131
0.0210741137969
0.0283163382423
0.0442941970904
0.00135361682527
0.00132776840514
0.00130355999077
0.00128148516398
0.00126195385283
0.00124548315986
0.00123376144133
0.00123272844114
0.00126272089817
0.00139148473213
0.00181737238855
0.00294229805161
0.00507976998137
0.00792008943214
0.0109030858268
0.0138163206817
0.0168517593565
0.0207679303744
0.0276590027706
0.0430065808033
0.00135766056084
0.00133190410109
0.00130740623862
0.00128461249272
0.0012642407724
0.00124731289297
0.00123654912977
0.0012406668567
0.00128827465012
0.00146962692877
0.00202325566599
0.00334837136482
0.00561433652715
0.00840302029273
0.0112272175232
0.0139457180614
0.0167717017609
0.0204482849442
0.0269985342852
0.0417072987435
0.00136194634194
0.00133610559649
0.00131133739288
0.00128786965505
0.00126674836342
0.00124962591519
0.00124060616464
0.00125217713684
0.00132376366724
0.00157210432046
0.00227140705384
0.00378759068828
0.00613822310798
0.008848758967
0.0115123255911
0.0140433328057
0.0166691917696
0.0201160553086
0.0263358573369
0.0403990558749
0.00136745133209
0.00134102856131
0.00131576806994
0.00129149754278
0.00126963015109
0.00125260672082
0.00124636784289
0.00126843326262
0.0013719468931
0.00170309983623
0.00256186544238
0.00425031077306
0.00664415257204
0.00925753325152
0.0117609006242
0.0141116203107
0.016545963473
0.0197720838619
0.0256719551224
0.0390862551558
0.00137470797732
0.00134696344532
0.00132086698888
0.00129557199042
0.00127293431703
0.00125639885314
0.00125433289571
0.0012908442952
0.0014358757706
0.00186618173044
0.0028921974878
0.00472636944974
0.00712679876716
0.00962993417828
0.0119751280472
0.0141527059738
0.0164036039495
0.0194172200628
0.0250078531693
0.0377751912202
0.00138374658887
0.00135366743856
0.00132640878431
0.00129990450504
0.00127655505933
0.00126110172776
0.00126509681021
0.00132108411404
0.00151876681846
0.00206388141604
0.00325768939923
0.00520615814677
0.00758263754479
0.00996697017757
0.0121571482673
0.0141686495955
0.0162437609708
0.0190524770179
0.0243446803812
0.0364742618391
0.00139479676159
0.00136063524116
0.001331930245
0.00130416946119
0.00128035727194
0.00126689928538
0.00127948104634
0.00136118478479
0.0016239402224
0.00229754997185
0.0036521620975
0.00568172420723
0.00800998238792
0.0102703269096
0.0123093790969
0.0141617175835
0.0160683568257
0.0186792270496
0.0236837491638
0.0351937786231
0.00140877951928
0.00136750966796
0.00133703174515
0.00130816180098
0.00128440175712
0.00127425652412
0.00129870984464
0.00141368617006
0.00175488484565
0.00256757630601
0.00406917557341
0.00614757302044
0.00840898239215
0.01054252132
0.012434674366
0.014134492333
0.0158796695606
0.0182993197188
0.023026583062
0.0339450725446
0.00142290049606
0.00137434429695
0.0013416323553
0.00131203165371
0.00128914041228
0.00128408176426
0.00132457607715
0.00148182891932
0.0019154295195
0.00287381120558
0.00450312064491
0.00660084767679
0.00878132556936
0.0107867314272
0.0125361820161
0.0140897269644
0.0156801965724
0.017915021356
0.0223748392837
0.0327389020183
0.00139843697017
0.00138179578682
0.00134614738689
0.00131641184963
0.00129548502858
0.00129778490243
0.00135956447557
0.00156974705008
0.00210985675135
0.00321584795304
0.00494970205126
0.00704076523776
0.00912954281496
0.0110062731396
0.0126169237189
0.0140299840758
0.0154723238508
0.0175287457921
0.021730123883
0.0315835069823
0.00118437235189
0.00139048996007
0.00135153614462
0.00132232112088
0.00130465656113
0.00131718936342
0.00140689810851
0.0016825204773
0.00234265523566
0.0035928027871
0.00540558377472
0.00746746348937
0.00945603139474
0.0112038844113
0.0126792560967
0.0139572014933
0.0152579110177
0.0171425884851
0.0210934802635
0.0304827023118
0.000742660418224
0.00139250404604
0.00135866780641
)
;

boundaryField
{
    emptyPatch
    {
        type            empty;
    }
    minY
    {
        type            fixedValue;
        value           uniform 0.000138;
    }
    maxY
    {
        type            inletOutlet;
        inletValue      nonuniform List<scalar> 0();
        value           nonuniform List<scalar> 0();
    }
    water_to_cooler
    {
        type            kqRWallFunction;
        value           nonuniform List<scalar> 
37
(
0.0232985241102
0.0433777235997
0.0557964466526
0.0625825543301
0.0658400088958
0.0671389010561
0.0673532298024
0.0669345900905
0.0661291441826
0.0650839817068
0.063890956336
0.0626084800735
0.0612742330968
0.0599131271813
0.0585423569699
0.0571744522557
0.0558187940288
0.0544819840833
0.053167558136
0.0518756053532
0.0506027919181
0.0493430524143
0.0480888873737
0.0468329175752
0.0455692349016
0.0442941970904
0.0430065808033
0.0417072987435
0.0403990558749
0.0390862551558
0.0377751912202
0.0364742618391
0.0351937786231
0.0339450725446
0.0327389020183
0.0315835069823
0.0304827023118
)
;
    }
    water_to_heater
    {
        type            kqRWallFunction;
        value           nonuniform List<scalar> 
61
(
0.0342419154595
0.472988998533
0.472988998533
0.669908908699
0.669908908699
0.825014398389
0.825014398389
0.898887550524
0.908930475395
0.922002115661
0.922002115661
0.935281413446
0.935281413446
0.946645581493
0.946645581493
0.952796565656
0.950841066176
0.944943708821
0.944943708821
0.94071338245
0.94071338245
0.946857948711
0.946857948711
0.96154667612
0.981422031847
0.998969656539
0.998969656539
1.04673938834
1.04673938834
1.15769217438
1.15769217438
1.31282635257
1.3851730125
1.40497355221
1.40497355221
1.41144239047
1.41144239047
1.42188857743
1.42188857743
1.4360708794
1.45691867118
1.47752797889
1.47752797889
1.50135871948
1.50135871948
1.52311978199
1.52311978199
1.53193159295
1.50251385429
1.41372916743
1.41372916743
1.34268788978
1.34268788978
1.40453146169
1.40453146169
1.70382068588
2.24004302361
2.51003787135
2.51003787135
2.34978921428
2.34978921428
)
;
    }
    procBoundary2to3
    {
        type            processor;
        value           nonuniform List<scalar> 
41
(
2.16956744656
1.04956689043
0.540566947843
0.293352389887
0.163882544745
0.0833791429303
0.0436419684361
0.0251585825149
0.0158883152047
0.010970690856
0.00804813757601
0.00561940138187
0.00316360454555
0.00163868914294
0.00127546931194
0.00135348259275
0.00137534329243
0.00123030718621
0.00102248480804
0.000617996402268
0.00133060587989
0.00131778623398
0.00134433868246
0.00147048150497
0.00182588720437
0.00261767890944
0.00400255747464
0.00586744902126
0.00788073009473
0.00976218011111
0.0113811802748
0.0127245728794
0.0138726419285
0.0150386664973
0.0167597789448
0.0204694046422
0.0294399173556
0.000454533200113
0.00135050037578
0.00133060587989
0.00136768948128
)
;
    }
}


// ************************************************************************* //
