/*--------------------------------*- C++ -*----------------------------------*\
| =========                 |                                                 |
| \\      /  F ield         | OpenFOAM: The Open Source CFD Toolbox           |
|  \\    /   O peration     | Version:  2312                                  |
|   \\  /    A nd           | Website:  www.openfoam.com                      |
|    \\/     M anipulation  |                                                 |
\*---------------------------------------------------------------------------*/
FoamFile
{
    version     2.0;
    format      ascii;
    arch        "LSB;label=32;scalar=64";
    class       volScalarField;
    location    "0.41/water";
    object      alpha.gas_0;
}
// * * * * * * * * * * * * * * * * * * * * * * * * * * * * * * * * * * * * * //

dimensions      [0 0 0 0 0 0 0];

internalField   nonuniform List<scalar> 
750
(
0.124709961818
0.144839845833
0.118475500442
0.160281331481
0.497025341761
0.805848633497
0.835505179761
0.836013538226
0.819244326902
0.361141809328
0.0826066950488
0.0567345789182
0.0479303039339
0.0340746223295
0.0236087518308
0.0189818317637
0.0166598693479
0.0135502377649
0.00954201032362
0.00662182459671
0.1755305808
0.374592708265
0.651435608025
0.811082324025
0.836223196108
0.835523351983
0.836200151679
0.835505179761
0.835706711739
0.793574233323
0.712885675701
0.651407477856
0.606785355253
0.573521486889
0.348464041882
0.0266596803473
0.00470365354318
0.0046309546148
0.00468647471351
0.00464712512879
0.783280649058
0.798909635467
0.824826213106
0.835869317673
0.835538421491
0.833878334087
0.832480937077
0.83195305445
0.831578754604
0.82954132797
0.825346791725
0.820202469223
0.815338043772
0.809854305775
0.791808097072
0.731629794707
0.656053118104
0.558016207367
0.405551413496
0.279021996648
0.840714447641
0.841747094903
0.84016426003
0.836728872721
0.832457273881
0.827508250807
0.822550134596
0.818890353038
0.817185570019
0.816613186545
0.815306449104
0.814259591597
0.814523978734
0.819052115538
0.831249477073
0.849467366448
0.861630104181
0.858928198508
0.833977056003
0.802864359074
0.847821557091
0.845297395544
0.841599836623
0.837861296436
0.833279743935
0.827157337199
0.818878835978
0.809559403438
0.800875470273
0.793860978471
0.789486605578
0.788248211367
0.789915443988
0.795386145994
0.809367026331
0.834602605072
0.869360967557
0.90936070689
0.94029987284
0.954444357327
0.847825258614
0.847512363914
0.845839234109
0.842718028611
0.838447435704
0.831981714499
0.822083545274
0.807470911378
0.788625770742
0.770240064823
0.75813089025
0.754149924748
0.755260823563
0.762100781514
0.779367586328
0.811463689417
0.857005164714
0.904395787809
0.9431468056
0.96511304213
0.84339169343
0.843214923043
0.842781285043
0.840944345988
0.837053623581
0.830327668164
0.818935933562
0.800296495556
0.774658974688
0.750012402971
0.737505823385
0.737473202774
0.740077798771
0.757707167724
0.789107554289
0.829984828479
0.875233590041
0.916949323121
0.949586674967
0.968005297896
0.859539525068
0.857900917212
0.853248017218
0.846931239926
0.840000983683
0.831607253451
0.819571012459
0.801926141119
0.780136194062
0.76156028508
0.753778675583
0.756246301114
0.769415931578
0.798730536122
0.841576521854
0.883576846
0.916421098273
0.939957570976
0.95756822089
0.969101689891
0.891486348389
0.885435345483
0.875259400046
0.865701576729
0.857501983406
0.849625083812
0.840556852435
0.82996503651
0.820025774881
0.814637100939
0.815400547951
0.823691997084
0.844394914178
0.874327487083
0.905231564542
0.92836027439
0.942711345164
0.952061915471
0.960511180636
0.967794713255
0.894175331034
0.89148025106
0.88521818627
0.87865161302
0.873747374178
0.869896320103
0.866310131811
0.863398155203
0.862364982866
0.863831015939
0.868115002463
0.877307982345
0.894653908736
0.913843573286
0.928353091841
0.938409614889
0.945328372417
0.950709301886
0.956018623516
0.960377694473
0.877129117689
0.868332116595
0.857169464481
0.850054924153
0.846634359599
0.84482116581
0.843785828045
0.843504106839
0.844150204542
0.84547242103
0.847384583576
0.85197319046
0.867927397216
0.891217568484
0.907559426022
0.919414225294
0.928493988416
0.932485804625
0.932922814279
0.931198782443
0.789282541311
0.789304465708
0.789260546155
0.789304465708
0.78923686052
0.789304465708
0.789236505679
0.789401090975
0.79291435645
0.794126621728
0.791480448432
0.783691454712
0.772906978807
0.764731512653
0.768676577635
0.789724662231
0.825728691919
0.855394372087
0.864798878454
0.86011192696
0.816229741372
0.814291092388
0.811004891929
0.809194608464
0.80929015174
0.811325783651
0.816867385721
0.824119372907
0.828065821995
0.827599829499
0.821523224964
0.799373590324
0.74245725372
0.557153062405
0.376996015482
0.313137630961
0.365973217235
0.547216665301
0.684281327912
0.843554427952
0.842961509335
0.843109420576
0.844729747596
0.849663577415
0.858501957318
0.871211252214
0.884331560096
0.889631343659
0.88869790733
0.881633159328
0.848469866669
0.80801740857
0.532422486647
0.235040558192
0.127004610408
0.0925496261556
0.102658986045
0.131859902683
0.877496155157
0.873430320481
0.871871100606
0.873050430239
0.878741195667
0.890214395008
0.898309299412
0.898415314081
0.898309299412
0.898413082253
0.898309299412
0.897932092029
0.862828521372
0.581119592257
0.208954843655
0.072878285107
0.0354206802523
0.0276771950207
0.0227921520876
0.922463951927
0.889783835218
0.881033215472
0.877604573549
0.879865724248
0.887661905931
0.898327202471
0.898309299412
0.898421566007
0.898309299412
0.898463718257
0.898309299412
0.82336462481
0.237977452148
0.0286338931042
0.00857114534318
0.00580382391637
0.00461766724457
0.0033660293477
0.769376953323
0.767181932656
0.768503343443
0.778683765342
0.811499776059
0.865176931174
0.898309299412
0.898752070619
0.898309299412
0.898584602266
0.898309299412
0.898360577821
0.861256430183
0.309978547725
0.0110988486609
0.00336012994183
0.00336943720097
0.00336338147114
0.00336705080466
0.489384496438
0.490607413433
0.488185640696
0.490607413433
0.586989823654
0.772095557675
0.88071533553
0.898309299412
0.898751838356
0.898309299412
0.898413811995
0.88572021806
0.821520886457
0.669090716956
0.230713731562
0.0188358301699
0.00608434895136
0.00366876613597
0.00336172704882
0.490607413433
0.485762732416
0.490607413433
0.484374678041
0.490607413433
0.510997834247
0.772306232715
0.895027646744
0.898309299412
0.898546082808
0.898309299412
0.876163176988
0.82589874283
0.764048630243
0.551805893551
0.0443389282472
0.00337267696225
0.00335771050591
0.00336939109478
0.660379624418
0.657399081099
0.65355006082
0.656511593695
0.67276803754
0.720428794182
0.801452334744
0.870766498819
0.893994940187
0.897229566166
0.894393990011
0.878238200658
0.851248160202
0.829065040567
0.819572859368
0.492443157628
0.0234381444925
0.00337267696225
0.00336173638661
0.857630690375
0.852770056289
0.84619634044
0.842845922429
0.843854550291
0.851586308403
0.85116230438
0.877176052661
0.893536993178
0.899119010226
0.898449224463
0.893208793801
0.889448291962
0.887792737611
0.888341827935
0.858939289785
0.618546778891
0.139347135054
0.010550999107
0.906228194924
0.910885640872
0.909610633606
0.908644611113
0.908553052074
0.906439307658
0.897098314822
0.898864173723
0.906430815265
0.914292766667
0.919987535071
0.925711621262
0.931535389449
0.934232541452
0.93142726817
0.911586287288
0.826706383483
0.609047472988
0.355490931691
0.918875789714
0.925024383456
0.923899585001
0.925163268039
0.928539149807
0.931608721019
0.931963117787
0.932495646198
0.936848170581
0.94424454651
0.951938559571
0.958780320142
0.963036090506
0.964101514438
0.96067492371
0.945659438795
0.904799803067
0.815888803565
0.674244487248
0.534972109222
0.926617022583
0.93136189453
0.929677218983
0.931315510711
0.936134127569
0.943227118125
0.950151327317
0.955558162184
0.960414062275
0.965282964256
0.969806742528
0.973528709622
0.976031567007
0.977081337322
0.97679779435
0.973561036529
0.964092533681
0.942666350197
0.901217677732
0.842354342522
0.932709150948
0.932708688731
0.931974711935
0.933756609945
0.938743868719
0.946517369952
0.954798196534
0.961608067381
0.966564465983
0.970215867047
0.973108149589
0.975519566978
0.977600919053
0.979605624735
0.981816448441
0.983401416149
0.983401777455
0.982970477038
0.97982088401
0.966265434585
0.932708940276
0.932105311761
0.931056896043
0.932133484998
0.936109174001
0.942740921396
0.950322824018
0.957117062529
0.96245902431
0.966507418135
0.969611204389
0.972067933429
0.974109222503
0.975972718159
0.977884295672
0.979659625243
0.980662507784
0.98089252465
0.980289260436
0.977391959184
0.916085116188
0.910530251597
0.904144814782
0.90019889273
0.899873835579
0.90257094875
0.908368562764
0.916719866289
0.927007516917
0.937364494381
0.945673414011
0.951039038435
0.953736857211
0.954645067174
0.954811964336
0.954027380796
0.950983529687
0.945513184962
0.938532384262
0.927211679833
0.788770630031
0.786021056643
0.777533995753
0.764925478329
0.754832254954
0.75147569192
0.754891652533
0.76799576267
0.792594188887
0.823707110613
0.85416723439
0.877870271199
0.891784668628
0.89662273153
0.896459877115
0.891986333483
0.879823098645
0.858871631592
0.829430391689
0.795432531136
0.718840618095
0.710698864538
0.691265642635
0.657885991364
0.613182034025
0.56558310044
0.529042854795
0.51430894819
0.514324249785
0.527380139647
0.578963635365
0.67470386718
0.767992894886
0.81859618496
0.832529174768
0.833081213695
0.829702640981
0.815668543563
0.774368207696
0.698835462447
0.750365430313
0.742541231494
0.727459174596
0.702708340632
0.667611686246
0.623807406069
0.57760796997
0.540215439953
0.52287323137
0.524617779706
0.538107392514
0.572599155528
0.624767580383
0.675058321662
0.705487545938
0.714043274273
0.710726588817
0.693598374231
0.64806201778
0.537888551368
0.820596433912
0.811095800866
0.797091510911
0.780809578308
0.764063020472
0.745204701234
0.724078311613
0.701839376328
0.678391712197
0.651031116326
0.621329823099
0.599135941912
0.588333124999
0.584732523673
0.58228971424
0.575125134723
0.529120916837
0.338877006967
0.244743706204
0.244897811002
0.820189401336
0.812640555988
0.80170154504
0.786631859798
0.769760665998
0.754683382086
0.74296759249
0.73352418999
0.722839663433
0.704717945875
0.669427474457
0.618531706604
0.576587503092
0.551453994269
0.5381158427
0.528279624966
0.511833902527
0.451145931577
0.325094602469
0.244769460909
0.676089133538
0.675834922284
0.664380395449
0.649434729215
0.643514642816
0.648171224593
0.65838690837
0.665896680583
0.666160550658
0.656392163481
0.629213698991
0.591428450737
0.55961246784
0.546344144601
0.550211154379
0.57058554222
0.607996151355
0.634579058144
0.631129783558
0.619615471481
0.747475894935
0.749726809421
0.725979788557
0.678529142686
0.632145473817
0.605790448443
0.595255999888
0.588233084024
0.575742687854
0.552478922676
0.521019958355
0.493231300082
0.481221678871
0.485804706831
0.510555009208
0.56916958267
0.648054530763
0.716068834542
0.760939600399
0.78085363822
0.838677095319
0.842203630033
0.833494975487
0.815913911786
0.793255167419
0.772829554083
0.755372413603
0.736484405005
0.706596949959
0.654218722916
0.582758675677
0.510163108816
0.444489383028
0.384279177402
0.328797731429
0.285531214211
0.273719486493
0.327658821393
0.51494440828
0.677480914609
0.84651627839
0.849316124722
0.846853983115
0.844851782254
0.845261674881
0.84832271084
0.849868140528
0.846631752694
0.834110983338
0.798199222311
0.724126100116
0.618686656018
0.511005960236
0.420757067289
0.345505804465
0.276601644763
0.214047028925
0.185127405975
0.185153459877
0.302507090171
0.853751702726
0.855881432536
0.854803180598
0.854953697804
0.859479877936
0.871161494613
0.882172666418
0.88525654828
0.881164192638
0.864576748336
0.822763838022
0.748250746565
0.651430214434
0.55223439152
0.460303807705
0.373150420427
0.291311283827
0.236388667617
0.259683936187
0.383647196791
0.862476802054
0.862493490319
0.862585531996
0.864516311812
0.871086306638
0.884593886312
0.902441715382
0.916419163928
0.921317963105
0.920606432606
0.916456676024
0.90700620324
0.889840887856
0.864169550222
0.832095851259
0.79109400982
0.729077946786
0.646513445719
0.585231282236
0.571454021203
)
;

boundaryField
{
    emptyPatch
    {
        type            empty;
    }
    minY
    {
        type            fixedValue;
        value           nonuniform List<scalar> 0();
    }
    maxY
    {
        type            inletOutlet;
        phi             phi.gas;
        inletValue      uniform 1;
        value           nonuniform List<scalar> 
20
(
0.862476802054
0.862493490319
0.862585531996
0.864516311812
0.871086306638
0.884593886312
0.902441715382
0.916419163928
0.921317963105
0.920606432606
0.916456676024
0.90700620324
0.889840887856
0.864169550222
0.832095851259
0.79109400982
0.729077946786
0.646513445719
0.585231282236
0.571454021203
)
;
    }
    maxX
    {
        type            zeroGradient;
    }
    water_to_heater
    {
        type            zeroGradient;
    }
    procBoundary3to0
    {
        type            processor;
        value           nonuniform List<scalar> 
20
(
0.124468744726
0.144511040462
0.118714086265
0.123958357377
0.114551324897
0.0952189303317
0.117456775891
0.406491265306
0.73211257268
0.76848269557
0.803043543055
0.801799249754
0.763831011044
0.649986745579
0.477462696089
0.35682404059
0.307194022322
0.283087110108
0.246751320389
0.165299198446
)
;
    }
    procBoundary3to1
    {
        type            processor;
        value           uniform 0.00611212513202;
    }
    procBoundary3to2
    {
        type            processor;
        value           nonuniform List<scalar> 
39
(
0.0171053834123
0.367869520438
0.840884395321
0.964500516709
0.973539597061
0.973556966173
0.97355565808
0.965773377258
0.934525824611
0.875617932378
0.70731888788
0.804525802318
0.70731888788
0.209859545104
0.0253802901331
0.00336943720097
0.00336580704765
0.00336940781557
0.00336647361943
0.00337286385212
0.00592357543808
0.190307182103
0.190307182103
0.30883002915
0.595026333741
0.724300459798
0.749945781661
0.707890196763
0.611829827768
0.458823269828
0.244897811002
0.244772393429
0.296960274739
0.673322758222
0.803629975508
0.809544226276
0.772569325565
0.727365323334
0.659209785085
)
;
    }
}


// ************************************************************************* //
