/*--------------------------------*- C++ -*----------------------------------*\
| =========                 |                                                 |
| \\      /  F ield         | OpenFOAM: The Open Source CFD Toolbox           |
|  \\    /   O peration     | Version:  2312                                  |
|   \\  /    A nd           | Website:  www.openfoam.com                      |
|    \\/     M anipulation  |                                                 |
\*---------------------------------------------------------------------------*/
FoamFile
{
    version     2.0;
    format      ascii;
    arch        "LSB;label=32;scalar=64";
    class       volScalarField;
    location    "0.41/water";
    object      T.gas;
}
// * * * * * * * * * * * * * * * * * * * * * * * * * * * * * * * * * * * * * //

dimensions      [0 0 0 1 0 0 0];

internalField   nonuniform List<scalar> 
750
(
647.181654247
616.251894972
575.689680284
515.851800711
473.984454991
450.757812383
432.622746233
416.50200623
404.242450132
392.917177008
380.323971974
365.794080718
356.65884216
349.14214171
341.754094522
335.956102254
332.430607944
330.237136552
328.186881073
324.728935254
658.344055216
606.420068542
573.616531392
548.492954257
523.494608551
497.170974935
472.989407143
452.067699409
434.883663453
420.229260551
403.388915582
385.573036464
370.186129534
358.891066551
351.914828344
349.294480161
341.264100123
327.828398531
319.923454695
314.564217207
768.368827472
726.541035335
685.163730674
644.584147254
605.5557104
569.006995617
535.829482569
506.972865147
482.522050707
461.753745147
443.961015365
428.329574032
414.007872301
401.047904202
389.638650183
379.333530906
369.17819146
359.399556201
350.222176689
342.152509116
782.877466115
742.090789915
701.936770919
662.91084956
625.521379581
590.340763875
557.921003331
528.669797572
502.77606794
480.134395249
460.364011812
443.04638728
427.827383862
414.454060847
402.80784773
392.720625094
383.843309704
375.765127656
368.276659764
361.489850905
784.004840644
744.819159727
706.123394081
668.466422254
632.318920889
598.07172664
566.05002401
536.530909884
509.727347399
485.742267584
464.559377511
446.058620116
430.06753897
416.429943352
405.045267631
395.794239844
388.410111158
382.445514356
377.278508642
372.338814761
784.305476243
746.02895794
708.234469282
671.339548585
635.70454302
601.63070977
569.353106197
539.057647273
510.928012431
485.224561531
462.262300404
442.258640552
425.225711638
411.078688142
399.743719164
391.100715001
384.825734628
380.284202462
376.673776492
373.221721661
784.235692999
746.479833874
709.155319198
672.647792453
637.235049644
603.139521814
570.533844944
539.550777158
510.3666791
483.363075849
459.13919439
438.17168958
420.535357178
406.264771514
395.274138352
387.211096443
381.520558801
377.493571168
374.380754537
371.498321428
785.706502543
747.814647573
710.138785691
673.038318209
636.884598064
602.00949146
568.661434935
537.039452973
507.402204272
480.195641252
456.004190736
435.26398082
418.156619476
404.684452614
394.547757778
387.069324219
381.478726377
377.143230572
373.583263216
370.395832574
787.420693836
750.692009985
713.774809723
677.117660938
641.236351901
606.576893988
573.493726283
542.307316411
513.378771642
487.122139423
463.902760231
443.959953304
427.400452384
414.038365615
403.363419885
394.727229945
387.588256203
381.58749235
376.479821886
372.031464922
787.939737883
753.14208539
718.304815823
683.786443202
650.017447045
617.39222128
586.235663687
556.851139289
529.541970441
504.570649753
482.124963651
462.33061478
445.22348168
430.578172723
417.984410517
407.077993817
397.586672392
389.304172264
382.057284051
375.662225913
787.16517698
751.395949673
715.590027267
680.329554718
646.204770388
613.630854212
582.88705547
554.191728798
527.724301166
503.609864313
481.920944673
462.718303312
446.092064718
431.879073319
419.561348508
408.689785708
398.95497423
390.100788024
381.964488416
374.452274911
775.792253399
744.177250618
712.48304792
681.036655351
650.1334117
620.034520886
590.984918217
563.208396931
536.971632817
512.404538716
489.537940939
468.407282642
449.114647951
431.856570329
416.880691893
404.273895681
393.810471148
384.895206342
376.868183726
369.363828662
781.536233305
746.742148869
712.025690437
677.819037394
644.545193185
612.554573456
582.149389663
553.528365626
526.712803829
501.668497038
478.396734556
456.841560728
436.877282745
417.432717914
398.032907325
379.145573968
363.454912661
353.200038255
346.898918953
784.878674893
749.521756762
714.562252076
680.441992833
647.559992038
616.240729781
586.69011391
558.943225803
532.830553399
508.264018865
485.32959162
464.027663583
444.931221004
426.452436702
408.029588513
386.812302592
365.411668075
347.974942762
336.52999065
787.257174757
752.88101514
718.782763578
685.467789479
653.365304459
622.806974167
593.818904477
566.269872217
540.294930128
516.15189661
494.092391378
474.356304593
456.865299962
440.000692138
424.154772655
405.574868417
382.593190007
360.008462686
342.937308716
788.582297959
755.321267781
721.597569983
688.489815294
656.577308335
626.297925627
597.881296588
571.238040631
546.526187925
524.105162469
504.382027555
487.794227565
474.171642742
461.784926246
451.151289795
424.093838533
388.705044633
361.682498459
342.716588643
770.692482246
741.472253625
712.627405693
684.680627599
658.331083729
634.033972071
611.216057203
588.87069968
567.075635851
546.405107916
527.557985215
511.275069638
498.018341747
485.767291007
481.781459526
441.892431114
387.784629842
354.670667305
335.231456137
736.723582666
702.443887085
669.42803352
637.618477355
609.858207249
589.048477915
572.432643114
556.4452281
539.90743359
522.835888911
505.447145143
487.957833653
470.567960705
454.467335785
441.81172901
434.334586985
405.753779967
371.92452466
345.702839126
735.757976311
700.470064713
666.051589671
632.939320665
600.820830774
570.888627603
548.370039234
531.930985077
515.881006206
499.089055336
481.547043791
463.158165357
444.467135435
427.566432928
415.171842304
410.725752219
400.009843532
358.421835135
334.707414529
750.67846026
716.868671697
683.083415133
649.587243581
616.938061102
586.284804211
559.245090052
536.277179693
515.367760049
495.181316576
475.330069863
455.682861219
436.599641632
419.261605191
405.269852097
394.577293981
391.663283444
376.084740051
342.696819454
785.183005282
745.436088227
705.940059063
667.245672917
630.023599325
595.107148944
563.261503762
535.238696029
510.661479916
488.518639175
468.158432126
449.257036257
431.834351297
416.102458539
402.31084084
390.375253012
379.426574301
371.697130782
365.796233487
788.129443149
752.658579854
717.194160787
681.997431923
647.483631114
614.083069193
582.159227771
552.486795703
525.584332819
501.427854284
479.746768774
460.277623041
442.772441338
426.949054094
412.513834532
399.04156944
386.05211711
372.815835683
359.967779571
789.433886599
758.523032485
727.568337751
696.81290861
666.601075271
637.184974703
608.771047555
581.64905045
556.183305026
532.619620998
511.007875082
491.269275134
473.240659469
456.713455316
441.40976284
426.957220569
412.904225806
399.082650699
385.420682483
372.784315144
790.658570866
764.134588509
737.611977751
711.358599398
685.693685317
660.823843865
636.834155886
613.752978996
591.633922755
570.560858318
550.617799159
531.864885267
514.317176442
497.928096946
482.579425108
468.031427649
453.941781933
439.890808697
425.60883176
411.197599211
791.599699391
768.301325487
745.081429806
722.244524383
700.06334758
678.705725984
658.199639199
638.476548894
619.455647956
601.09719726
583.411379054
566.434102238
550.192204692
534.673715955
519.795667779
505.362259914
491.071015365
476.573942905
461.404900558
445.00420699
791.986696429
770.143497736
748.440604096
727.172925195
706.601722948
686.893299329
668.085341399
650.110876242
632.859970763
616.227121055
600.129007851
584.501521735
569.284356139
554.401040993
539.736279014
525.107444998
510.251706166
494.843563778
478.488622249
460.697563638
790.963229082
765.7044804
740.608454828
716.091889383
692.564000052
670.337965875
649.61271369
630.454642093
612.786053498
596.382313465
580.920215012
566.069138064
551.555186226
537.17351769
522.766765572
508.174592911
493.21593713
477.731630846
461.594186127
444.617992963
777.164829368
749.080529468
721.014353867
693.121227633
665.784334525
639.568312927
615.037208694
592.666377739
572.759632758
555.254616923
539.706786907
525.466779415
511.903931072
498.562558151
485.157201308
471.507148578
457.475191892
443.039408889
428.336945393
413.694828523
762.34976402
734.739120318
706.884571617
678.575862579
649.622587916
620.054080028
590.29284427
561.277141268
533.990223934
509.066082132
487.455767381
470.125541079
456.54207527
445.026699296
434.257350718
423.691785684
413.161541376
402.553369581
391.779284238
380.992727532
766.993835179
737.467038189
707.590753138
677.403901016
646.90696582
616.078484746
585.008632943
554.075746888
524.109821225
496.123169425
470.759666287
448.493122245
429.604253936
413.73951163
400.122944648
388.056769187
377.177155708
367.333037335
358.413269436
350.335751724
781.131447701
743.013870739
704.683417038
666.465097319
628.740766372
591.825263056
556.050897848
521.838597165
489.661017018
459.848556773
432.679753651
408.744555945
388.635763451
372.360669328
359.523928569
349.554789034
341.818495745
335.265889485
329.025297554
323.686973773
781.327997015
744.115707091
706.841790486
669.758250592
633.151135645
597.439924388
563.112287174
530.599062141
500.158853096
471.762639816
445.207087081
420.367796248
397.678721584
377.942236384
361.615728767
348.620031192
338.541037712
330.697133312
324.352560074
319.394798922
755.482986658
725.615450408
695.557103063
665.22448979
634.979267527
605.43893432
577.076975968
550.058812907
524.349764237
499.849307852
476.344009478
453.639106393
431.837702017
411.386470621
392.811187712
376.488318091
362.660918044
351.219009998
341.882659732
334.481696953
766.420318846
737.103669149
707.110373211
675.885538271
643.470817214
610.776705348
578.980239092
548.806372828
520.456116795
493.814094502
468.657281502
444.875448783
422.621035844
402.201226186
383.932121554
368.314382823
355.700170822
345.800329489
338.062887245
332.057710428
784.683494897
748.833612555
713.200402195
677.723918059
642.583678783
608.270575907
575.39747322
544.417295924
515.477989986
488.432479632
463.152288258
439.777707507
418.584662871
399.675875162
382.825825931
367.560903987
353.513118452
341.288209366
332.752099053
327.51906646
786.043616096
752.118515142
718.639442232
685.815808188
653.954422414
623.325615283
594.045879537
566.090416665
539.367140524
513.653978526
488.672398222
464.360087025
441.150144641
419.736087066
400.682344812
384.034955267
369.166737268
355.265475325
342.40633282
333.127697821
787.207948183
755.258393125
723.766950479
692.982589531
663.232869309
634.825650675
607.784368925
581.838297624
556.728977653
532.245175115
508.133289893
484.247644996
460.866338822
438.596262717
418.090937166
399.695563465
383.151146184
367.644995001
353.357072474
342.984639621
788.180231343
758.217083317
728.650996681
699.819346724
672.075033743
645.7234905
620.851462706
597.207319027
574.373188635
552.066457945
530.167376214
508.609522696
487.365480403
466.565623371
446.43213138
427.205697679
409.004322449
391.942002834
376.594399198
363.990323041
)
;

boundaryField
{
    emptyPatch
    {
        type            empty;
    }
    minY
    {
        type            fixedValue;
        value           nonuniform List<scalar> 0();
    }
    maxY
    {
        type            inletOutlet;
        inletValue      uniform 373;
        value           nonuniform List<scalar> 
20
(
788.180231234
758.217083282
728.650996671
699.819346721
672.075033742
645.7234905
620.851462706
597.207319027
574.373188635
552.066457945
530.167376214
508.609522696
487.365480403
466.565623371
446.43213138
427.205697679
409.004322449
391.942002835
376.594399198
363.990323041
)
;
    }
    maxX
    {
        type            fixedValue;
        value           nonuniform List<scalar> 0();
    }
    water_to_heater
    {
        type            copiedFixedValue;
        sourceFieldName T.liquid;
        value           nonuniform List<scalar> 
61
(
795.764492243
795.774870858
795.687803608
795.817826743
796.012915998
796.626644128
796.676544585
796.484111704
796.491922818
796.52106597
796.506284556
796.76741038
796.84855431
797.050464235
797.067914606
797.033322317
796.990765714
796.779931833
796.200555976
796.005376834
796.260608667
796.367550287
796.508533994
796.66901758
796.744192015
796.895265273
796.0876274
796.163773858
795.882534447
796.02952923
796.026321629
796.217095094
797.138544901
797.305630874
797.453299312
797.445833756
797.490053707
797.542780476
797.572112616
797.62541333
797.636908555
797.581845613
797.546167931
797.123792697
796.42385258
795.592786911
795.675428242
795.760480486
796.265464574
796.472146471
796.474792299
796.56855069
795.906864977
796.196519987
796.865257036
797.034980078
797.095059213
797.090231012
797.141166074
797.059078161
797.106581705
)
;
    }
    procBoundary3to0
    {
        type            processor;
        value           nonuniform List<scalar> 
20
(
650.168119885
628.943003171
608.622809469
585.842097251
561.052442899
527.739033466
475.520106308
436.418204172
416.992340902
403.620298
392.516560848
382.577080091
373.449038842
364.957331129
357.000386207
350.43595537
345.310338397
341.23683045
337.823621654
335.197281073
)
;
    }
    procBoundary3to1
    {
        type            processor;
        value           uniform 309.127408545;
    }
    procBoundary3to2
    {
        type            processor;
        value           nonuniform List<scalar> 
39
(
303.32870745
314.406468425
331.442671526
345.535830287
352.684812641
354.744689234
353.643518847
350.509003702
344.904909691
337.0928898
342.106833085
331.60227396
342.106833085
329.45663551
330.558215142
328.726342683
324.644722872
330.712092597
321.446449895
325.18276564
343.963908435
348.578920339
348.578920339
323.245150558
337.037401175
348.206091455
353.047430921
346.86441301
338.553046092
328.5543213
316.982600693
306.417765556
304.581581877
306.54562299
308.505478942
308.655409181
308.89086025
311.26262267
316.032336311
)
;
    }
}


// ************************************************************************* //
