/*--------------------------------*- C++ -*----------------------------------*\
| =========                 |                                                 |
| \\      /  F ield         | OpenFOAM: The Open Source CFD Toolbox           |
|  \\    /   O peration     | Version:  2312                                  |
|   \\  /    A nd           | Website:  www.openfoam.com                      |
|    \\/     M anipulation  |                                                 |
\*---------------------------------------------------------------------------*/
FoamFile
{
    version     2.0;
    format      ascii;
    arch        "LSB;label=32;scalar=64";
    class       volScalarField;
    location    "0.175/heater";
    object      T;
}
// * * * * * * * * * * * * * * * * * * * * * * * * * * * * * * * * * * * * * //

dimensions      [0 0 0 1 0 0 0];

internalField   nonuniform List<scalar> 
150
(
798.061200134
797.922399057
797.644707997
797.227932488
796.671626146
798.05501198
797.916242747
797.638650608
797.222140351
796.666636896
798.050443829
797.911678187
797.634127852
797.217839574
796.663352943
798.048247915
797.909489012
797.63197735
797.215821129
796.661653248
798.047927575
797.909201677
797.631791197
797.215838323
796.661865461
798.048603008
797.909935957
797.632693821
797.217076112
796.663439247
798.049020724
797.910429978
797.633408907
797.218265392
796.665207898
798.048032304
797.909475516
797.632572566
797.217750356
796.665202936
798.046105004
797.907565463
797.630731858
797.216148736
796.66409142
798.04511584
797.906631814
797.62993205
797.215670354
796.664243636
798.045961466
797.907556957
797.631025005
797.21712451
796.666442118
798.047853759
797.909501182
797.633069467
797.219368238
796.669147465
798.050114649
797.91180714
797.635475897
797.221993797
796.672195497
798.052853129
797.914633718
797.638514235
797.22555243
796.677114294
798.056570143
797.91849227
797.642703584
797.230536242
796.684828254
798.062490571
797.924623598
797.649242803
797.237899556
796.693312931
798.073388495
797.935966561
797.661330122
797.251152367
796.709108085
798.089690554
797.953048438
797.67966737
797.271031896
796.733812509
798.109174417
797.973589917
797.701890641
797.294955626
796.761001319
798.13031317
797.99601373
797.72635432
797.321347261
796.788793843
798.151227593
798.018347032
797.750929735
797.347991837
796.816527862
798.169081017
798.037555522
797.772260139
797.37117708
796.840469928
798.181766583
798.051346898
797.787758665
797.387999612
796.857473091
798.187074435
798.057229651
797.794524367
797.395366431
796.864656273
798.18716505
798.057539741
797.795189909
797.396290142
796.86549644
798.185053302
798.055819454
797.794246298
797.396294548
796.866112621
798.186969268
798.060240068
797.803629997
797.412033253
796.887171479
798.194146769
798.071691784
797.823890047
797.444336812
796.932535167
798.202721716
798.084042134
797.844388744
797.476753646
796.981197437
798.212247458
798.096867923
797.864628701
797.508228344
797.025625427
)
;

boundaryField
{
    emptyPatch
    {
        type            empty;
    }
    minY
    {
        type            zeroGradient;
    }
    maxY
    {
        type            zeroGradient;
    }
    minX
    {
        type            zeroGradient;
    }
    heater_to_water
    {
        type            compressible::turbulentTemperatureTwoPhaseRadCoupledMixed;
        refValue        nonuniform List<scalar> 
60
(
325.042997368
329.037690164
329.03780514
335.528087872
336.124240517
337.056001664
337.056089359
336.262680001
336.262743704
336.673203324
336.673248803
335.571390252
335.864363369
334.848459227
334.848523166
335.243421305
335.243498047
334.712126159
334.712188301
335.616884189
335.427708615
336.500133424
336.50016546
336.484495436
336.48452424
336.812768359
336.812772333
329.759070749
320.598274881
316.800818526
316.800824608
319.628935586
319.628878819
330.713793737
330.713591106
348.9276402
360.642046846
365.609796394
365.609349165
366.922741664
366.922287308
367.268292778
367.267909812
367.488757455
367.729292148
368.020254585
368.020196176
368.357674989
368.357740629
368.656064076
368.656134195
368.825180242
369.339272436
373.336986788
373.336152183
390.29300926
390.292034416
426.644199408
426.643297929
434.162141948
)
;
        refGradient     uniform 0;
        valueFraction   nonuniform List<scalar> 
60
(
0.000737092705188
0.000746453010044
0.000746449990598
0.000748759160996
0.000748928233981
0.000748578107464
0.000748576305804
0.000748928116827
0.000748926778286
0.00074858542153
0.000748584477276
0.000748941475092
0.000748612484231
0.000748938210687
0.00074893681227
0.00074867081055
0.000748669152241
0.000748922100071
0.000748920736247
0.000748634150166
0.00074890019366
0.000748661855138
0.000748661187645
0.000748895792402
0.000748895191789
0.000748837120856
0.000748837038751
0.000745273055401
0.000714814363437
0.000696875980851
0.000696875718027
0.00071388921492
0.000713891360432
0.000746708075815
0.000746713134756
0.000740673366722
0.000729452347252
0.00072460803723
0.000724613039854
0.000723492287939
0.000723497261275
0.000723256004585
0.000723260173021
0.000723040589885
0.000722790309575
0.000722514499686
0.000722515127556
0.000722222631478
0.000722221929741
0.00072193174507
0.000721930999101
0.000721644484962
0.000720798533833
0.000715592047161
0.000715600280647
0.000694736919474
0.000694744487259
0.000651975082215
0.000651979752383
0.000649701447628
)
;
        source          uniform 0;
        value           nonuniform List<scalar> 
60
(
796.325455745
796.324022994
796.318995947
796.322775768
796.319846404
796.320705148
796.319002688
796.318246787
796.318465494
796.318929919
796.32051982
796.319530376
796.321676149
796.320765204
796.320777522
796.321196015
796.320091001
796.319576329
796.319725991
796.320535667
796.322475206
796.323388021
796.326082407
796.325962714
796.329010375
796.3292829
796.334269721
796.330651741
796.345894195
796.351788086
796.360227867
796.354082152
796.370059675
796.362680614
796.387208479
796.403513803
796.443914077
796.449626449
796.477304725
796.478738201
796.506441408
796.506795374
796.530721047
796.530975055
796.548242824
796.548571407
796.555736659
796.556105829
796.556932349
796.557272065
796.557875245
796.558119924
796.579912191
796.584998951
796.630218976
796.650837192
796.698865405
796.739959974
796.784051165
796.789780013
)
;
        kappaMethod     solidThermo;
        Tnbr            T.liquid;
        region          solid;
        otherPhase      gas;
    }
    procBoundary3to0
    {
        type            processor;
        value           nonuniform List<scalar> 5(798.221881614 798.109814792 797.885389118 797.541495496 797.071527289);
    }
    procBoundary3to2
    {
        type            processor;
        value           nonuniform List<scalar> 5(798.066067138 797.927268936 797.649555927 797.232690532 796.676485696);
    }
}


// ************************************************************************* //
