/*--------------------------------*- C++ -*----------------------------------*\
| =========                 |                                                 |
| \\      /  F ield         | OpenFOAM: The Open Source CFD Toolbox           |
|  \\    /   O peration     | Version:  2312                                  |
|   \\  /    A nd           | Website:  www.openfoam.com                      |
|    \\/     M anipulation  |                                                 |
\*---------------------------------------------------------------------------*/
FoamFile
{
    version     2.0;
    format      ascii;
    arch        "LSB;label=32;scalar=64";
    class       volScalarField;
    location    "0.445/water";
    object      rhom;
}
// * * * * * * * * * * * * * * * * * * * * * * * * * * * * * * * * * * * * * //

dimensions      [1 -3 0 0 0 0 0];

internalField   nonuniform List<scalar> 
1504
(
641.660632481
646.353422875
646.467232147
647.961070698
662.413839889
697.431138307
745.283996352
795.965698218
842.028789372
870.033979609
873.147315183
873.049304215
872.952478976
868.379132759
839.464905991
815.402559601
815.316995014
833.523463405
890.119718776
959.114600591
644.222321266
646.392594097
646.876730782
652.517111251
674.261052957
714.415576983
763.900029402
814.164913207
856.31482919
873.070925855
873.263365871
873.185906231
873.04776877
866.781877367
835.911332939
815.546655572
815.276305077
831.25216048
881.051902436
948.818796684
641.613521332
647.10625704
649.492861684
660.210574719
688.838053802
734.04650463
785.709903832
835.075438422
868.687535785
873.365209757
873.40561485
873.296510118
873.153731515
863.165712755
831.449033895
816.016659163
815.235615999
827.4409829
869.570900129
936.946785299
644.607911585
648.941503921
654.883239531
671.328543081
706.368519805
756.182162937
809.95697246
855.871647283
873.171962873
873.503703431
873.386630887
873.524020272
873.17342169
857.748668903
828.688575797
817.157818775
815.113528005
821.299111698
855.28482162
923.546214166
641.900799617
652.802577393
664.51434268
688.60957613
730.004440192
783.28288923
836.711192753
870.467810412
873.519480141
873.412067947
873.690762481
873.386643642
872.138154583
852.152407528
828.916778453
819.802813703
814.455844627
813.93933077
841.012732944
910.476313487
645.013473792
661.132380359
680.687427668
714.355443067
761.955215511
816.418664033
861.70419734
873.48171129
873.412015403
873.774575827
873.458833585
873.791982819
869.150381098
848.902394588
832.604407091
824.580824266
813.777195825
807.068621307
831.299928643
899.896870695
641.99122638
677.810239416
706.864130556
750.442143121
802.283582712
851.399028274
873.011066896
873.411928467
873.833378055
873.513104466
873.942290001
873.458839249
865.86791508
848.657521965
839.498585722
829.93288161
813.333871887
803.634088442
825.416416559
890.276127656
645.071552521
706.782050461
746.732251941
797.01768337
845.107794078
871.872574589
873.411763681
873.887576919
873.513057182
874.097138496
873.592141463
873.857610741
862.710676262
851.896876807
846.829415046
833.483796196
813.087787317
802.401514909
818.090648235
877.803056963
642.811442849
752.028921527
799.890488546
846.681079706
871.366860905
873.411434192
873.933934837
873.512987705
874.217716205
873.665227632
874.09210356
872.372644074
862.033099739
858.495798916
853.372234222
835.855991787
813.1823481
800.29557134
804.651546682
860.491591459
645.35363667
809.546232239
853.42444452
872.973979683
873.410794838
874.00649964
873.512886349
874.288533747
873.665184045
874.271864124
873.774526715
870.34632638
865.113149489
865.318623128
859.696439726
839.968248997
814.24878406
799.344284754
799.183030401
838.623595795
678.715578133
849.199073886
869.389869766
873.409394087
874.159116303
873.512743917
874.288462842
873.665131671
874.386153938
873.85670167
874.017700746
870.284647712
870.620313643
871.527436317
867.582439847
849.240803411
819.043787129
799.248368911
799.344227255
808.817014282
749.539430916
845.68881168
858.956193596
869.04927137
873.512521265
874.288207777
873.665060227
874.380618728
873.856639454
874.096831718
873.771447169
873.544380971
875.734904857
876.883749314
876.456269774
863.614824947
830.014991661
800.934212329
799.08399902
799.344164551
756.496559437
786.757294463
800.840420576
824.504610404
849.06412163
862.128498193
868.965268345
871.562984049
873.045781673
874.633171824
876.604922473
878.633383047
879.745074878
880.788288656
881.935452732
877.662937409
848.27308545
808.981109423
799.344099333
799.139385413
692.488565689
667.640707915
693.293071527
716.552007264
750.645281867
787.187090516
825.91689029
855.250573186
870.056760009
877.420308186
881.523773538
882.737960112
882.924112608
882.978628959
884.023597789
884.562502427
869.330284744
825.002852699
799.244940843
799.344033568
595.594918141
598.958357091
615.124301162
623.131868862
637.522738056
662.799287588
714.3782456
788.980914223
847.623752794
873.548817808
882.782978427
885.614935999
885.410702575
884.585533604
884.742449917
885.84010995
882.743583493
846.944357126
803.466537301
799.210638928
565.031151099
585.707040881
590.550645613
592.276524116
595.757592562
605.503543084
632.781489766
696.996425818
787.666913239
852.106597845
879.995139695
886.20559963
886.171976623
885.916271222
885.311404468
886.019911813
886.108833977
869.424550227
818.45361268
799.343919649
565.852037049
582.356451986
583.820545666
585.609921601
588.238022894
595.523939888
614.520342332
658.955907099
738.827919533
820.009266951
872.012744706
886.171914012
886.226996841
886.171976042
886.098105365
886.108800638
886.168300265
883.648529148
840.23207394
800.438755959
564.6255906
579.266547342
581.052037597
583.972255078
586.969837291
594.517814123
613.225741191
653.300818049
723.152936282
800.941409709
864.005048618
886.313433938
886.171929412
886.269979833
886.171976353
886.159555762
886.108789032
886.222469233
859.25033086
807.325768006
565.847090307
575.879271513
579.946439913
583.952456221
587.481568409
595.801514328
615.548314251
655.456091035
722.218059699
797.169689064
861.823306072
886.171881883
886.48669216
886.171944716
886.399407544
886.171973276
886.315982243
886.108778983
873.142067855
819.115068643
564.877334673
573.223470188
580.036405258
585.590284166
590.770489207
601.318739492
623.942049031
665.465844808
728.709716054
800.89612001
864.382541789
886.382089673
886.171908363
886.659526734
886.171953619
886.540830107
886.171967833
886.488702812
881.384867452
830.376392588
565.848717376
572.27980604
581.830824786
590.71698455
598.464701166
611.976920637
638.098545479
682.471473457
744.490659537
813.717324344
872.217367232
886.171869947
886.593209556
886.171929622
886.778563471
886.171954431
886.656205368
886.171960621
885.334856487
837.390085778
565.275526036
573.152558229
587.12980192
600.090228362
610.5323844
626.901771544
656.251149522
703.581668418
765.654439077
832.412368061
881.034454015
886.355334015
886.171900469
886.774722421
886.171939889
886.83451499
886.171949778
886.761295079
886.058538786
840.712691453
565.858472127
577.090878691
597.222962834
613.969571956
626.777819716
645.929349211
679.116213975
729.205036574
791.340399908
853.978982818
885.948699178
886.210730623
886.57724448
886.171920927
886.873925019
886.171939425
886.833918025
886.171941575
885.85501843
841.111206223
565.729965295
586.646545626
613.291923404
632.975947551
647.726867848
670.86005332
708.785667165
761.397871808
822.51449557
875.116719996
886.210696751
886.496198356
886.210759775
886.761181904
886.171927468
886.900102194
886.17193238
886.838417454
883.492175894
840.119169521
567.989072108
602.508630552
635.442575173
657.233703099
675.65891488
704.508774559
747.312269991
801.500987773
857.619438104
885.92639838
886.371305684
886.210732245
886.739139795
886.210773995
886.857009667
886.17192271
886.890051937
886.171920802
879.897330184
838.527566093
575.643597167
624.073342129
660.650298199
686.949087219
712.620037692
748.807439912
795.590654028
847.401812532
883.290430697
886.324183959
886.210701466
886.733183493
886.210753601
886.903846833
886.186340421
886.904715281
886.171911225
886.87824055
875.858593669
838.413640173
590.358417778
644.887653368
686.734151796
722.557323044
759.372552846
802.890468709
849.054517106
882.077856768
886.332327707
886.21311098
886.775031003
886.210729085
887.013779633
886.210758077
886.96407847
886.200151662
886.857523959
886.171894896
873.80896446
840.53301883
607.873758544
660.08967072
714.019283202
763.739645564
812.129300005
856.692826579
883.513154079
886.348052094
886.213067867
886.881891117
886.213144365
887.158930655
886.210737639
887.108423867
886.210749813
886.939668237
886.210746282
885.450154863
874.211792582
846.013017837
620.44767078
678.928001155
747.942113792
809.893810966
859.26207023
884.232480789
886.352445003
886.213002243
887.002347106
886.250732073
887.348168459
886.213156112
887.302969283
886.210730991
887.073644426
886.210732372
886.1561071
883.005054134
879.352231541
854.454355669
626.997471311
710.508790559
793.406272914
855.965123682
883.307176104
886.326537057
886.212868573
887.079713507
886.250686788
887.629278515
886.250746292
887.514808628
886.213149384
887.245987794
886.210713345
885.32302321
881.653028074
885.45793315
885.484360964
864.730494005
638.570783939
752.522035169
837.162643245
881.444319086
886.270547932
886.212542743
887.079681711
886.250624552
887.8694368
886.250704349
887.860796301
886.250737783
887.399054018
886.213130209
887.055407805
878.301052661
881.289789283
888.229637049
890.122889771
875.382889454
673.587722294
789.766940694
854.807450193
885.2340961
886.211692043
886.970432088
886.25052315
888.01636597
886.250648836
888.138495661
886.250691704
887.63521208
886.250713631
887.107187354
879.626358471
878.462818357
882.51709757
889.009473228
890.712966107
885.18558026
719.560400601
797.49407974
848.627461616
878.01674548
886.557052149
886.250263227
887.902958305
886.250562639
888.149993134
886.250625637
887.782579315
886.250655278
887.108578047
881.077244718
878.504153785
878.448449957
883.619492536
888.923683654
890.742627795
890.56972434
724.745841535
764.939983328
796.513559328
826.234673016
851.78992457
865.089079753
868.105791667
867.677978331
865.944718753
870.468973574
877.106270223
881.501948656
880.829605564
880.824411312
880.774086497
881.511253407
884.217088271
888.345371272
890.712903235
890.750738219
688.444101515
675.597403166
683.860313003
703.643515248
730.505816573
748.070233068
752.07912011
749.382063085
754.917480427
781.452225424
823.804098189
857.786529287
874.452831877
883.24628517
886.500405749
886.05938858
885.508685777
888.126403606
890.748112503
890.712873827
620.590559635
603.930009404
606.671936813
611.630302883
618.576149387
623.253153671
624.041392127
623.337360643
630.261351751
659.140684528
718.413444939
797.408875182
853.758217877
880.533012824
889.491630834
889.99695197
888.392073709
888.579770343
890.712849429
890.792546745
584.80390239
586.128274983
588.537833455
588.095395773
587.309113758
586.532715954
586.173958906
585.95775063
587.706143243
600.782438486
638.546582607
714.431786965
800.630624384
861.591471833
888.16608206
890.712798378
890.681792844
890.221005391
890.733473896
890.712836043
579.14777318
585.410601173
586.071670228
585.073005544
584.764828322
584.884199486
584.556637927
1000
1000
1000
1000
1000
1000
1000
1000
1000
1000
1000
1000
1000
1000
1000
1000
1000
994.721889061
999.892324821
1000
1000
1000
1000
1000
1000
1000
1000
1000
1000
1000
1000
1000
1000
1000
1000
1000
1000
991.565409371
999.749291175
999.999919841
1000
1000
1000
1000
1000
1000
1000
1000
1000
1000
1000
1000
1000
1000
1000
1000
1000
987.552913529
999.520273282
999.99947875
1000
1000
1000
1000
1000
1000
1000
1000
1000
1000
1000
1000
1000
1000
1000
1000
1000
982.755715794
999.193772227
999.998401657
1000
1000
1000
1000
1000
1000
1000
1000
1000
1000
1000
1000
1000
1000
1000
1000
1000
977.530120174
998.754691404
999.996270749
1000
1000
1000
1000
1000
1000
1000
1000
1000
1000
1000
1000
1000
1000
1000
1000
1000
972.169104157
998.172553225
999.992119364
1000
1000
1000
1000
1000
1000
1000
1000
1000
1000
1000
1000
1000
1000
1000
1000
1000
966.243616608
997.387278098
999.984057875
1000
1000
1000
1000
1000
1000
1000
1000
1000
1000
1000
1000
1000
1000
1000
1000
1000
958.350683932
996.187517061
999.965281204
1000
1000
1000
1000
1000
1000
1000
1000
1000
1000
1000
1000
1000
1000
1000
1000
1000
945.84817708
993.844221362
999.908019757
999.999915746
1000
1000
1000
1000
1000
1000
1000
1000
1000
1000
1000
1000
1000
1000
1000
1000
923.763887917
988.518430781
999.711610683
999.998669873
1000
1000
1000
1000
1000
1000
1000
1000
1000
1000
1000
1000
1000
1000
1000
1000
890.926452181
976.703663396
998.996677137
999.988861829
999.999991666
1000
1000
1000
1000
1000
1000
1000
1000
1000
1000
1000
1000
1000
1000
1000
859.044486166
954.280389569
996.395880433
999.924522435
999.99976742
1000
1000
1000
1000
1000
1000
1000
1000
1000
1000
1000
1000
1000
1000
1000
834.737772542
923.17257253
988.652409522
999.57590409
999.996567527
1000
1000
1000
1000
1000
1000
1000
1000
1000
1000
1000
1000
1000
1000
1000
818.02756264
891.50287305
972.276707395
998.06162119
999.96658254
999.999987664
1000
1000
1000
1000
1000
1000
1000
1000
1000
1000
1000
1000
1000
1000
806.946177516
865.154167316
948.412555815
993.1763995
999.763621901
999.999301522
1000
1000
1000
1000
1000
1000
1000
1000
1000
1000
1000
1000
1000
1000
799.789673217
844.502118729
922.06034985
982.737119061
998.829909499
999.987460866
1000
1000
1000
1000
1000
1000
1000
1000
1000
1000
1000
1000
1000
1000
795.181314537
828.227147977
896.803368316
966.839626315
996.083817368
999.897509538
999.999985302
1000
1000
1000
1000
1000
1000
1000
1000
1000
1000
1000
1000
1000
791.549122271
814.505280183
873.836042772
947.699195287
990.529979346
999.511540361
999.998130019
1000
1000
1000
1000
1000
1000
1000
1000
1000
1000
1000
1000
1000
788.233628112
802.510329837
854.166394014
928.121205154
981.977006846
998.423652404
999.978608012
1000
1000
1000
1000
1000
1000
1000
1000
1000
1000
1000
1000
1000
788.235864301
794.496171647
838.613308375
909.856298356
970.99145588
996.116997119
999.882709606
999.999965321
1000
1000
1000
1000
1000
1000
1000
1000
1000
1000
1000
1000
789.640448718
790.243782632
826.683758636
893.13849543
958.281264922
992.172547424
999.571085203
999.998181557
1000
1000
1000
1000
1000
1000
1000
1000
1000
1000
1000
1000
791.512308633
787.349479938
816.245882027
877.022751231
944.202338276
986.357273077
998.782566286
999.982778393
1000
1000
1000
1000
1000
1000
1000
1000
1000
1000
1000
1000
792.834863393
787.429682507
807.627656882
861.299953515
928.788198282
978.422140657
997.146787241
999.910037858
999.999946868
1000
1000
1000
1000
1000
1000
1000
1000
1000
1000
1000
794.850200018
787.349319465
799.601464823
844.906241613
911.333395677
968.029947435
994.231439701
999.655545131
999.996993159
1000
1000
1000
1000
1000
1000
1000
1000
1000
1000
1000
797.221417716
787.429632653
789.070583439
826.615128161
892.008400461
955.043177306
989.51437622
998.906835679
999.965828022
999.999905155
1000
1000
1000
1000
1000
1000
1000
1000
1000
1000
798.995313581
787.275006509
787.429605505
813.886997161
873.519403902
939.890889723
982.4152689
997.209082793
999.802245464
999.996124284
1000
1000
1000
1000
1000
1000
1000
1000
1000
1000
801.041334192
787.429574429
787.235890668
804.181454654
856.284370847
923.193695522
972.83250988
994.153190269
999.266465022
999.9608463
999.99972469
1000
1000
1000
1000
1000
1000
1000
1000
1000
804.067212502
787.243666827
787.429537946
790.407256977
837.191764428
904.185134953
960.313595792
989.187843727
998.063741693
999.806998362
999.99482569
999.999997985
1000
1000
1000
1000
1000
1000
1000
1000
808.77052347
787.429499708
786.970785867
787.429496806
821.36366357
882.753786732
944.230033535
981.780323609
995.892278215
999.382749488
999.961805065
999.999808656
1000
999.999999969
999.999999987
999.999999992
999.999999996
1000
1000
1000
816.428752046
787.22077108
787.429451745
787.067334059
804.627267568
859.735654515
926.316884533
972.406331156
992.556735627
998.545532764
999.846020538
999.996424813
999.999947667
999.999946196
999.999974575
999.999978207
999.999980018
999.999993776
999.999999761
999.999999952
827.252217013
787.429405183
786.792912835
787.429398341
787.34043699
838.83514619
908.699933865
961.609328514
987.884236004
997.100234231
999.537826179
999.967834688
999.994256932
999.990736662
999.99357583
999.993700797
999.990689888
999.993678121
999.99941304
999.999860165
842.583896853
789.860371936
787.429347918
786.745504927
787.42934122
823.580592565
888.754961692
946.69460701
980.098252674
994.06336926
998.635793218
999.775800218
999.879555532
999.635570094
999.558659661
999.631931743
999.422386053
999.273536602
999.833398928
999.957669107
863.463939708
803.170880802
786.948489244
787.429288968
787.014297234
806.977464187
862.487510923
922.44977916
963.955661922
985.521606471
994.6343413
997.917112379
999.199812467
996.438565047
989.906579142
987.477927928
989.095562048
980.070406972
991.640764159
997.623214471
884.273732089
830.513085592
787.429242709
786.744014805
787.429234411
787.322566996
827.445752365
885.018279063
933.009936158
963.252411464
979.576917412
987.93565154
994.156157171
989.000199376
935.58096733
818.21505365
769.25028366
812.525540407
915.657708645
980.701342147
890.745540306
863.828949453
795.391763324
787.429196937
786.943747185
787.429189771
801.316347342
841.494196324
888.329462634
924.840292966
946.853880245
966.99839235
964.999067394
874.233182105
652.224770005
612.191369214
611.352003904
612.214350906
731.389392895
958.523168679
890.712853172
887.831712677
827.536630578
787.159790566
787.429162442
787.128876604
787.429157662
805.829368603
840.705154814
874.887971691
898.288647273
916.608067218
831.246641442
619.894926416
612.191366709
610.811375445
612.035687011
611.29415015
654.680931255
950.785060154
890.831938294
890.712839811
865.607811753
803.170674625
787.135717449
787.429139479
787.30508676
791.719156162
805.344597012
822.037021244
846.485079427
827.236522162
664.674672712
612.214346572
610.713514143
612.090414201
610.732314482
612.058598625
641.294860695
948.743385536
)
;

boundaryField
{
    emptyPatch
    {
        type            empty;
    }
    minY
    {
        type            calculated;
        value           nonuniform List<scalar> 0();
    }
    maxY
    {
        type            calculated;
        value           nonuniform List<scalar> 0();
    }
    maxX
    {
        type            calculated;
        value           nonuniform List<scalar> 
38
(
1000
1000
1000
1000
1000
1000
1000
1000
1000
1000
1000
1000
1000
1000
1000
1000
1000
1000
1000
1000
1000
1000
1000
1000
1000
1000
1000
1000
1000
1000
999.999999952
999.999860165
999.957669107
997.623214472
980.701342152
958.523168687
950.785060163
948.743385545
)
;
    }
    water_to_heater
    {
        type            calculated;
        value           nonuniform List<scalar> 
60
(
641.483808595
641.483799674
644.045256544
641.434214293
644.429424859
644.429409752
641.721234135
641.721215892
644.83603
644.836007859
641.813564794
644.896582281
642.636752647
642.636723201
645.178665295
645.178634085
678.544160204
678.544129402
749.392788435
756.350112851
692.325181677
692.325151133
595.460703987
595.460673474
564.929435986
564.929412514
565.763039784
564.54023568
565.763018119
565.763003074
564.793057261
564.793047087
565.762992416
565.762987321
565.186247206
565.762989869
565.625738027
565.625741923
567.879365581
567.879374171
575.530799007
575.530812891
590.237917159
607.745724032
620.312774114
620.312787301
626.859108683
626.859116515
638.426880888
638.426875729
673.438191553
719.413360028
724.592009253
724.591990127
688.279634709
688.279612318
620.44581455
620.445794279
584.702765608
579.060524174
)
;
    }
    procBoundary3to1
    {
        type            processor;
        value           nonuniform List<scalar> 
41
(
584.891071325
584.697965778
589.746953371
614.562515731
670.115917616
748.868651497
827.012653737
879.741363203
890.743240773
890.712803408
890.747217654
890.712822436
890.786231509
579.295510152
587.708728165
587.796219477
585.717261302
584.87590567
584.645759505
584.891071325
584.888990022
890.71282858
890.879143118
887.933510523
841.298852108
791.667251017
787.177311099
787.429125314
787.358591962
787.429124387
796.716825246
825.847981745
759.068591276
612.87948531
611.071869563
612.090412177
610.884925475
611.857069216
610.918853274
645.038819342
962.679894571
)
;
    }
    procBoundary3to2
    {
        type            processor;
        value           nonuniform List<scalar> 
41
(
644.149276208
646.496023635
646.537181167
646.646650345
655.867432404
686.831872948
733.67618267
783.898761717
830.86463042
864.504476485
872.999903745
872.93536105
872.836014711
868.476876318
841.41721023
815.394857612
815.357686492
835.843811196
899.403296012
968.890557696
1000
1000
1000
1000
1000
1000
1000
1000
1000
1000
1000
1000
1000
1000
1000
1000
1000
997.085414827
999.965173041
1000
1000
)
;
    }
}


// ************************************************************************* //
