/*--------------------------------*- C++ -*----------------------------------*\
| =========                 |                                                 |
| \\      /  F ield         | OpenFOAM: The Open Source CFD Toolbox           |
|  \\    /   O peration     | Version:  2312                                  |
|   \\  /    A nd           | Website:  www.openfoam.com                      |
|    \\/     M anipulation  |                                                 |
\*---------------------------------------------------------------------------*/
FoamFile
{
    version     2.0;
    format      ascii;
    arch        "LSB;label=32;scalar=64";
    class       volScalarField;
    location    "0.725/water";
    object      d.gas;
}
// * * * * * * * * * * * * * * * * * * * * * * * * * * * * * * * * * * * * * //

dimensions      [0 1 0 0 0 0 0];

internalField   nonuniform List<scalar> 
1496
(
0.00499353536101
0.00499353521717
0.00499350706067
0.00499349169122
0.00499349383477
0.00499350619074
0.00499352476221
0.00499355116679
0.00499359604741
0.00499367058991
0.004993765461
0.00499385207591
0.00499393400851
0.00499401716405
0.00499411304069
0.00499423227081
0.00499445405809
0.00499466894889
0.0049945830584
0.00499458161185
0.00499355925445
0.00499357583845
0.00499352202964
0.00499350148543
0.00499350879707
0.00499353014473
0.00499356461887
0.00499362289738
0.00499370717111
0.00499379835769
0.00499387504458
0.00499395303908
0.00499403447971
0.00499412910142
0.0049942631814
0.00499447176259
0.0049946681411
0.00499459869555
0.00499459775353
0.00499459736395
0.00499357870568
0.00499364191059
0.0049935692329
0.00499354875801
0.00499357104035
0.0049936186863
0.00499368960843
0.00499377107381
0.00499384695974
0.00499391056471
0.00499398528159
0.00499406691087
0.0049941685905
0.00499430767016
0.00499447615536
0.00499464375079
0.00499462149586
0.00499461116556
0.00499461150216
0.00499461186924
0.00499359352157
0.00499367831492
0.0049936157596
0.00499362981986
0.00499369601784
0.00499377239842
0.00499383558022
0.0049938952692
0.00499394881086
0.00499401880307
0.00499410493866
0.00499421470868
0.00499434915369
0.00499447610894
0.00499460949962
0.00499464993532
0.00499462562551
0.00499462533679
0.00499462536193
0.00499462550432
0.00499360252632
0.00499368403597
0.0049936872847
0.00499374290877
0.00499380734313
0.00499384990517
0.00499390100028
0.00499395064445
0.00499401859168
0.00499412019633
0.00499423115838
0.00499434175038
0.00499443930642
0.00499454913571
0.00499463219647
0.00499464298185
0.00499463661717
0.00499463701678
0.004994637377
0.00499463767528
0.00499356748465
0.00499370234802
0.00499373332985
0.0049937575054
0.00499378365278
0.0049938313872
0.00499388424681
0.00499395290374
0.00499407092059
0.00499417383707
0.00499426457268
0.00499435530178
0.00499446470776
0.00499456755694
0.00499463038521
0.00499464974931
0.00499464754774
0.00499464803803
0.00499464846561
0.00499464870057
0.00499322455931
0.00499344851293
0.00499350968148
0.00499354369683
0.00499362164814
0.00499371949831
0.00499382105543
0.00499396329847
0.00499407158849
0.00499416425329
0.00499426343083
0.00499437623421
0.00499449176122
0.0049945845136
0.00499463971154
0.00499465845087
0.00499465802575
0.00499465835656
0.00499465873417
0.00499465894196
0.00499360396344
0.00499391918684
0.00499390490895
0.00499389691059
0.00499395782529
0.00499403210528
0.00499412309957
0.00499419942221
0.00499427180023
0.00499435218831
0.0049944383588
0.00499452491781
0.0049946043188
0.00499466147162
0.00499469048203
0.0049946927511
0.00499468089025
0.0049946723557
0.00499466936848
0.00499466893404
0.00499547192512
0.00499572901245
0.00499557835879
0.00499546612729
0.00499535793383
0.00499523897467
0.00499511636924
0.00499502475683
0.00499497723004
0.00499495521835
0.00499494242776
0.00499492541102
0.00499490468738
0.00499488487602
0.00499486046071
0.00499482818794
0.00499479274164
0.00499476480551
0.00499474623095
0.00499473325781
0.00499635715524
0.00499635828036
0.00499635847235
0.0049963522427
0.00499632810657
0.00499627878507
0.00499619237956
0.00499605651158
0.00499588436113
0.00499572498125
0.00499560045896
0.00499549205353
0.00499537671703
0.00499525983332
0.00499516069096
0.0049950819458
0.00499501785809
0.00499496641558
0.00499492440114
0.00499489117975
0.00499638243872
0.00499638264464
0.0049963829937
0.00499638376562
0.00499638456333
0.00499638520783
0.00499638554688
0.00499638423254
0.00499635473037
0.00499625308437
0.00499609990562
0.00499595297819
0.00499581973293
0.00499567820285
0.00499552911244
0.00499540336011
0.00499531217943
0.00499524878585
0.00499519976646
0.00499515602683
0.00499639716821
0.00499639726526
0.00499639741051
0.00499639763951
0.00499639797175
0.00499639843668
0.0049963990732
0.00499639982981
0.00499640018955
0.00499639941947
0.00499635739797
0.00499625352688
0.00499612776908
0.00499600319237
0.00499586841508
0.00499572954839
0.00499561664458
0.00499554377292
0.00499550033978
0.00499546574331
0.00499640912705
0.00499640917786
0.00499640923699
0.00499640933216
0.0049964094806
0.0049964096737
0.00499640990265
0.00499641018448
0.00499641055117
0.00499641106043
0.0049964108053
0.00499638353566
0.00499631444705
0.00499621720362
0.00499611142541
0.00499599657841
0.00499588444344
0.00499580184226
0.00499575987502
0.00499573830724
0.00499641983303
0.00499641985708
0.00499641987025
0.00499641989416
0.00499641995645
0.00499642005939
0.00499642020828
0.00499642041564
0.00499642068329
0.00499642104611
0.00499642288791
0.0049964168006
0.00499639218922
0.00499634060316
0.00499626493942
0.00499617885043
0.0049960888781
0.00499600891423
0.00499596393225
0.00499594900496
0.00499642964048
0.00499642965542
0.00499642964585
0.00499642963229
0.004996429637
0.00499642967062
0.00499642975016
0.00499642988818
0.00499643010712
0.0049964304246
0.00499643135836
0.00499642932942
0.00499641819081
0.00499639347851
0.00499635137617
0.0049962953813
0.0049962331795
0.00499617175361
0.00499612947923
0.00499611737422
0.00499643918643
0.00499643917269
0.00499643913542
0.00499643907807
0.00499643900201
0.00499643892282
0.00499643887823
0.00499643891104
0.00499643905172
0.00499643929586
0.00499643970003
0.00499643881464
0.00499643247899
0.00499641886942
0.00499639837128
0.00499637176022
0.00499634000293
0.00499630625043
0.00499628104529
0.00499627514359
0.0049964490227
0.00499644898256
0.00499644890009
0.00499644877005
0.00499644857694
0.00499644830809
0.00499644797162
0.00499644781302
0.00499644790537
0.00499644808833
0.00499644847158
0.00499644959385
0.00499644882647
0.00499644585368
0.0049964445599
0.00499644769155
0.00499644912323
0.00499644986743
0.00499645892972
0.00499647648153
0.00499646031709
0.00499646023716
0.00499646007757
0.00499645982624
0.00499645965576
0.00499645961112
0.00499646062752
0.00499646366587
0.00499646649637
0.00499646763891
0.00499646794219
0.00499646909417
0.00499647088295
0.00499647571547
0.00499649634792
0.00499653603148
0.00499657675034
0.00499663132499
0.00499669740567
0.00499673166384
0.00499647547203
0.00499647507944
0.00499647487239
0.00499647463228
0.00499647611662
0.00499647941248
0.00499648311129
0.00499648542485
0.00499648632926
0.00499648626443
0.00499648611068
0.00499648722247
0.00499649366855
0.00499652115709
0.00499658473381
0.00499666176206
0.00499675072502
0.00499686348339
0.00499691549531
0.00499689572899
0.00499650311617
0.00499652524333
0.00499651351597
0.00499650882313
0.00499651061282
0.00499651437582
0.00499651773836
0.00499651915138
0.00499651851174
0.00499651710929
0.00499651911086
0.00499653309464
0.00499657766442
0.00499665413655
0.00499674980273
0.00499685810611
0.0049969788088
0.00499703400015
0.00499701070374
0.00499699901654
0.00499654107598
0.00499661384836
0.00499657658957
0.00499656321161
0.00499656640078
0.00499657139509
0.00499657406718
0.00499657434359
0.00499657537874
0.0049965856996
0.00499661962354
0.00499668484674
0.00499676203267
0.0049968534098
0.00499697060947
0.00499706508168
0.00499710341073
0.00499709965138
0.00499709081407
0.00499709331029
0.00499658590886
0.00499670676069
0.00499664859934
0.00499662811334
0.00499663520519
0.00499664385783
0.0049966514405
0.00499666379929
0.00499669623964
0.0049967524623
0.00499682311346
0.00499689604779
0.00499698284676
0.00499707861684
0.00499713162153
0.00499714920444
0.00499716494179
0.00499717823986
0.00499718342268
0.00499718655876
0.00499663288333
0.0049967677173
0.00499673265331
0.00499672086207
0.00499673598941
0.00499675735248
0.00499678952447
0.00499684472077
0.00499691007285
0.00499696711389
0.00499701997555
0.00499709562963
0.0049971626063
0.00499718385474
0.00499719688414
0.00499722375689
0.00499725734673
0.00499727801331
0.0049972840907
0.00499728531966
0.00499677603357
0.00499693055022
0.00499692124266
0.00499692952878
0.0049969620258
0.00499700242292
0.00499705526303
0.00499711090865
0.00499715165998
0.00499719025153
0.00499724527327
0.00499728859031
0.00499729284168
0.00499729992334
0.00499732248743
0.0049973539031
0.0049973804463
0.00499738906592
0.00499738654345
0.00499737930549
0.00499776764867
0.00499793980226
0.00499786283892
0.00499781340084
0.00499778828434
0.00499777262823
0.00499776487174
0.00499776084324
0.00499776287663
0.00499776035475
0.00499773766815
0.00499768155129
0.00499763293147
0.0049976068474
0.00499759744985
0.0049975882621
0.00499757303765
0.00499754825133
0.00499752093267
0.00499749879517
0.00499947939197
0.00499956948885
0.00499946558514
0.00499938176102
0.00499930626804
0.00499924017755
0.00499918126583
0.00499911955518
0.00499904598428
0.00499893878671
0.0049987928684
0.00499862844732
0.00499846718697
0.00499831317241
0.00499818274767
0.00499807078445
0.00499796367863
0.00499786683828
0.0049977826985
0.00499771773965
0.00499977996231
0.00499978149045
0.00499978231385
0.00499978291741
0.0049997905043
0.00499980037579
0.00499980098598
0.00499978427901
0.00499975269896
0.00499971673933
0.00499967565035
0.00499961511543
0.00499949981489
0.00499928292486
0.00499900590073
0.00499876849869
0.00499856454687
0.00499838096413
0.00499821954719
0.00499808501812
0.00499979527877
0.00499979532596
0.00499979520673
0.00499979509329
0.00499979492988
0.00499979466972
0.00499979430602
0.00499979388336
0.00499979344518
0.00499979305105
0.00499979270525
0.00499979225532
0.00499979333048
0.00499978807421
0.00499966151203
0.00499937597789
0.00499911843849
0.00499891073292
0.00499872033495
0.00499854108269
0.00499980422995
0.00499980423862
0.00499980419362
0.00499980412179
0.00499980400544
0.00499980381833
0.00499980355915
0.00499980324769
0.00499980290654
0.00499980255384
0.00499980220483
0.00499980186294
0.00499980151901
0.00499980085821
0.00499980149424
0.00499970650455
0.00499946735982
0.0049992395092
0.00499904820551
0.00499886470301
0.00499981416304
0.00499981413933
0.00499981408013
0.00499981398522
0.00499981384215
0.00499981362659
0.0049998133292
0.00499981295286
0.00499981250029
0.00499981197034
0.00499981135955
0.00499981064335
0.00499980974845
0.00499980851756
0.00499979742073
0.00499975306197
0.00499962066754
0.00499941355248
0.00499921469256
0.00499901703492
0.00499982534916
0.00499982532535
0.00499982525962
0.00499982513465
0.00499982495093
0.00499982468459
0.00499982431596
0.00499982384069
0.00499982325953
0.00499982257473
0.00499982178991
0.0049998208677
0.00499981979717
0.00499981582671
0.00499979617783
0.00499973968748
0.00499963517398
0.00499948564086
0.00499933652604
0.00499919757246
0.00499983794954
0.00499983790548
0.00499983779838
0.00499983761864
0.00499983738625
0.00499983707333
0.00499983664741
0.00499983609244
0.00499983539538
0.00499983450434
0.00499983338835
0.00499983256151
0.00499982877667
0.00499981714766
0.004999785518
0.00499973263781
0.00499965753034
0.00499959737614
0.00499958312553
0.00499960562766
0.00499985244036
0.00499985236901
0.00499985222146
0.00499985201316
0.00499985177386
0.00499985146872
0.00499985106749
0.00499985056487
0.00499984994216
0.00499984921477
0.00499984859623
0.0049998463632
0.00499983885053
0.00499982249408
0.00499980734684
0.0049997914328
0.00499981083602
0.00499985818577
0.00499987793315
0.00499988719325
0.00499987000256
0.00499986986104
0.00499986963301
0.00499986934265
0.00499986899003
0.00499986853384
0.00499986788141
0.00499986697891
0.00499986644569
0.00499986571597
0.00499986526295
0.00499985541821
0.00499984517079
0.00499985374076
0.00499987650461
0.00499992893512
0.00499998076699
0.00499996832487
0.00499996805779
0.00499996753279
0.00499989347849
0.00499989326741
0.0049998929658
0.00499989251446
0.0049998917697
0.00499989049862
0.00499988974141
0.00499988899043
0.00499988747159
0.00499988305194
0.00499987260848
0.00499986272043
0.00499988028925
0.00499992608662
0.00499998983596
0.00500000747505
0.00499997878237
0.0049999783806
0.00499997802258
0.00499997778629
0.00499992893038
0.00499992887273
0.00499992888848
0.00499992879663
0.00499992837778
0.0049999271292
0.00499992682568
0.00499992348254
0.00499991136904
0.00499989633188
0.00499988517031
0.00499990646841
0.00499996276507
0.0050000249323
0.00500001364548
0.00499998792404
0.00499998766889
0.00499998750202
0.004999987464
0.00499998740481
0.00499997630021
0.0049999767397
0.00499997744433
0.00499997837374
0.00499997395359
0.00499997674333
0.00499998169202
0.00499998416035
0.00499997606984
0.00499996015203
0.00499996127277
0.00499999398604
0.00500002842595
0.00500000826381
0.0049999954669
0.00499999557765
0.00499999574634
0.0049999959501
0.00499999618327
0.00499999648124
0.00499455186082
0.00499453893608
0.00499451251101
0.00499447163382
0.00499441861492
0.00499436154113
0.00499431253869
0.00499426587453
0.00499424158092
0.00499423113859
0.00499422585692
0.00499422302708
0.00499421922061
0.00499421559312
0.00499421369678
0.00499421108034
0.00499458076998
0.0049945801675
0.00499457945067
0.00499457811588
0.00499456335774
0.00499455802868
0.00499454029597
0.0049945105873
0.0049944729964
0.00499443728623
0.00499441409181
0.00499438533215
0.0049943612368
0.00499435147995
0.0049943476696
0.00499434518906
0.00499434183986
0.00499433859413
0.00499433746241
0.00499433532034
0.00499459730218
0.0049945973988
0.00499459776748
0.00499460110854
0.00499459658686
0.0049945889479
0.00499457188525
0.00499454685125
0.00499451854114
0.0049944951645
0.00499448863356
0.00499447478839
0.00499444964764
0.00499443874824
0.00499443403267
0.00499443267216
0.004994430274
0.00499442758888
0.00499442710411
0.0049944255051
0.00499461216301
0.00499461247882
0.00499461274313
0.00499461370814
0.00499461450945
0.0049946093132
0.00499459606293
0.00499457710197
0.00499455654793
0.00499454182541
0.00499454782038
0.00499454464753
0.00499451657304
0.00499450366387
0.00499449900331
0.00499449847585
0.004994496825
0.00499449428081
0.00499449403109
0.00499449270871
0.00499462571453
0.00499462585495
0.00499462598305
0.00499462660939
0.00499462603543
0.00499462141764
0.00499461096414
0.00499459726698
0.00499458357186
0.00499457751342
0.00499459684158
0.00499460087634
0.00499457030604
0.00499455581341
0.00499455069593
0.00499455058778
0.00499454934258
0.00499454672666
0.00499454636147
0.00499454490127
0.00499463780673
0.00499463789015
0.00499463783696
0.00499463629213
0.00499463489258
0.00499462997874
0.00499462104873
0.00499461152374
0.00499460522345
0.00499460982263
0.00499464123685
0.00499464511018
0.00499461392654
0.00499459825631
0.00499459276453
0.00499459327889
0.00499459232864
0.0049945898392
0.00499458951021
0.00499458791295
0.00499464877576
0.00499464859191
0.00499464816137
0.00499464494619
0.00499464253838
0.00499463649397
0.00499462912305
0.00499462385433
0.00499462681363
0.00499464347404
0.00499468389673
0.00499468250842
0.0049946529781
0.00499463732841
0.00499463201053
0.00499463340653
0.00499463247499
0.00499463018494
0.00499463028539
0.00499462886471
0.00499465901403
0.00499465905023
0.00499465806226
0.00499465387056
0.00499464982799
0.00499464354408
0.00499463952182
0.00499464187434
0.00499465692847
0.0049946861859
0.00499473148992
0.00499472076247
0.00499469406826
0.00499468064799
0.00499467671903
0.0049946791408
0.00499467769929
0.00499467578945
0.00499467665592
0.0049946757934
0.00499466869224
0.00499466857932
0.00499466692301
0.00499466620821
0.00499466426417
0.00499466268225
0.00499466680347
0.00499468392986
0.00499471049966
0.00499475204454
0.00499479033721
0.0049947702786
0.00499474783963
0.00499473777977
0.00499473666046
0.00499473953435
0.00499473682336
0.00499473568862
0.00499473738941
0.00499473749527
0.00499472552451
0.00499472210631
0.00499472096738
0.0049947196539
0.004994720855
0.00499472688166
0.0049947440199
0.00499477421074
0.00499480850385
0.00499485521531
0.00499487037347
0.00499484777598
0.00499483001903
0.00499482172859
0.00499482288091
0.00499482392627
0.00499481933104
0.0049948188651
0.00499482064132
0.00499482212097
0.0049948661094
0.00499485361138
0.00499485174485
0.00499485009138
0.0049948540244
0.00499486820398
0.0049948960151
0.00499492555596
0.00499496115049
0.00499499488896
0.00499498983284
0.004994967739
0.00499495030386
0.00499494299276
0.00499494359638
0.00499493741533
0.00499493051964
0.00499493180278
0.00499493348242
0.00499493684486
0.00499511373637
0.0049950868591
0.00499507687555
0.00499507158307
0.00499507508687
0.00499509179933
0.00499511134199
0.00499513432645
0.00499516559471
0.00499518099695
0.0049951658842
0.00499514338811
0.00499512311781
0.00499511305502
0.0049951156292
0.0049951024756
0.0049950960636
0.00499510083963
0.00499510288366
0.0049951103154
0.00499542388668
0.00499538514505
0.00499536509425
0.00499535363399
0.00499535311727
0.00499535591911
0.00499536463547
0.00499538551776
0.00499541099012
0.00499541770493
0.00499540734317
0.00499539440368
0.00499539464041
0.00499540387182
0.0049954315872
0.00499542315278
0.00499540852298
0.00499540250718
0.00499540094826
0.00499540727417
0.00499571229735
0.0049956758896
0.0049956507116
0.00499563659747
0.00499562602943
0.00499562004039
0.00499562552481
0.00499564662878
0.00499566986341
0.00499568088628
0.00499568789084
0.00499571387088
0.0049957626639
0.00499581212628
0.0049958242264
0.00499583248954
0.00499581346219
0.00499579306593
0.00499578235894
0.00499578033631
0.00499593796518
0.00499591416596
0.00499589221084
0.00499587924814
0.00499586828216
0.00499586227143
0.00499587020024
0.00499589138658
0.00499590638202
0.00499592014539
0.00499595439357
0.00499601851433
0.00499606105016
0.00499605635416
0.00499605564466
0.00499605904012
0.00499605315257
0.00499604219414
0.00499603492483
0.00499603168923
0.00499611639916
0.00499610425092
0.00499609368578
0.00499608995824
0.00499608650243
0.00499608841232
0.00499609760424
0.00499610377439
0.00499610483978
0.00499611938196
0.00499616011553
0.00499618626335
0.00499617907443
0.00499617364215
0.00499617056667
0.00499617036784
0.00499616959525
0.00499616657316
0.0049961654624
0.00499616608813
0.00499628692907
0.00499628215019
0.00499628506701
0.00499629604121
0.00499630708492
0.00499631815066
0.00499632105506
0.00499631016352
0.00499629136825
0.00499628860872
0.00499629466799
0.00499628779306
0.00499627977681
0.00499627796841
0.00499627536274
0.00499627407272
0.00499627498904
0.00499627398877
0.00499627607475
0.00499627869573
0.00499650821854
0.00499650690422
0.00499650436511
0.00499652339642
0.00499654671987
0.00499656273071
0.00499656191863
0.00499653863842
0.00499650749725
0.0049964863045
0.0049964619011
0.00499643730467
0.00499642680457
0.00499642676997
0.00499642585648
0.00499642407681
0.0049964255748
0.0049964262226
0.00499642944556
0.00499643158013
0.00499674156504
0.0049967627379
0.00499675169903
0.00499676362254
0.00499678735278
0.00499680248261
0.00499680015264
0.00499677994583
0.00499675216835
0.0049967236398
0.00499668592692
0.00499664515943
0.0049966250159
0.00499662359378
0.00499662558235
0.00499662402646
0.00499662455755
0.0049966268586
0.00499662831494
0.0049966285845
0.00499690100884
0.00499693260807
0.00499695120639
0.00499695441683
0.00499696886176
0.0049969808187
0.00499698438107
0.00499698208948
0.00499697436557
0.00499695402797
0.00499691890547
0.00499687804445
0.00499684596572
0.00499683809283
0.00499683566985
0.00499683132939
0.00499682846658
0.00499682986295
0.00499683133827
0.00499683038716
0.00499701088207
0.00499703592757
0.00499706436511
0.00499706999514
0.00499707299831
0.00499708344269
0.00499709605327
0.00499711022418
0.00499711926345
0.00499711337489
0.00499709282173
0.0049970632499
0.00499703458908
0.00499703791769
0.00499702763327
0.00499701562618
0.00499700811611
0.00499700575259
0.0049970070852
0.00499700636656
0.00499710254807
0.0049971152675
0.00499713068627
0.00499713499327
0.00499713350571
0.00499714497542
0.00499716488379
0.00499718469193
0.00499719655505
0.00499719841573
0.00499719097965
0.00499717597798
0.00499716394772
0.00499719750946
0.00499717478099
0.00499715524658
0.00499714529214
0.00499714089091
0.00499714226499
0.00499714281739
0.00499719206647
0.00499719412596
0.00499719593503
0.00499719287556
0.00499719144256
0.00499720093622
0.00499721872636
0.0049972358515
0.00499724759584
0.00499725346754
0.00499725232642
0.00499724563372
0.00499728471441
0.0049973163185
0.00499727441031
0.0049972539766
0.00499724625168
0.00499724329097
0.00499724473887
0.00499724614453
0.00499728121285
0.00499727802538
0.00499727200982
0.00499726555581
0.00499726381781
0.00499726848794
0.00499728018758
0.00499729279739
0.00499730374012
0.00499731183734
0.00499731689134
0.00499733181468
0.00499741175481
0.00499739747306
0.00499736473611
0.00499734847193
0.00499734397764
0.00499734255747
0.00499734360432
0.00499734471365
0.00499737037251
0.00499736016765
0.00499735102282
0.00499734747969
0.00499734776987
0.00499735089641
0.00499735838791
0.00499736716297
0.00499737510794
0.00499738150372
0.0049973918665
0.00499751718865
0.00499753203115
0.00499748123326
0.00499745674829
0.00499744890013
0.00499744921505
0.00499744902787
0.00499745036272
0.00499745133717
0.00499747960734
0.00499746492207
0.00499745448311
0.00499745579709
0.00499745824487
0.00499746158267
0.00499746785323
0.00499747581209
0.00499748497621
0.00499750299614
0.00499762636962
0.004997654399
0.00499760150228
0.00499757560775
0.00499756599401
0.00499756649643
0.00499756936058
0.00499757081072
0.00499757305877
0.00499757451786
0.00499767200869
0.00499764080676
0.00499762326962
0.0049976205786
0.00499761882181
0.00499761877588
0.00499762157732
0.00499762889186
0.0049976574068
0.0049977759284
0.00499779902752
0.00499775267814
0.00499772778405
0.00499771478786
0.00499771285779
0.00499771320133
0.00499771539123
0.00499771724529
0.00499771936266
0.00499772258305
0.00499798640207
0.00499792254989
0.00499788386865
0.00499786083407
0.00499784430223
0.00499783560393
0.0049978396764
0.00499789212167
0.00499798523019
0.00499799274551
0.00499795049933
0.00499792359715
0.00499790636197
0.00499789868896
0.00499789441209
0.00499789987766
0.00499790660137
0.00499790644052
0.00499790857961
0.00499791310967
0.00499838826839
0.00499827813837
0.00499820326741
0.00499815312824
0.00499812325358
0.00499812858597
0.00499819648226
0.00499823540762
0.00499822325795
0.00499819231546
0.00499816915121
0.00499815533639
0.00499814992223
0.0049981464107
0.00499815044497
0.00499815739616
0.00499815285616
0.00499815076095
0.00499815773655
0.00499816169619
0.00499869618408
0.00499856936056
0.00499848498672
0.00499844016367
0.00499845168945
0.00499850112256
0.00499850046989
0.00499847890859
0.00499846659425
0.00499846040819
0.00499846306228
0.00499848360753
0.00499851204637
0.00499852272351
0.00499851039164
0.00499848513761
0.0049984708922
0.00499846908299
0.00499846972737
0.00499847131143
0.00499884671056
0.0049987510923
0.0049987259389
0.00499876137811
0.00499879382679
0.00499876291098
0.00499872581453
0.00499871828095
0.00499872498482
0.00499874627495
0.00499878913301
0.00499882297977
0.00499882551978
0.00499881860326
0.00499880248762
0.00499878150031
0.00499876712355
0.00499875860922
0.00499875268714
0.00499875005199
0.00499904033483
0.00499900544012
0.00499907151175
0.00499910926002
0.00499907632374
0.0049990109509
0.00499897482342
0.00499896921904
0.00499898400221
0.00499900744887
0.00499901786815
0.00499900956461
0.00499899719021
0.00499898650222
0.00499897646524
0.00499896981665
0.00499896462366
0.00499896059316
0.00499895772453
0.00499895478672
0.00499954871426
0.00499946569644
0.00499944880652
0.00499942231682
0.00499938579649
0.00499933288121
0.00499928362993
0.0049992515464
0.00499923045816
0.00499920952415
0.00499918485689
0.00499916355845
0.00499915029028
0.00499914104874
0.00499913625429
0.00499913702151
0.00499913849459
0.0049991397698
0.00499914048069
0.00499913943247
0.00499989389317
0.00499982504702
0.00499973787284
0.00499969154639
0.00499966744175
0.00499964039156
0.004999591238
0.00499952575082
0.00499946965871
0.00499942539948
0.00499938949476
0.0049993604183
0.00499934017485
0.00499932908812
0.00499932706764
0.00499932925435
0.00499933137269
0.00499933318523
0.00499933425064
0.00499933391592
0.00499996737251
0.00499994495815
0.00499988984903
0.00499985616758
0.00499983646423
0.00499982647889
0.00499980163771
0.00499974453629
0.0049996859736
0.00499964070394
0.00499960547376
0.00499957663072
0.00499955506841
0.00499954360333
0.00499954000485
0.00499953830404
0.00499953738512
0.00499953697611
0.00499953641243
0.00499953548539
0.00499997771723
0.00499997047727
0.0049999564791
0.00499993975732
0.00499992392066
0.00499991826936
0.00499990791285
0.00499988082797
0.00499984375109
0.00499981234615
0.00499978778658
0.00499976701182
0.00499974963662
0.00499973712725
0.00499972808518
0.00499972083646
0.00499971602832
0.00499971345611
0.00499971188816
0.0049997100864
0.00499998671247
0.0049999855362
0.0049999912744
0.00499997881023
0.0049999684478
0.00499996334915
0.00499995732679
0.00499994696445
0.0049999307058
0.00499991450205
0.00499990062444
0.00499988813927
0.00499987643798
0.00499986572625
0.00499985622931
0.00499984833567
0.00499984296562
0.00499984004533
0.00499983893126
0.00499983693164
0.00499999509388
0.00499999905125
0.00500000183986
0.00499999498424
0.00499999044464
0.00499998603962
0.00499998096234
0.00499997757239
0.00499997381058
0.00499996884583
0.00499996322687
0.00499995719903
0.00499995085409
0.00499994446615
0.00499993873253
0.00499993396321
0.00499993066674
0.00499992887297
0.00499992838367
0.00499992622768
)
;

boundaryField
{
    emptyPatch
    {
        type            empty;
    }
    minY
    {
        type            calculated;
        value           nonuniform List<scalar> 0();
    }
    maxY
    {
        type            calculated;
        value           uniform 0.005;
    }
    water_to_cooler
    {
        type            calculated;
        value           nonuniform List<scalar> 
38
(
0.00499421108034
0.00499433532034
0.0049944255051
0.00499449270871
0.00499454490127
0.00499458791295
0.00499462886471
0.0049946757934
0.00499473749527
0.00499482212097
0.00499493684486
0.0049951103154
0.00499540727417
0.00499578033631
0.00499603168923
0.00499616608813
0.00499627869573
0.00499643158013
0.0049966285845
0.00499683038716
0.00499700636656
0.0049971428174
0.00499724614456
0.0049973447137
0.00499745133721
0.00499757451789
0.00499772258305
0.00499791310968
0.0049981616962
0.00499847131146
0.00499875005215
0.00499895478733
0.00499913943404
0.00499933391877
0.00499953548953
0.00499971009147
0.00499983693683
0.00499992623155
)
;
    }
    water_to_heater
    {
        type            calculated;
        value           nonuniform List<scalar> 
59
(
0.00499352983382
0.00499354354849
0.00499355722181
0.00499357674941
0.00499358050956
0.00499359505089
0.00499358873241
0.0049936100393
0.00499355498971
0.00499358902415
0.00499322070804
0.00499360026357
0.00499543029537
0.00499548041601
0.0049963371489
0.00499636876581
0.00499637513334
0.00499639215317
0.00499639470993
0.0049964068458
0.00499640637254
0.00499642133323
0.00499641998422
0.00499643478737
0.00499643314181
0.00499644810289
0.00499644658605
0.00499645764996
0.00499646108739
0.00499647647962
0.00499649235943
0.00499650805166
0.00499653425095
0.00499654997709
0.00499658300831
0.00499662925509
0.00499674472462
0.00499678081395
0.00499774056694
0.00499778581348
0.00499946415914
0.00499950549877
0.00499977545078
0.00499979228043
0.00499979512293
0.00499980411493
0.00499980739605
0.00499981643299
0.00499982080598
0.00499982975565
0.00499983554408
0.00499984990724
0.00499986053795
0.00499986957719
0.00499988535438
0.00499989585109
0.00499992192909
0.00499993753751
0.00499997259991
)
;
    }
    procBoundary0to1
    {
        type            processor;
        value           nonuniform List<scalar> 
41
(
0.00499351353666
0.00499351357505
0.00499350739975
0.00499349826412
0.00499349671602
0.00499350297634
0.00499351442804
0.00499352963982
0.00499354988405
0.00499358202065
0.0049936392213
0.00499372465931
0.00499381917505
0.00499390991511
0.00499399423279
0.00499409087777
0.00499420810889
0.00499444914217
0.0049946558861
0.00499456560726
0.00499453775218
0.00499451129109
0.00499446343521
0.00499439607425
0.00499431730231
0.00499423348393
0.00499415735358
0.00499410228512
0.00499407512885
0.00499406434222
0.00499406005217
0.00499405727599
0.00499405258546
0.00499404833562
0.00499404521012
0.00499404236252
0.00499456393961
0.00499456287629
0.00499456207354
0.00499456140498
0.00499456140498
)
;
    }
}


// ************************************************************************* //
