/*--------------------------------*- C++ -*----------------------------------*\
| =========                 |                                                 |
| \\      /  F ield         | OpenFOAM: The Open Source CFD Toolbox           |
|  \\    /   O peration     | Version:  2312                                  |
|   \\  /    A nd           | Website:  www.openfoam.com                      |
|    \\/     M anipulation  |                                                 |
\*---------------------------------------------------------------------------*/
FoamFile
{
    version     2.0;
    format      ascii;
    arch        "LSB;label=32;scalar=64";
    class       volScalarField;
    location    "0.07/water";
    object      alpha.gas_0;
}
// * * * * * * * * * * * * * * * * * * * * * * * * * * * * * * * * * * * * * //

dimensions      [0 0 0 0 0 0 0];

internalField   nonuniform List<scalar> 
6000
(
0.221742137458
0.139570954502
0.0411523324821
0.0108833420202
0.00215828081932
0.000336433821427
3.8333603337e-05
2.59380246857e-06
4.43191830372e-08
2.87446002914e-10
1.22155066248e-12
4.84864471478e-15
1e-15
1e-15
1e-15
1e-15
1e-15
1e-15
1e-15
1e-15
0.621463121597
0.308582009716
0.147746382158
0.0582133785754
0.0202451406248
0.0054242204574
0.0011070771013
0.00017465653341
2.27825061019e-05
1.32208171423e-06
1.28800071603e-08
3.17752267933e-11
4.33029102102e-14
1e-15
1e-15
1e-15
1e-15
1e-15
1e-15
1e-15
0.622394892274
0.377981721703
0.209894660824
0.10164109117
0.0436906520175
0.0152423107147
0.00411775116353
0.000891153751134
0.00017214044168
2.41755039844e-05
8.45385921767e-07
2.13282823916e-09
1.91251294841e-12
2.22228382038e-15
1e-15
1e-15
1e-15
1e-15
1e-15
1e-15
0.621463121597
0.438603543385
0.272055275219
0.148774420319
0.0729171588324
0.0304092589289
0.0102322030114
0.00282154585462
0.000713742498973
0.000147593283242
1.31599921787e-05
7.37655737752e-08
5.60499555973e-11
2.8512084088e-14
1e-15
1e-15
1e-15
1e-15
1e-15
1e-15
0.616986040035
0.480360831378
0.333063502469
0.203555294051
0.11139096023
0.0534515052347
0.0215979726898
0.00729882246344
0.00220092893526
0.000542083996655
6.75861875691e-05
1.18878980653e-06
7.80942857717e-10
3.05606518519e-13
1.14748184216e-15
1e-15
1e-15
1e-15
1e-15
1e-15
0.604598445926
0.504938975199
0.385398989798
0.263236531603
0.161740240524
0.0889921225969
0.0428003852168
0.0174871561424
0.00598391001127
0.00153417890779
0.000203510852144
5.89144164881e-06
4.70552845804e-09
2.64416467707e-12
3.37443518163e-15
1e-15
1e-15
1e-15
1e-15
1e-15
0.593797652183
0.513984666172
0.419780227629
0.315962522929
0.218041940237
0.137934626619
0.0790785073718
0.0392302085963
0.0153150037155
0.00393927434752
0.000493204344554
1.81029602744e-05
4.59678343609e-08
4.83959917986e-11
5.12784854598e-14
1.04000411322e-15
1.00132421909e-15
1e-15
1e-15
1e-15
0.591922212327
0.51360221146
0.432147120824
0.347983002094
0.265563405081
0.191738179897
0.129836113657
0.0774893949762
0.0351576744543
0.00952600132833
0.00116468699208
5.31745930403e-05
6.37009577562e-07
1.11996763906e-09
1.02564370426e-12
1.74647022958e-15
1.05066072869e-15
1.00793586819e-15
1.00100636797e-15
1.00022340608e-15
0.587569134619
0.506608350805
0.435788708542
0.366067732809
0.301263527806
0.242575752815
0.188067831503
0.129889465259
0.0675872021672
0.0204313976524
0.00276812810233
0.000173467154476
5.90034971762e-06
2.42584729451e-08
1.93049864375e-11
1.24320591855e-14
1.85338784018e-15
1.15258215166e-15
1.01863514906e-15
1.00212832077e-15
0.5821436527
0.493319886562
0.433350417096
0.377776372674
0.331006887166
0.290182129478
0.24649100351
0.185821126143
0.10665457927
0.0371211520239
0.0063718066628
0.000608697259427
3.71951123608e-05
4.97178156966e-07
3.0757591336e-10
1.49617698912e-13
1.27574569587e-14
3.36450842887e-15
1.32197599762e-15
1.02827743667e-15
0.581856316901
0.482178794728
0.42954477521
0.389888622037
0.362989676783
0.338912378682
0.301980907749
0.2360830362
0.14456537102
0.0592071864973
0.0141641735406
0.00216398935952
0.000198641010739
5.20490280869e-06
4.37122575303e-09
1.53211379723e-12
1.4127641351e-13
3.23999622874e-14
5.91769352065e-15
1.494583978e-15
0.581883919535
0.475765219947
0.429205501414
0.407469692917
0.400537697217
0.389494027413
0.353302297329
0.278756680272
0.180155579027
0.0881445068081
0.0304426992132
0.00738975221291
0.000983883173079
3.79941679559e-05
1.21265731597e-07
1.81867131497e-11
1.48551537539e-12
3.63498487113e-13
6.55064572678e-14
8.5912030831e-15
0.582055500307
0.472473383354
0.434048945731
0.42931192972
0.433936210622
0.428810158408
0.391005406924
0.311201564409
0.212668375413
0.123738004331
0.0602593657452
0.0222785058315
0.00427115679541
0.000225500452156
1.52966873237e-06
2.05100502259e-10
1.40780197239e-11
3.68816427826e-12
7.33399946079e-13
1.00288389194e-13
0.582486297522
0.470871191551
0.448436943731
0.448493490573
0.454388323062
0.445408123948
0.401411778681
0.324363186919
0.235374326212
0.160139542822
0.10413207462
0.0544004715214
0.0144034534627
0.00100125205677
9.87826544847e-06
2.24043397733e-09
1.19660322949e-10
3.32019113657e-11
7.25105416211e-12
1.11578175156e-12
0.58369253795
0.470153336721
0.463587072531
0.462986132773
0.464260148713
0.447377999428
0.398792181392
0.322347019716
0.245034660762
0.192402533724
0.155987505786
0.103053456576
0.0342042486614
0.00294252294496
3.80486395718e-05
3.66795933065e-08
9.04772187821e-10
2.63812126069e-10
6.28038273603e-11
1.08334974029e-11
0.5893184087
0.470819529014
0.471894644551
0.473357179721
0.468997707349
0.443657976178
0.388217374852
0.312322894489
0.248495640751
0.223666844159
0.207869875443
0.152489217085
0.0558720143694
0.00568663092434
0.000103235288346
2.96443725669e-07
6.09996270051e-09
1.84382823555e-09
4.76738214004e-10
9.17418782e-11
0.587899672118
0.476220038814
0.477911676869
0.480314848499
0.469066345247
0.431804178876
0.367427037095
0.297075601252
0.257398475781
0.258892351197
0.253396291504
0.185899582943
0.0707900073043
0.00909842110102
0.000296338351903
2.54287111666e-06
3.87901353577e-08
1.14594166364e-08
3.1944591713e-09
6.84213418906e-10
0.590217716774
0.490129526415
0.487217868511
0.486282601424
0.466552003369
0.415384103204
0.347370778176
0.295052147433
0.284790847613
0.302604277417
0.291611031853
0.206959670547
0.0865184593246
0.0166823505213
0.00122128343171
2.32677727186e-05
2.82159879048e-07
6.54399990338e-08
1.93355827807e-08
4.58067957437e-09
0.587916416523
0.511510701579
0.507780894029
0.498541682731
0.467231650198
0.408061288239
0.346610958727
0.313795351962
0.330489180114
0.352127171965
0.321812791279
0.229196718097
0.120418929588
0.0408914249338
0.00607359813403
0.000184564628448
2.24707009733e-06
3.74016086692e-07
1.09746897604e-07
2.82113792983e-08
0.59120761155
0.534512038911
0.537307281525
0.521391804541
0.476985675425
0.413968139163
0.363071142091
0.362135054472
0.38428864432
0.383454790287
0.336039994043
0.259726309984
0.187800668272
0.106770748976
0.0261662452368
0.00117030876355
1.46895407651e-05
2.30337150967e-06
6.10585920212e-07
1.63415646509e-07
0.587938854071
0.552150262098
0.56231839278
0.548236061581
0.503856267134
0.443643633595
0.407703629643
0.412031431995
0.413618252801
0.386589065882
0.33334782824
0.292538880031
0.275963757892
0.21767520376
0.079167092123
0.00572222907808
8.77618748438e-05
1.29772012179e-05
3.35015730423e-06
8.93327884194e-07
0.592504768175
0.560322787287
0.566713689801
0.564756960653
0.537315910841
0.489828126906
0.454044065805
0.436326990648
0.41582378353
0.37843069489
0.323395840137
0.316671645835
0.349175728963
0.313384086492
0.153311331685
0.019196384665
0.000473955972352
5.46715549386e-05
1.60466039073e-05
4.41984426077e-06
0.588118854812
0.561811631394
0.56641366431
0.56674233006
0.552169295625
0.514260702201
0.470893005092
0.438566414773
0.410065231788
0.360568387651
0.304291795463
0.314790987747
0.361543703778
0.34936400067
0.205993410183
0.0392773836184
0.00165378214809
0.000179273156007
5.9289037646e-05
1.82996608159e-05
0.592414627608
0.560921707667
0.567489356196
0.566557819654
0.553885051447
0.515920226596
0.470556975
0.434048373288
0.392680652317
0.331052872261
0.284866503497
0.304224054131
0.361489113408
0.355337077054
0.222972029353
0.0532525889195
0.00342302570125
0.00046693620076
0.000172338471166
6.04772568054e-05
0.58803832116
0.559666514813
0.566567588725
0.567038933159
0.553404401826
0.51275018222
0.463293018337
0.417603715996
0.36164705771
0.295560502066
0.283293850621
0.286841472041
0.351505883183
0.352840294236
0.225386512595
0.0559927851339
0.00490266545764
0.000994926757884
0.000411844071107
0.00016252996739
0.590744085672
0.558843821453
0.567592726881
0.566750687856
0.550669364295
0.501905006987
0.443583475705
0.386650069284
0.321764097049
0.283293850621
0.282679247962
0.283293850621
0.328122493001
0.347569298335
0.223610430241
0.0546353117036
0.00612782511226
0.00183156291513
0.00084418025239
0.000371762481756
0.587899672118
0.558872344105
0.566751588523
0.567261950733
0.54673937281
0.487780015101
0.41683026415
0.350282215208
0.289165682921
0.282892511495
0.283293850621
0.281764795693
0.30405502398
0.34655484082
0.217380130281
0.0498650984062
0.00763772251662
0.00307845966832
0.00155554338235
0.000760985878344
0.589072876662
0.558081908587
0.567712632205
0.566926689779
0.545281166175
0.482832243344
0.402590566347
0.328162744883
0.283230282997
0.283293850621
0.281562330188
0.283293850621
0.303435145821
0.358963875163
0.214985335275
0.0477359708644
0.0103758037058
0.00496009404017
0.00270719188631
0.00145668743726
0.587899672118
0.558743076354
0.566937338948
0.567591438858
0.546472404648
0.484723145019
0.403369785634
0.326341198191
0.283293850621
0.282199444001
0.283293850621
0.281162269756
0.364204931398
0.40377878721
0.223815417775
0.0528488497533
0.0158120577404
0.00799910691376
0.0046163981406
0.00267924978183
0.585122831552
0.558114075418
0.567902221961
0.567166658353
0.549573743471
0.490398503469
0.408702338646
0.328881318356
0.283004662929
0.283293850621
0.281162269756
0.302799873951
0.520196923733
0.477684766384
0.265597826634
0.0779302933934
0.0265377328478
0.0131895305999
0.00777101519981
0.00474478643567
0.582600196539
0.55933991506
0.567180545179
0.567570373465
0.552976240299
0.498189348144
0.418489266732
0.33656387101
0.283293850621
0.281829748418
0.28359904459
0.481041715444
0.569899109704
0.556554549154
0.352356296472
0.126949886908
0.0446874705756
0.0217710469712
0.0126506679543
0.00792099589418
0.58256023112
0.560791598049
0.567576252256
0.567307444163
0.554893192805
0.505277804827
0.430724246927
0.351325803463
0.287635259235
0.291241649778
0.418575354557
0.570516083471
0.567799675681
0.569477561571
0.4248546606
0.182871528781
0.0673724687142
0.0334944987982
0.0192344262572
0.0121308795181
0.582561509704
0.558454831765
0.5673002541
0.567573282848
0.554478044439
0.509998766361
0.443118436835
0.374727050399
0.329167415696
0.37326688702
0.551261106436
0.567799675681
0.571441400698
0.567799675681
0.461420508305
0.225658836529
0.087365688418
0.0452802254544
0.0265055279424
0.0168199379111
0.582502072175
0.554490216288
0.567547374158
0.567281256324
0.55405568424
0.513904616049
0.455581138747
0.401796814923
0.385966712948
0.451956520212
0.567799675681
0.571689399675
0.567799675681
0.569748149663
0.479097287421
0.253496635102
0.101720169313
0.0541577694512
0.0329826091885
0.0212683811309
0.581206481308
0.549731023785
0.567080953974
0.56729912844
0.554035430969
0.518169887897
0.468068210725
0.423945179118
0.418774181863
0.485313401038
0.569961358228
0.567799675681
0.571544374542
0.567799675681
0.490013745454
0.273331501549
0.11247036147
0.0602092232433
0.0381034791083
0.0251094626073
0.577697425689
0.544737301366
0.56323281305
0.567294661173
0.554483767911
0.523118439382
0.479327835148
0.439957032733
0.437615586206
0.504588635502
0.567799675681
0.571815456088
0.567799675681
0.569869048087
0.499164001723
0.291408732798
0.122604455851
0.0649178974796
0.0422830629923
0.0285090718494
0.5751401341
0.543393289383
0.558318831474
0.567305679202
0.556503698466
0.529502658362
0.489655329858
0.453504698426
0.45470417113
0.522428559487
0.570466795407
0.567799675681
0.571605936338
0.567799675681
0.509606087411
0.312450876254
0.135033781359
0.0696119356482
0.046136051724
0.0318794964716
0.575520665842
0.543459436395
0.559258816826
0.571907305153
0.563387071374
0.537732007716
0.498785247251
0.465842090783
0.471869841955
0.54073439494
0.567799675681
0.571783829568
0.567799675681
0.56997276046
0.52261851754
0.339663238219
0.152796089276
0.075468574862
0.0501086482263
0.0355710213435
0.584447920773
0.561221171676
0.57868005123
0.593045154041
0.580064570684
0.547800288967
0.505751322847
0.474855541275
0.484681124429
0.551205781873
0.570308358079
0.567799675681
0.571504547628
0.567799675681
0.536996446644
0.37189634445
0.177582633876
0.0837248667268
0.0544157313757
0.0396416297576
0.643214733079
0.616364568321
0.625363690123
0.631686661742
0.604947658068
0.560125547555
0.511336295647
0.478350931833
0.488467742746
0.553189035818
0.567799675681
0.571353166215
0.567799675681
0.569893710545
0.547633586312
0.400744630092
0.205850713294
0.0949354140952
0.0589921900564
0.0437148323546
0.672555955731
0.666929685315
0.668568874776
0.666083720231
0.630800068185
0.576332553301
0.517495985948
0.478418602581
0.486723911828
0.548320123782
0.569477373879
0.567799675681
0.571045641014
0.567799675681
0.551019502691
0.415500536323
0.227976605795
0.107040100638
0.0633831476035
0.0470175285705
0.669137187308
0.670122189054
0.668767418559
0.669544263888
0.648611563057
0.592807249092
0.522975674687
0.475519717219
0.476661066448
0.530465749847
0.567799675681
0.570481618
0.567799675681
0.569509172627
0.55015125652
0.416610507532
0.23603326184
0.115355462433
0.0665979509299
0.0487953696761
0.674356922356
0.669136348661
0.670564802695
0.668767418559
0.655353231589
0.599709580803
0.523062724593
0.463922474825
0.450807334621
0.495421476141
0.568381069431
0.567799675681
0.570159922482
0.567799675681
0.544119183369
0.408711639326
0.234013082141
0.117282938462
0.0676323592054
0.0490996834584
0.669137187308
0.67071135624
0.668767418559
0.669904047812
0.656195124281
0.597826325771
0.514560916139
0.439465536234
0.409574570149
0.446623131753
0.54781623451
0.568912919999
0.567799675681
0.568418834772
0.52501874312
0.380293610065
0.219955390551
0.114595581535
0.0669332420841
0.0484413935055
0.6742565534
0.66873890002
0.670660624952
0.668767418559
0.654266337151
0.586738978474
0.49164668875
0.402957182638
0.357829346811
0.38448139714
0.493784853294
0.566628935497
0.56833238671
0.56682707255
0.484171630807
0.330930026407
0.191555073278
0.104260925134
0.062776495452
0.0455247778075
0.668808077834
0.670281495939
0.668767418559
0.669771769245
0.6481205808
0.566699760365
0.460267080526
0.361208954472
0.30108905463
0.314949677835
0.412163194408
0.525203000574
0.550528938787
0.525379439632
0.418320945249
0.27454324282
0.157802398387
0.0875334714713
0.0544307638433
0.0398879080231
0.674005100204
0.668767418559
0.670503840736
0.668767418559
0.640420178936
0.547318821318
0.432466847727
0.324723498711
0.248121840278
0.246830189465
0.310695118909
0.425948032903
0.468453809646
0.435637009062
0.341800671063
0.223864816808
0.127044648674
0.0696325280734
0.0442078524632
0.0327306121781
0.668767418559
0.669564331344
0.668767418559
0.669153065409
0.633110800174
0.533405597296
0.413434374946
0.300122141006
0.213808125582
0.19199787775
0.218486127722
0.295155189679
0.343850093578
0.328561949507
0.272384076168
0.184971119546
0.102395017562
0.0541044528108
0.0347005218297
0.0257455679178
0.67283452665
0.668767418559
0.669519117626
0.668542673638
0.624150450658
0.520640699229
0.398425585419
0.282034978155
0.195118300465
0.178060067284
0.178516886624
0.198952329867
0.234654696022
0.245060535254
0.221351142746
0.156785009469
0.0830270171462
0.0421319179701
0.0273055817844
0.0200888372712
0.668767418559
0.663080063578
0.668542673638
0.663048242055
0.605585906418
0.500486555088
0.378426205797
0.261994366447
0.183932015885
0.1781077587
0.177670353373
0.178057075263
0.181435884128
0.19790627565
0.188534803877
0.134806755561
0.0669913534685
0.0336265477472
0.0221971427878
0.0160212748167
0.671574464289
0.641577336425
0.656992360097
0.636622748167
0.569316437153
0.464302146163
0.344846605057
0.232896799881
0.178205946954
0.177727473114
0.178057075263
0.177125077369
0.177593251961
0.178023371206
0.17054461432
0.114408724837
0.0529000407731
0.0278961930163
0.0187921346374
0.0132295076285
0.668542673638
0.602417074068
0.613328894883
0.582271812875
0.509609859812
0.406918051357
0.294267725072
0.197504614464
0.177911283241
0.1781077587
0.177017886392
0.177593251961
0.176970002338
0.1772430629
0.15943459886
0.0924840533214
0.0414726648496
0.0241861345923
0.0164998930714
0.0114218361082
0.669266540907
0.543273609155
0.535550287534
0.4957137764
0.424755675419
0.330677874939
0.233051624105
0.178463327392
0.178161234596
0.177045842523
0.1781077587
0.176970714552
0.183233939273
0.200498411494
0.154322708261
0.0735955936915
0.0347890921082
0.0221401407847
0.0152482770029
0.0105582596351
0.649629534189
0.468859363453
0.447017499471
0.402130967601
0.337525014972
0.25757390366
0.186490178123
0.17826121659
0.177086547229
0.178161234596
0.177005753063
0.205596772018
0.276466735075
0.253111559769
0.15821152159
0.0697392657897
0.033645614659
0.0217336941572
0.0150999065557
0.0104946707213
0.563775554676
0.406969488865
0.402164857625
0.370067968863
0.306563824983
0.233395805221
0.178479210243
0.177441647166
0.17826121659
0.177061394882
0.23372139565
0.359044880736
0.408772992073
0.3396769011
0.211257589632
0.0924894009622
0.0392355875927
0.0232827864088
0.0162404768968
0.0113610461827
0.469913190141
0.413390404467
0.418967899808
0.392066427245
0.326755268134
0.254245988795
0.20735617179
0.204396655447
0.218607668329
0.273323529429
0.380350338533
0.447341027911
0.454616890531
0.431955651788
0.358526222202
0.211191768942
0.0821794644619
0.0337340426999
0.0208323477747
0.0145283808499
0.483644504221
0.507896231027
0.525070690359
0.509915319365
0.457656945091
0.403382904871
0.382707529159
0.394720287287
0.425776316433
0.453879308633
0.460981614293
0.456044211229
0.455293007485
0.458270087004
0.457761563814
0.399779974096
0.227775800115
0.0810943955329
0.0335159127009
0.0210291242692
0.604731234393
0.66171908711
0.674001757033
0.675470291413
0.661287614916
0.643868518758
0.64119055608
0.649429494183
0.657080481474
0.631933099717
0.55650322573
0.483410011644
0.456756494073
0.457182829295
0.4676681728
0.474510063065
0.398152870714
0.206295435916
0.0695577820718
0.0327036049832
0.720538381415
0.731336043865
0.735622368823
0.737931567548
0.736891354385
0.737420986031
0.736166186286
0.736834310799
0.735680755347
0.729148421546
0.683692084136
0.588226236953
0.489802365269
0.457063295707
0.467249739207
0.481957919714
0.461461114632
0.335655846315
0.141946525231
0.0527703813786
0.738007767016
0.736891354385
0.738281352962
0.736891354385
0.739479652763
0.736891354385
0.738744441816
0.736891354385
0.737970966956
0.736891354385
0.73388610587
0.679797012096
0.562660959027
0.473893711967
0.472169134929
0.486848063231
0.475583154195
0.389809776938
0.214581551656
0.0806081096739
0.736891354385
0.737353581362
0.736891354385
0.73906167198
0.736891354385
0.739227776926
0.736891354385
0.738425681597
0.736891354385
0.737423499759
0.736891354385
0.693394899383
0.598289325415
0.504949838077
0.485951084461
0.494607450953
0.481446592246
0.402570019752
0.248978583895
0.105336651997
0.737599753153
0.736891354385
0.737710643821
0.736891354385
0.739462796081
0.736891354385
0.738486533098
0.736891354385
0.737638980971
0.736891354385
0.731580884599
0.684022519804
0.596220044019
0.519012542226
0.500375727101
0.502351722114
0.482436826179
0.401469320477
0.254164758214
0.115931131419
0.736891354385
0.733377233931
0.736891354385
0.738184335406
0.736891354385
0.738570636241
0.736891354385
0.737798764051
0.736891354385
0.73613472075
0.710775722555
0.65320860001
0.577324402958
0.519230162087
0.510274806332
0.506267982798
0.476689229791
0.385875905286
0.244216235017
0.115396560885
0.731229645212
0.721327083782
0.733633460434
0.736891354385
0.739087790659
0.736891354385
0.737870351294
0.736891354385
0.735563700366
0.718007933274
0.670573120696
0.607565544744
0.548309165919
0.518130970673
0.515438381007
0.505584692546
0.459122407069
0.35273240565
0.215970466601
0.10562159794
0.716480799854
0.707542559154
0.724173785448
0.737387861511
0.736891354385
0.738141120986
0.736891354385
0.733875024532
0.714225801236
0.672762643342
0.616716162204
0.561375658538
0.526081483573
0.518807077793
0.516711472357
0.497203334381
0.428113073354
0.308847461438
0.180571595148
0.0896400476051
0.706497374555
0.699380649497
0.716340292604
0.736891354385
0.738782751402
0.736891354385
0.734871098874
0.711630148473
0.66638092013
0.612933914613
0.561403361537
0.525375797165
0.516109817243
0.518624441984
0.514221910338
0.476264738371
0.384642271311
0.261015169783
0.14744216915
0.0753591986898
0.706206753789
0.696271805647
0.712356373914
0.736914678364
0.736891354385
0.737125680432
0.721821486611
0.672683995361
0.611581255096
0.556561174575
0.516813693578
0.504314913694
0.509726241406
0.516366460899
0.502828711025
0.44179740736
0.333842161624
0.215138155922
0.119849592509
0.0648562556123
0.70587830651
0.695072982596
0.711045910841
0.735087138729
0.738317154304
0.734672836021
0.703699875315
0.639859629903
0.570081231809
0.515460280344
0.488414458647
0.491066100719
0.503709822057
0.507617688464
0.480221282044
0.398325449305
0.283487203614
0.175930936858
0.098617285919
0.0574411953846
0.705583416324
0.694872086986
0.7112534933
0.734320521503
0.736891354385
0.729801229574
0.693576356813
0.624929828666
0.54762252541
0.490762019859
0.472163832763
0.479657186625
0.495083634743
0.492627022185
0.450147169414
0.354253541182
0.240318261565
0.145447209882
0.0831903926457
0.0521861545878
0.705441706975
0.694844110141
0.712037954557
0.734603656525
0.738040438254
0.727968796898
0.691898777954
0.621811107042
0.538389898292
0.476710466466
0.460304450881
0.468037813601
0.482114760139
0.474088367102
0.420096775608
0.317143064324
0.207227410555
0.123037934554
0.072188368371
0.0483027227585
0.705452388801
0.694515575309
0.712743109386
0.735290838339
0.736891354385
0.728315614714
0.692299006448
0.621543178913
0.534505981899
0.46740547306
0.448195399029
0.454592095077
0.46597880037
0.45485635008
0.395103812429
0.289543624812
0.183218779142
0.106651988473
0.0641378270613
0.045183426292
0.705005901417
0.692912803054
0.712520294081
0.735153971461
0.737512379443
0.728484956503
0.691950417057
0.620296865672
0.530904423245
0.458616538363
0.433692037982
0.438381293446
0.448091769059
0.436433732938
0.375319501523
0.269209091099
0.165144430675
0.0940390776439
0.0578697319455
0.0423982511098
0.704767363183
0.688218138654
0.710460890247
0.733581968738
0.736891354385
0.726576624182
0.687862810697
0.614763845289
0.523858253701
0.44695544328
0.415684046232
0.418957027479
0.428704472959
0.418212375538
0.357936625523
0.251928143949
0.149594042193
0.0833716140652
0.0525706677919
0.0396542404958
0.703762663138
0.679316752824
0.704311279212
0.728087350642
0.732368788889
0.718379176776
0.675878952652
0.601032140336
0.509515498816
0.429095792192
0.393175393753
0.396057897096
0.407778828132
0.399066868931
0.339821856552
0.233916718044
0.133977355463
0.0734804353344
0.0477321240376
0.0367628852721
0.694847273901
0.664969546116
0.692461914416
0.716933251216
0.71810680131
0.700911280926
0.653134401715
0.576666894233
0.485149418137
0.402703461928
0.366109758615
0.370687983488
0.38641621419
0.378804060768
0.318995352349
0.212893346527
0.117047598844
0.0639518776342
0.0430989959967
0.0336340969771
0.676615049804
0.645366166228
0.675034678801
0.697723698203
0.695727143672
0.672471844838
0.618811151779
0.541208269091
0.450849429211
0.370180746179
0.338782066923
0.347532763198
0.367058161236
0.358515331232
0.295461642421
0.188797290421
0.0992410056224
0.0550461790761
0.0386100120916
0.0302945866201
0.656779946224
0.625786908884
0.65526460322
0.673084769393
0.666476631508
0.63398752388
0.574636165127
0.496591671795
0.409690134477
0.341529661156
0.329162659563
0.332642926017
0.349753385066
0.339653499646
0.271589461514
0.163803164678
0.0823435322796
0.047304434932
0.0343410983592
0.0269188707475
0.644046711267
0.616132340904
0.642198315165
0.651299247613
0.634809463295
0.58949138406
0.524308643921
0.446885762148
0.368366927554
0.329528593895
0.329007222437
0.329162659563
0.337159660667
0.324962666842
0.250682768186
0.140979694238
0.0683455028611
0.0411084047117
0.0304892708991
0.0238264620251
0.632127107353
0.615954093101
0.640824163427
0.641888721997
0.611520907428
0.548597480657
0.474971431907
0.399932280056
0.338303569429
0.32902359766
0.329162659563
0.328734766216
0.330318161169
0.318765164229
0.235899308347
0.122804031915
0.0584463763916
0.0366241934946
0.0273677579997
0.0213745897858
0.622450908613
0.617571564475
0.641393690545
0.641612813659
0.604025376213
0.525981661453
0.44054498957
0.367373211659
0.329222948201
0.329162659563
0.328484322707
0.329162659563
0.329977816853
0.319782957697
0.227885835832
0.111236229539
0.0529494491498
0.0339500002712
0.0252999041718
0.0197812297808
0.62264993269
0.624928732091
0.641410298706
0.641393690545
0.60505264421
0.524722762585
0.432490515464
0.357232847375
0.329162659563
0.328565338482
0.329162659563
0.328248726522
0.343094907635
0.329953293286
0.227568566065
0.10743534786
0.0513107807666
0.0330096488512
0.0243920432213
0.0190328428177
0.622852160503
0.631187044348
0.640972514935
0.641174863338
0.610200949332
0.531886204789
0.437121472134
0.359017871557
0.328865838884
0.329162659563
0.328248726522
0.338055409606
0.389863547219
0.356182468914
0.234821704876
0.109610566555
0.0517601272074
0.0330331628923
0.0242825585215
0.0188854167861
0.623057670038
0.634789649144
0.641355972976
0.640972514935
0.618951113488
0.551754167746
0.457885575223
0.37355682164
0.329162659563
0.328248726522
0.337500484009
0.40794852325
0.44638512776
0.39221449227
0.259586537819
0.123323273425
0.0556850883457
0.0340145381538
0.0245947314292
0.0190081870099
0.62376161272
0.637034375841
0.640581962078
0.641248454556
0.626838060556
0.573997881628
0.489831752378
0.405242259116
0.349163538254
0.349996744595
0.401388473712
0.476918942504
0.483472556923
0.424607399803
0.294534149651
0.149563832526
0.0651121956238
0.0368808761798
0.0258399847394
0.0196547544632
0.625314257668
0.637237440897
0.641384994556
0.640581962078
0.63104273663
0.584750712709
0.508187564037
0.433669003944
0.390275886125
0.400426089849
0.454182781241
0.502066471686
0.500841285319
0.444830637648
0.321518775243
0.175745591796
0.0774174917575
0.0411033316442
0.0279251733028
0.0208963873862
0.62742429413
0.637593816022
0.64017745597
0.640669160427
0.632810869492
0.587106672231
0.509879185085
0.440935052605
0.410990831682
0.423331472352
0.468426471727
0.508607612419
0.507760882123
0.454813326624
0.335945907337
0.193147485338
0.0881113758668
0.0451311572393
0.0300296561292
0.0222850324918
0.635711354363
0.637266543871
0.640695856057
0.64017745597
0.633317214043
0.587481693264
0.50938350353
0.440583599689
0.412863908961
0.425930876558
0.471446492081
0.511784160394
0.511304258559
0.459537584127
0.343022894877
0.203123181538
0.095606183233
0.0481464355529
0.031623844961
0.023433516099
0.636722862454
0.63663769377
0.639795506505
0.640520383835
0.632869541397
0.586948913242
0.507975031439
0.439047892452
0.41309102199
0.426115230774
0.473461896276
0.514770349851
0.514078755466
0.462028630223
0.346707927225
0.209020382493
0.100677196844
0.0502925330228
0.0327467393472
0.0242982728034
0.637712032542
0.636046598745
0.64051270121
0.639795506505
0.632622065387
0.586146999051
0.506106930256
0.436826611656
0.413318135384
0.426479630536
0.476406070182
0.518443746183
0.51694631194
0.463496066964
0.348379788088
0.212610746017
0.104262108588
0.0518963623646
0.0335794709251
0.0249714017998
0.636722862454
0.635612325765
0.639420650235
0.640027856655
0.632822794789
0.585613462112
0.504431642849
0.434979637533
0.413545249145
0.428123354529
0.481342374485
0.523740940371
0.520302404198
0.464394384402
0.348639513414
0.214696224364
0.106810178973
0.0531229814411
0.0342173734597
0.0255126585409
0.638300121713
0.633315750663
0.639828108757
0.639395965736
0.632939830464
0.584907143169
0.502791957709
0.433858690437
0.413774055974
0.432412653932
0.488815360307
0.533253916621
0.524461571867
0.464574788383
0.34845845608
0.215448751404
0.108429777089
0.0539946797606
0.0346700664114
0.0259268224531
0.636722862454
0.629375233202
0.638985263192
0.639619705166
0.632278314556
0.583063128587
0.500319850524
0.432902931564
0.415873751839
0.439631077963
0.499127915468
0.534992893543
0.527023224807
0.464742946159
0.347740678038
0.215363186107
0.109098302499
0.05445852284
0.0349144546513
0.0261942597524
0.638388812391
0.624265965413
0.639046964169
0.638985263192
0.630107181644
0.578800970905
0.496118055334
0.43147930974
0.42009518698
0.446842793028
0.50916412477
0.534684643169
0.527663871067
0.463920114111
0.345627880673
0.214382778914
0.1090461752
0.0545480537388
0.0349757356654
0.0263104510211
0.636722862454
0.62039445348
0.63866393402
0.639153145343
0.627183158158
0.572414709095
0.490131698819
0.429454989135
0.421811632221
0.452430303519
0.516565216603
0.535192352361
0.527482900277
0.461236467073
0.34131803039
0.211510628418
0.108223551405
0.0544058433419
0.0349543584078
0.0263247967432
0.638003996678
0.61731505094
0.638581933138
0.638659595943
0.624475336959
0.565126101342
0.482857973191
0.427096474522
0.422237103027
0.45592153152
0.521566648576
0.534684643169
0.526398161942
0.456529680104
0.334881891831
0.206533306797
0.105953656822
0.0537466969717
0.0347964791955
0.0263005380838
0.636722862454
0.614383265936
0.638247869791
0.638581074591
0.622038135111
0.558063618906
0.475284067546
0.425004224041
0.422588741983
0.458029327722
0.52440899861
0.535290986515
0.524192337058
0.45028907185
0.327113850434
0.200216036173
0.102445972524
0.0525026374154
0.0344297695886
0.0261958286115
0.637846712977
0.610833650311
0.636990490852
0.63820828234