/*--------------------------------*- C++ -*----------------------------------*\
| =========                 |                                                 |
| \\      /  F ield         | OpenFOAM: The Open Source CFD Toolbox           |
|  \\    /   O peration     | Version:  2312                                  |
|   \\  /    A nd           | Website:  www.openfoam.com                      |
|    \\/     M anipulation  |                                                 |
\*---------------------------------------------------------------------------*/
FoamFile
{
    version     2.0;
    format      ascii;
    arch        "LSB;label=32;scalar=64";
    class       volScalarField;
    location    "0.745/cooler";
    object      T;
}
// * * * * * * * * * * * * * * * * * * * * * * * * * * * * * * * * * * * * * //

dimensions      [0 0 0 1 0 0 0];

internalField   nonuniform List<scalar> 
187
(
300
300
300
300
300
300
300
300
300
300
300
300
300
300
300
300
300
300
300
300
300
300
300
300
300
300
300
300
300
300
300
300
300
300
300
300
300
300
300
300
300
300
300
300
300
300
300
300
300
300
300
300
300
300
300
300
300
300
300
300
300
300
300
300
300
300
300
300
300
300
300.000000001
300.000000001
300.000000001
300.000000001
300.000000001
300.000000001
300.000000001
300.000000002
300.000000002
300.000000002
300.000000002
300.000000002
300.000000005
300.000000005
300.000000005
300.000000005
300.000000005
300.00000001
300.00000001
300.000000011
300.000000011
300.000000011
300.000000021
300.000000022
300.000000022
300.000000022
300.000000023
300.000000046
300.000000047
300.000000048
300.000000048
300.000000048
300.000000099
300.000000102
300.000000104
300.000000105
300.000000105
300.000000218
300.000000223
300.000000227
300.000000229
300.000000231
300.000000473
300.000000484
300.000000491
300.000000496
300.000000498
300.000001001
300.00000102
300.000001031
300.000001036
300.000001038
300.000002038
300.000002055
300.000002055
300.000002048
300.000002042
300.000003967
300.00000388
300.000003795
300.000003724
300.000003684
300.000006927
300.000006548
300.000006249
300.000006035
300.000005922
300.000010478
300.000009662
300.000009051
300.000008636
300.000008425
300.000013777
300.000012552
300.00001165
300.000011048
300.000010746
300.000016339
300.000014829
300.000013721
300.000012989
300.000012624
300.000018153
300.000016479
300.000015251
300.000014442
300.000014039
300.000019464
300.000017678
300.000016367
300.000015503
300.000015073
300.000020422
300.000018523
300.000017136
300.000016223
300.000015769
300.000021105
300.000019072
300.000017602
300.000016641
300.000016165
300.000021269
300.000019413
300.000017931
300.000016932
300.000016434
300.000021557
300.000019726
300.00001823
300.000017205
300.00001669
300.000022067
300.000020148
300.000018585
300.000017525
300.000016995
)
;

boundaryField
{
    emptyPatch
    {
        type            empty;
    }
    minY
    {
        type            zeroGradient;
    }
    maxY
    {
        type            zeroGradient;
    }
    maxX
    {
        type            zeroGradient;
    }
    cooler_to_water
    {
        type            compressible::turbulentTemperatureTwoPhaseRadCoupledMixed;
        refValue        nonuniform List<scalar> 
38
(
300
300
300
300
300
300
300
300
300
300
300
300
300
300
300
300
300
300
300.000000003
300.000000021
300.000000038
300.000000051
300.000000064
300.000000085
300.000000171
300.000000999
300.000006572
300.000021388
300.000042647
300.000061704
300.000074237
300.00008016
300.000082214
300.00008258
300.000082496
300.000082577
300.000082661
300.00008355
)
;
        refGradient     uniform 0;
        valueFraction   nonuniform List<scalar> 
38
(
0.0163695515255
0.0163695515255
0.0163695515255
0.0163695515255
0.0163695515255
0.0163695515255
0.0163695515255
0.0163695515255
0.0163695515255
0.0163695515255
0.0163695515255
0.0163695515255
0.0163695515255
0.0163695515255
0.0163695515255
0.0163695515255
0.0163695515255
0.0163695515255
0.0163695515255
0.0163695515255
0.0163695515255
0.0163695515255
0.0163695515255
0.0163695515255
0.0163695515255
0.0163695515255
0.0182210594497
0.0168736323377
0.0167306078
0.0167788177006
0.0169715836944
0.0174106171497
0.0182512278977
0.0195916621876
0.0215760749914
0.016353925241
0.0163095588461
0.0162588695804
)
;
        source          uniform 0;
        value           nonuniform List<scalar> 
38
(
300
300
300
300
300
300
300
300
300
300
300
300
300
300
300
300.000000001
300.000000002
300.000000005
300.00000001
300.000000021
300.000000046
300.000000099
300.000000215
300.000000467
300.000000987
300.000002021
300.000004014
300.00000717
300.000011014
300.000014578
300.000017318
300.000019228
300.000020604
300.000021634
300.000022424
300.00002227
300.000022552
300.000023066
)
;
        kappaMethod     solidThermo;
        Tnbr            T.liquid;
        region          solid;
        otherPhase      gas;
    }
    procBoundary0to1
    {
        type            processor;
        value           nonuniform List<scalar> 6(300 300 300 300 300 300);
    }
    procBoundary0to2
    {
        type            processor;
        value           nonuniform List<scalar> 5(300.000022938 300.000020701 300.000019036 300.00001795 300.000017412);
    }
}


// ************************************************************************* //
