/*--------------------------------*- C++ -*----------------------------------*\
| =========                 |                                                 |
| \\      /  F ield         | OpenFOAM: The Open Source CFD Toolbox           |
|  \\    /   O peration     | Version:  2312                                  |
|   \\  /    A nd           | Website:  www.openfoam.com                      |
|    \\/     M anipulation  |                                                 |
\*---------------------------------------------------------------------------*/
FoamFile
{
    version     2.0;
    format      ascii;
    arch        "LSB;label=32;scalar=64";
    class       volScalarField;
    location    "2.7/water";
    object      Ct2;
}
// * * * * * * * * * * * * * * * * * * * * * * * * * * * * * * * * * * * * * //

dimensions      [0 0 0 0 0 0 0];

internalField   nonuniform List<scalar> 
23300
(
8.96947691467
8.96965968094
8.96996779943
8.97035323258
8.97077837411
8.97121473502
8.9716420371
8.97204688125
8.97242139985
8.97276195576
8.97306793044
8.97334068332
8.97358270838
8.97379702107
8.97398673609
8.97415482159
8.97430396416
8.97443652594
8.97455454074
8.97465974519
8.97475361213
8.97483739354
8.97491215383
8.97497880466
8.97503812909
8.97509080577
8.9751374245
8.97517850207
8.9752144917
8.97524579317
8.97527275826
8.97529569728
8.97531488217
8.97533055069
8.97534290831
8.97535213094
8.97535836613
8.97536173481
8.97536233186
8.97536022682
8.97535546348
8.97534805862
8.97533799872
8.97532526066
8.97530984623
8.97529171357
8.97527079029
8.97524697753
8.97522015176
8.97519016405
8.97515683994
8.97511997747
8.9750793465
8.97503468615
8.97498570388
8.97493207287
8.97487343123
8.97480937968
8.97473948186
8.97466326329
8.97458021402
8.97448979087
8.97439142483
8.97428452969
8.97416851843
8.97404282332
8.97390692814
8.97376040805
8.97360298833
8.97343461785
8.97325557302
8.97306659079
8.97286905698
8.97266526053
8.97245877011
8.97225498833
8.97206202841
8.97189208382
8.97176345171
8.9717012311
8.97172010105
8.97180218313
8.97192693151
8.97207951209
8.97224955387
8.97242964476
8.97261435725
8.97279964199
8.97298245997
8.97316054
8.97333221789
8.97349631515
8.97365204707
8.97379894569
8.97393679563
8.97406557917
8.974185429
8.97429658905
8.97439938072
8.9744941765
8.97458137725
8.97466139566
8.97473464211
8.97480151511
8.97486239316
8.97491762971
8.97496754877
8.97501244231
8.9750525676
8.97508814471
8.97511935212
8.97514631719
8.97516909085
8.97518774693
8.97520233156
8.97521282886
8.97521916063
8.97522118174
8.97521867248
8.97521132632
8.97519873379
8.97518035941
8.97515551122
8.97512329785
8.97508256984
8.97503183638
8.97496914888
8.97489193689
8.97479678348
8.97467913062
8.974532936
8.97435037524
8.97412185416
8.97383688862
8.97348675225
8.97306977136
8.97259900034
8.97210947073
8.97165990133
8.97133289974
8.96605426162
8.96624153053
8.96658611308
8.96704582186
8.96757862228
8.96814717077
8.968721395
8.96927911408
8.96980552249
8.97029205446
8.97073499189
8.97113406556
8.97149122534
8.9718096579
8.97209307851
8.97234526195
8.97256977069
8.9727698177
8.97294822374
8.97310742372
8.97324950432
8.97337624815
8.9734891831
8.97358962359
8.97367871008
8.97375743778
8.9738266836
8.97388722344
8.97393974931
8.97398487852
8.97402316437
8.97405510039
8.97408112721
8.97410163419
8.97411696432
8.97412741454
8.97413323962
8.97413465177
8.9741318238
8.97412488806
8.97411393887
8.97409903088
8.97408018097
8.97405739567
8.97403068717
8.9740000195
8.97396531611
8.97392646259
8.97388331082
8.97383567819
8.97378334955
8.97372607501
8.97366357105
8.97359551802
8.97352156123
8.97344130872
8.97335433323
8.97326017126
8.973158327
8.97304827426
8.97292946438
8.97280133348
8.97266331761
8.97251486926
8.97235548478
8.97218473634
8.97200231919
8.97180810834
8.97160223724
8.97138519361
8.97115794804
8.97092211304
8.97068015347
8.97043564962
8.97019363744
8.96996101409
8.96974698157
8.96956334614
8.96942418772
8.96934342835
8.96932846307
8.96937471232
8.96947175934
8.96960852454
8.96977500926
8.96996275931
8.97016482154
8.9703755462
8.97059037936
8.9708056764
8.97101855335
8.97122676158
8.97142858749
8.97162276418
8.97180839806
8.97198490192
8.97215193893
8.97230937121
8.97245721766
8.97259561546
8.97272478963
8.97284502541
8.97295664741
8.97306000055
8.97315543655
8.97324330108
8.97332392525
8.97339761659
8.97346465302
8.97352527487
8.97357967795
8.97362800245
8.97367032146
8.97370664269
8.97373699573
8.97376133626
8.97377953892
8.97379138766
8.97379656494
8.97379463553
8.97378502697
8.97376700219
8.97373962535
8.97370171471
8.97365178174
8.9735879482
8.97350783836
8.97340843955
8.97328593754
8.97313554976
8.97295143496
8.9727268532
8.97245492201
8.97213051249
8.97175387228
8.9713359165
8.97090300238
8.97049506842
8.97014695239
8.96984041449
8.96828480084
8.9683976013
8.96861137694
8.96890582287
8.96925716638
8.9696419251
8.97003942147
8.97043312098
8.97081102267
8.97116536336
8.97149193418
8.97178922711
8.97205760549
8.97229858517
8.97251428958
8.97270706163
8.97287922517
8.97303294536
8.97317017089
8.97329261505
8.97340177066
8.97349893046
8.97358521902
8.97366161713
8.97372899
8.97378810479
8.97383965064
8.9738842483
8.97392246287
8.97395480757
8.9739817515
8.97400371989
8.97402109918
8.97403423565
8.97404343935
8.97404898232
8.97405110238
8.97405000141
8.97404584929
8.9740387826
8.97402890892
8.97401630624
8.97400102869
8.97398309053
8.97396249004
8.97393920195
8.9739131775
8.97388434282
8.97385260243
8.97381783778
8.97377991027
8.97373865937
8.9736939054
8.97364544766
8.97359306738
8.97353652633
8.97347557056
8.97340993022
8.97333932486
8.97326346551
8.97318206285
8.97309483304
8.97300151071
8.97290186083
8.97279569922
8.97268291369
8.97256349586
8.97243757566
8.97230546916
8.9721677315
8.97202522587
8.97187919967
8.97173137767
8.97158406002
8.97144022774
8.97130362778
8.97117881065
8.97107103668
8.97098591628
8.97092845254
8.97090162691
8.97090538394
8.97093707608
8.97099285145
8.97106857264
8.97116021769
8.97126410342
8.97137696559
8.97149597574
8.97161872033
8.97174317079
8.97186764415
8.97199076742
8.97211143878
8.97222879469
8.97234217529
8.97245109599
8.97255521802
8.97265432514
8.97274829958
8.97283710388
8.97292076201
8.9729993459
8.97307296109
8.97314173713
8.97320581687
8.97326534975
8.97332048364
8.97337135993
8.97341810696
8.97346083625
8.97349963803
8.97353458277
8.97356565336
8.97359282997
8.97361604999
8.97363519854
8.97365009785
8.97366049745
8.97366606117
8.97366635357
8.97366082206
8.97364877704
8.97362936662
8.97360154811
8.97356405403
8.97351535794
8.97345364571
8.97337681435
8.97328253912
8.9731684947
8.97303287682
8.97287545382
8.97269941826
8.9725141725
8.97233857658
8.97220280679
8.97214500683
8.97219814028
8.97236676693
8.96908477915
8.9691688438
8.96932880807
8.9695521043
8.96982250256
8.9701229979
8.97043782297
8.97075373501
8.97106061523
8.97135148972
8.97162216796
8.97187067609
8.97209665034
8.97230078206
8.97248437643
8.97264902659
8.97279640136
8.97292811419
8.97304565858
8.97315037967
8.97324347487
8.97332600332
8.97339890532
8.97346301877
8.97351909837
8.97356782818
8.97360983513
8.97364569567
8.9736759437
8.97370107242
8.97372153848
8.97373776117
8.97375012462
8.97375897616
8.97376462814
8.97376735647
8.97376740298
8.9737649747
8.97376024692
8.97375336327
8.97374443963
8.97373356492
8.9737208083
8.97370617341
8.97368963348
8.97367114959
8.97365066793
8.97362811809
8.97360341486
8.97357645728
8.97354713085
8.97351530686
8.97348084462
8.973443591
8.97340338295
8.97336004751
8.97331340502
8.97326327016
8.97320945638
8.97315177864
8.97309005999
8.973024137
8.97295386959
8.9728791506
8.97279992041
8.97271618238
8.9726280242
8.97253564104
8.97243936549
8.97233969974
8.97223735464
8.97213328966
8.97202875654
8.97192533707
8.97182497194
8.97172996223
8.9716429279
8.97156668777
8.97150402822
8.97145733149
8.97142804294
8.97141665809
8.97142257527
8.9714442526
8.97147980703
8.9715271836
8.9715843215
8.97164925537
8.97172017512
8.97179545289
8.97187365342
8.97195353062
8.97203401985
8.97211422423
8.97219340127
8.97227094645
8.97234637903
8.97241932593
8.9724895085
8.97255672807
8.97262085457
8.97268181419
8.97273958013
8.97279416253
8.97284560123
8.97289395774
8.9729393098
8.97298174507
8.97302135718
8.97305824112
8.97309249138
8.97312420049
8.97315346208
8.97318029248
8.97320466638
8.97322652697
8.97324577624
8.97326226452
8.97327578041
8.97328603908
8.97329267057
8.97329520655
8.97329306759
8.97328555026
8.97327181772
8.97325089638
8.97322168814
8.97318301272
8.97313371043
8.97307285684
8.97300017806
8.97291680061
8.97282651287
8.97273769542
8.97266587405
8.97263622277
8.97268400984
8.97284892017
8.97315775413
8.97359409784
8.96975402927
8.96981897998
8.96994266642
8.97011648823
8.97032870396
8.97056664443
8.970818212
8.97107293764
8.97132255241
8.97156111765
8.97178483336
8.97199166092
8.97218088488
8.97235269701
8.97250785181
8.97264740637
8.97277254196
8.97288445062
8.97298427194
8.97307306216
8.97315178564
8.97322131725
8.97328245184
8.97333591473
8.97338237284
8.97342244333
8.97345670114
8.97348568345
8.97350989309
8.97352979958
8.97354583982
8.97355841733
8.97356790197
8.97357462886
8.97357889842
8.973580976
8.97358109285
8.9735794468
8.97357620421
8.97357150161
8.97356544841
8.97355812923
8.97354960842
8.97353988837
8.97352891805
8.9735166395
8.97350299002
8.97348789767
8.97347128156
8.97345305186
8.97343311078
8.97341135296
8.97338766669
8.97336193452
8.97333403476
8.97330384249
8.9732712316
8.97323607649
8.97319825497
8.97315765114
8.97311415967
8.97306769034
8.97301817439
8.97296557148
8.97290987881
8.97285114129
8.97278946418
8.97272502708
8.97265810033
8.97258906255
8.97251841956
8.97244682279
8.97237508584
8.97230419533
8.9722353123
8.97216975706
8.97210897016
8.97205443982
8.97200758995
8.97196963361
8.97194136808
8.97192311402
8.97191494437
8.97191638697
8.97192657856
8.97194457423
8.97196933416
8.97199980142
8.97203494678
8.97207379877
8.9721154622
8.972159128
8.9722040773
8.97224968111
8.97229539769
8.97234076772
8.97238540876
8.97242900877
8.97247131967
8.9725121505
8.97255136112
8.97258885577
8.97262457741
8.97265850202
8.97269063382
8.97272100048
8.97274964926
8.97277664328
8.97280205872
8.97282598255
8.97284851169
8.97286975352
8.97288982875
8.97290879963
8.97292666176
8.97294338562
8.97295890772
8.97297312112
8.97298586577
8.97299691808
8.97300598082
8.97301267355
8.97301652524
8.97301697112
8.97301335792
8.97300496405
8.97299104689
8.97297093696
8.97294421346
8.97291101592
8.97287257682
8.97283209189
8.97279606122
8.97277617858
8.97279159955
8.97287074809
8.97305035978
8.97336691118
8.97383315379
8.97439857443
8.97021994842
8.97027246164
8.97037235927
8.97051322653
8.97068598104
8.97088069407
8.97108774469
8.97129866626
8.97150663403
8.9717066133
8.97189524856
8.97207059798
8.97223180757
8.9723787941
8.97251197522
8.9726320617
8.97273990985
8.97283642491
8.97292250293
8.97299899996
8.97306671872
8.9731264062
8.97317875653
8.97322441651
8.97326399121
8.97329804902
8.97332712507
8.97335172349
8.9733723182
8.97338935277
8.9734032396
8.97341435882
8.97342305718
8.97342964729
8.97343440719
8.97343758061
8.97343937769
8.97343997631
8.9734395239
8.97343813954
8.97343591632
8.97343292399
8.9734292097
8.97342479976
8.97341961038
8.9734135662
8.9734065954
8.97339862192
8.97338956566
8.97337934281
8.97336786623
8.97335504608
8.97334079044
8.9733250061
8.97330759945
8.97328847759
8.97326754955
8.97324472789
8.97321993046
8.97319308271
8.97316412032
8.97313299248
8.97309966569
8.97306412833
8.97302639593
8.97298651733
8.97294458157
8.97290072564
8.97285514272
8.97280809085
8.97275990113
8.97271098515
8.97266183981
8.97261304857
8.97256527644
8.97251925674
8.97247576667
8.97243558976
8.97239946454
8.9723680219
8.97234173883
8.97232080965
8.9723052752
8.97229519411
8.97229026272
8.97229001353
8.97229397328
8.97230161925
8.97231241608
8.97232583457
8.97234136724
8.97235853802
8.97237690927
8.97239608578
8.97241571659
8.97243549538
8.97245515968
8.97247448934
8.97249330438
8.9725114626
8.97252885687
8.97254541241
8.97256108409
8.97257585374
8.97258972765
8.97260273425
8.972614922
8.97262635766
8.97263712496
8.97264732396
8.97265707131
8.97266650188
8.97267577151
8.97268499037
8.97269419431
8.97270339897
8.97271259169
8.97272172296
8.9727306974
8.97273936463
8.97274751075
8.97275485169
8.97276103053
8.972765622
8.97276814961
8.97276812423
8.97276511829
8.97275889848
8.97274965292
8.97273836719
8.97272742713
8.97272154641
8.97272911392
8.9727639746
8.97284738092
8.9730091401
8.97328538839
8.97370736129
8.97427200084
8.9748943582
8.97056580741
8.97060970951
8.97069312409
8.97081093913
8.97095577104
8.97111950849
8.97129424138
8.97147294797
8.97164990015
8.9718207994
8.97198270406
8.97213383027
8.97227330017
8.97240089321
8.97251683075
8.97262160784
8.97271587062
8.97280033408
8.97287572989
8.97294277683
8.97300216539
8.97305455198
8.97310055769
8.97314077
8.97317574465
8.97320600771
8.97323205653
8.97325436016
8.97327335872
8.97328946258
8.973303051
8.97331447102
8.97332403639
8.97333202716
8.97333868957
8.97334423672
8.97334884965
8.97335267902
8.97335584709
8.97335845012
8.97336056071
8.97336223041
8.97336349171
8.97336436822
8.97336478496
8.97336465113
8.97336388445
8.97336240405
8.97336012965
8.97335698149
8.97335288025
8.97334774732
8.97334150515
8.97333407767
8.97332539086
8.9733153734
8.97330395746
8.9732910797
8.97327668236
8.97326071466
8.97324313439
8.97322390989
8.97320302215
8.97318046749
8.97315626039
8.97313043679
8.97310305761
8.9730742126
8.97304402414
8.97301265103
8.97298029174
8.97294718676
8.97291361945
8.97287991465
8.9728464342
8.97281356871
8.97278172443
8.97275130531
8.97272269008
8.97269620742
8.97267210944
8.97265056021
8.97263155245
8.97261507408
8.97260122705
8.97258984139
8.97258066529
8.97257347451
8.97256801709
8.97256403726
8.97256127808
8.97255949133
8.97255844191
8.97255791221
8.9725577048
8.97255764432
8.97255757857
8.97255737913
8.97255694138
8.97255618439
8.97255505041
8.97255350433
8.97255153293
8.97254914428
8.97254636693
8.97254324935
8.97253985942
8.97253628419
8.97253262983
8.97252902236
8.9725256088
8.97252255965
8.97252007198
8.97251830397
8.97251734367
8.97251726436
8.97251811696
8.97251992241
8.97252266351
8.97252627703
8.97253064695
8.97253560063
8.97254091028
8.97254630414
8.97255149359
8.9725562266
8.97256038305
8.97256413624
8.97256821646
8.97257432871
8.97258579339
8.97260848992
8.97265216475
8.97273206607
8.97287057154
8.97309773198
8.97344793453
8.97394631356
8.97457392553
8.97521429085
8.97082607555
8.97086385284
8.97093558594
8.97103696721
8.97116174454
8.97130304408
8.97145415003
8.97160907842
8.97176291674
8.97191194127
8.97205356221
8.97218616467
8.97230890499
8.97242150819
8.97252409087
8.97261702138
8.97270081613
8.97277606859
8.97284340259
8.97290344436
8.97295680633
8.97300407931
8.97304582868
8.97308259344
8.97311488571
8.97314319083
8.97316796674
8.97318964349
8.97320862193
8.9732252728
8.9732399354
8.97325291688
8.97326449162
8.9732749013
8.9732843554
8.97329303224
8.97330108049
8.97330862115
8.97331574967
8.97332253848
8.97332903935
8.97333528583
8.97334129535
8.97334708297
8.97335260706
8.97335776223
8.97336245873
8.97336661137
8.97337013981
8.97337296746
8.97337502101
8.97337623035
8.97337652845
8.97337585151
8.97337413908
8.97337133436
8.97336738447
8.97336224105
8.97335586065
8.97334820557
8.97333924458
8.97332895399
8.97331731867
8.97330433341
8.97329000428
8.97327435023
8.97325740466
8.97323921719
8.97321985512
8.973199405
8.97317797357
8.97315568832
8.97313269714
8.97310916688
8.97308528051
8.97306123272
8.97303722347
8.97301344987
8.9729900963
8.97296732373
8.97294526011
8.97292399277
8.97290355826
8.97288389458
8.97286497186
8.97284694129
8.97282972437
8.97281317541
8.97279720887
8.97278171328
8.97276658039
8.97275169952
8.97273696432
8.9727222751
8.97270754062
8.97269268027
8.9726776254
8.9726623206
8.97264672456
8.97263081098
8.97261456909
8.97259800437
8.97258113892
8.97256401208
8.97254668087
8.97252922061
8.97251172556
8.97249430985
8.97247710852
8.97246027917
8.97244400405
8.97242849319
8.97241398823
8.97240069627
8.97238876388
8.97237832946
8.97236951605
8.97236242458
8.97235712672
8.97235365841
8.97235201495
8.9723521499
8.97235398062
8.97235740538
8.97236233927
8.97236878001
8.97237692026
8.97238733102
8.97240125123
8.97242103164
8.97245079321
8.97249736273
8.97257151892
8.97268946996
8.97287417192
8.97315532181
8.97356500282
8.97412187156
8.97479131311
8.97542920262
8.97102765014
8.97106096455
8.97112425727
8.97121371838
8.97132387566
8.97144871897
8.97158237966
8.97171962456
8.97185614674
8.97198866548
8.97211487991
8.97223333438
8.97234324618
8.97244433387
8.97253666648
8.97262054356
8.97269640528
8.97276476982
8.972826191
8.97288123205
8.97293044929
8.97297438317
8.97301355305
8.97304845459
8.97307955799
8.97310730695
8.97313211744
8.97315437683
8.97317444264
8.97319264189
8.97320927023
8.97322459182
8.97323883929
8.9732522145
8.97326488939
8.97327700759
8.97328868616
8.97330001775
8.97331107285
8.97332190221
8.97333253916
8.97334300185
8.97335329522
8.97336341158
8.97337336255
8.97338304789
8.97339235971
8.97340121154
8.97340952342
8.97341722147
8.97342423721
8.97343050706
8.97343597182
8.97344057656
8.97344427025
8.97344700587
8.97344874021
8.97344943409
8.97344905236
8.97344756426
8.97344494356
8.97344116909
8.97343622502
8.97343010153
8.97342279522
8.97341430989
8.973404657
8.97339385644
8.97338193693
8.97336893655
8.97335490286
8.97333989291
8.97332397268
8.97330721624
8.97328970417
8.97327152145
8.9732527546
8.97323348823
8.97321380087
8.9731937609
8.97317342231
8.97315282134
8.97313197521
8.97311087776
8.97308944987
8.97306764503
8.97304565159
8.97302343673
8.97300092289
8.97297808839
8.97295489323
8.97293130231
8.97290728115
8.97288279704
8.97285782224
8.97283233433
8.9728063177
8.97277976492
8.97275267772
8.97272506827
8.97269696021
8.97266838987
8.97263940741
8.97261007808
8.97258048347
8.97255072299
8.97252091532
8.9724912002
8.97246174038
8.97243272406
8.97240436773
8.97237691992
8.97235066635
8.97232586411
8.97230271959
8.97228143915
8.97226222203
8.97224525467
8.97223070473
8.97221871612
8.97220940612
8.97220286701
8.97219917554
8.97219841569
8.97220072231
8.97220635763
8.97221583744
8.97223013155
8.97225097184
8.97228131208
8.97232599101
8.97239264615
8.97249288754
8.97264361717
8.97286805342
8.97319520345
8.97365452343
8.9742579377
8.97495547662
8.97557984899
8.97118857498
8.97121857515
8.97127568669
8.97135639505
8.97145577821
8.97156844046
8.97168912264
8.97181314006
8.97193663769
8.9720566759
8.97217118777
8.97227885981
8.97237897993
8.97247128652
8.97255583534
8.97263289341
8.97270285873
8.97276620375
8.97282343644
8.97287507548
8.97292163426
8.97296361157
8.97300148563
8.9730357109
8.97306671567
8.97309490082
8.97312063849
8.97314427142
8.97316611214
8.97318644284
8.97320551516
8.97322355067
8.97324074152
8.9732572516
8.97327321794
8.97328875254
8.97330394427
8.97331886113
8.97333355244
8.97334805123
8.97336237638
8.97337653492
8.97339052438
8.97340432357
8.97341794313
8.97343134732
8.97344441168
8.97345704492
8.97346916627
8.97348070373
8.97349159253
8.97350177402
8.97351119488
8.97351980652
8.97352756462
8.97353442875
8.97354036206
8.97354533113
8.9735493057
8.97355225871
8.97355416616
8.97355500721
8.97355476412
8.97355342251
8.9735509713
8.97354740304
8.97354271388
8.97353690387
8.97352997688
8.97352194081
8.9735128074
8.97350259215
8.97349131391
8.97347899448
8.9734656578
8.97345132922
8.97343603417
8.97341979701
8.97340263938
8.97338457875
8.97336562681
8.97334578833
8.9733250597
8.97330342678
8.97328087632
8.97325731772
8.9732327033
8.97320719754
8.9731808114
8.97315352051
8.97312531709
8.97309619581
8.97306615006
8.97303518275
8.97300329519
8.97297049314
8.97293678748
8.97290219484
8.97286673891
8.97283045178
8.97279337513
8.97275556183
8.9727170774
8.9726780018
8.97263843117
8.97259847996
8.97255828301
8.97251799811
8.9724778086
8.97243792663
8.97239859668
8.97236009998
8.97232276149
8.97228688829
8.9722527433
8.97222059906
8.97219073073
8.97216341157
8.97213890836
8.97211747801
8.97209936686
8.97208481517
8.97207407045
8.97206741547
8.97206521903
8.97206802179
8.97207667411
8.9720925498
8.97211786748
8.9721561592
8.97221292979
8.97229654077
8.97241930651
8.97259865706
8.97285787747
8.97322507149
8.97372684346
8.9743682028
8.97508431074
8.97568938164
8.97132154776
8.97134904545
8.97140158571
8.97147580826
8.97156718511
8.97167076354
8.97178172823
8.97189579945
8.97200946225
8.97212004108
8.97222565828
8.97232512415
8.97241779825
8.97250345202
8.97258214767
8.97265414145
8.97271980995
8.97277959797
8.97283398213
8.97288344744
8.97292847179
8.97296951682
8.97300702197
8.97304140124
8.97307304092
8.97310229859
8.9731295022
8.97315494998
8.97317891025
8.97320162189
8.97322329488
8.97324411131
8.97326422651
8.97328377069
8.97330285046
8.97332155095
8.9733399376
8.97335805847
8.97337594617
8.97339362008
8.97341108824
8.97342834929
8.97344539378
8.97346220257
8.97347877348
8.97349512584
8.97351113566
8.97352670936
8.97354176505
8.97355623222
8.97357004879
8.97358315984
8.97359551633
8.97360707439
8.97361779447
8.97362764081
8.97363658092
8.9736445852
8.97365162653
8.9736576801
8.97366272306
8.97366673447
8.97366969503
8.9736715871
8.97367239447
8.97367210247
8.97367069774
8.9736681683
8.97366450339
8.97365969351
8.97365373016
8.97364660586
8.97363831384
8.97362884797
8.97361820238
8.97360637129
8.97359334852
8.97357912727
8.97356369955
8.97354705582
8.9735291845
8.97351007161
8.97348970016
8.97346805043
8.97344509503
8.97342081349
8.97339512423
8.97336798106
8.97333945455
8.97330963606
8.97327853033
8.97324609975
8.97321237331
8.97317734939
8.97314103865
8.97310345536
8.97306461565
8.97302454163
8.97298326142
8.97294081043
8.97289723288
8.97285258358
8.97280692959
8.97276035244
8.97271295025
8.97266484038
8.97261616214
8.97256707992
8.97251778658
8.97246850739
8.97241950435
8.97237108141
8.97232359361
8.97227739618
8.97223280085
8.97219014024
8.97214976083
8.97211201973
8.97207728174
8.97204591781
8.97201830661
8.97199484194
8.97197594998
8.97196212226
8.97195397303
8.97195233337
8.97195839879
8.97197395369
8.972001702
8.97204573959
8.97211220423
8.97221012426
8.97235243412
8.97255698113
8.97284698381
8.97324949027
8.97378808651
8.97446076667
8.9751884871
8.97577147659
8.97143554885
8.97146112754
8.97151026359
8.97157964782
8.97166503617
8.97176179782
8.97186544348
8.97197199521
8.97207819677
8.97218157908
8.97228041854
8.97237363259
8.97246064946
8.97254127956
8.97261560241
8.97268387593
8.97274646752
8.97280380481
8.97285634139
8.97290453452
8.97294883053
8.97298965615
8.97302741317
8.97306247565
8.97309518829
8.97312586602
8.97315479384
8.97318222738
8.97320839343
8.9732334911
8.97325769284
8.97328114598
8.9733039742
8.97332627931
8.97334814302
8.97336962889
8.97339078417
8.97341164182
8.97343222233
8.9734525356
8.97347258251
8.97349235655
8.97351184466
8.97353102852
8.9735498748
8.97356846761
8.97358671427
8.97360449773
8.97362173852
8.97363836735
8.97365432421
8.973669557
8.97368402004
8.97369767302
8.97371047997
8.97372240868
8.97373342983
8.97374351669
8.97375264446
8.97376079004
8.97376793158
8.97377404832
8.97377912025
8.97378312803
8.97378605267
8.97378787559
8.97378857824
8.97378814224
8.97378654906
8.97378378013
8.97377981653
8.97377463914
8.97376822838
8.97376056431
8.97375162646
8.97374139394
8.97372984527
8.97371695851
8.97370271116
8.97368708018
8.97367004192
8.97365157213
8.97363164575
8.9736102365
8.97358731707
8.97356285537
8.97353681933
8.97350915304
8.97347979761
8.97344872239
8.97341609165
8.97338189385
8.97334610969
8.97330875358
8.97326982793
8.97322933318
8.97318728373
8.97314369484
8.97309858579
8.9730519833
8.97300392207
8.97295444669
8.9729036137
8.97285149401
8.97279817545
8.97274376586
8.97268839633
8.97263222502
8.97257544125
8.9725182702
8.97246097813
8.97240387855
8.97234734371
8.97229177286
8.97223751507
8.97218495301
8.97213449569
8.97208657699
8.97204165441
8.97200020976
8.9719627532
8.97192983379
8.97190206052
8.97188014028
8.97186494129
8.97185759456
8.97185964993
8.97187330892
8.97190176177
8.97194965981
8.9720237519
8.97213369407
8.97229298209
8.97251980193
8.97283720866
8.9732710819
8.97384187267
8.97454054366
8.97527464119
8.97583452923
8.9715370823
8.97156116526
8.97160775123
8.97167350388
8.97175438319
8.97184599254
8.97194408338
8.9720449048
8.97214539968
8.9722432627
8.97233689748
8.97242531474
8.97250800728
8.97258482673
8.97265587565
8.97272142075
8.97278182712
8.97283751109
8.97288890771
8.97293644954
8.97298055326
8.97302161182
8.97305999008
8.97309602292
8.97313001456
8.97316223898
8.97319294065
8.97322233577
8.9732506136
8.97327793803
8.97330444911
8.97333026482
8.97335548277
8.973380182
8.97340442471
8.97342825811
8.97345171607
8.9734748209
8.97349758492
8.97352001213
8.97354209958
8.97356383893
8.97358521773
8.97360622175
8.97362681374
8.97364701575
8.97366687182
8.97368624434
8.97370504739
8.97372320955
8.97374067138
8.97375738257
8.9737732998
8.97378838544
8.97380260632
8.97381593298
8.97382833869
8.97383979905
8.97385029125
8.97385979382
8.97386828606
8.97387574789
8.97388215946
8.973887501
8.97389175256
8.97389489395
8.97389690444
8.97389776284
8.97389744719
8.97389593491
8.97389320251
8.97388922578
8.9738839796
8.9738774381
8.97386957457
8.97386036172
8.97384977154
8.97383777566
8.97382434523
8.97380945124
8.97379306444
8.97377515551
8.97375569492
8.97373465283
8.97371199848
8.9736876998
8.97366172198
8.97363402302
8.9736045746
8.97357328957
8.97354012463
8.97350514605
8.97346841148
8.97342992264
8.97338962909
8.97334756191
8.97330370892
8.9732580659
8.97321064056
8.97316144303
8.97311048993
8.97305780745
8.97300343274
8.97294741665
8.97288982663
8.97283075018
8.97277029865
8.97270861167
8.97264586192
8.97258226077
8.9725180643
8.97245358045
8.97238918286
8.97232530841
8.9722623293
8.97220066513
8.97214077503
8.9720831585
8.9720283563
8.97197695363
8.971929587
8.97188695819
8.97184985926
8.97181921538
8.97179615396
8.97178211283
8.97177900348
8.97178945059
8.97181713292
8.97186725289
8.97194715617
8.97206709938
8.97224109773
8.9724876187
8.97282948261
8.97329131938
8.97389037386
8.97461063231
8.97534709546
8.97588390149
8.97163101768
8.97165391122
8.97169857104
8.97176157284
8.97183902128
8.9719266896
8.97202050754
8.97211689657
8.97221295538
8.97230651127
8.97239607519
8.97248074068
8.97256006153
8.97263393149
8.97270247946
8.97276598513
8.97282481528
8.9728793782
8.97293009271
8.97297736815
8.97302159241
8.97306312521
8.97310229521
8.9731393991
8.97317470228
8.97320844012
8.97324081969
8.97327202165
8.97330220218
8.97333149492
8.97336001279
8.97338784986
8.97341508304
8.97344177382
8.97346796984
8.97349370651
8.97351900842
8.97354389086
8.97356836109
8.97359241971
8.9736160618
8.97363927812
8.97366205597
8.97368437934
8.9737062278
8.97372758932
8.97374855717
8.97376902482
8.97378889442
8.97380809443
8.97382656588
8.97384425956
8.97386113383
8.97387715319
8.97389228668
8.97390650714
8.97391979005
8.97393211311
8.97394345539
8.97395379707
8.97396311883
8.97397140171
8.97397862662
8.97398477432
8.97398982504
8.97399375848
8.97399655353
8.97399818833
8.97399864002
8.97399788485
8.97399589801
8.97399265376
8.9739881253
8.97398228501
8.97397510432
8.97396655399
8.97395660407
8.97394522419
8.97393238352
8.97391805104
8.97390219551
8.97388478563
8.97386578987
8.97384517648
8.97382291306
8.97379896621
8.97377330046
8.97374588006
8.97371665974
8.97368559744
8.97365263289
8.9736177061
8.97358075225
8.97354190788
8.9735011415
8.97345843899
8.97341376483
8.97336712684
8.97331850165
8.97326787708
8.97321525134
8.97316062732
8.97310401713
8.97304544567
8.97298495308
8.97292259856
8.97285846466
8.97279266217
8.97272533573
8.97265667017
8.97258689759
8.97251630512
8.97244524853
8.97237419171
8.9723035189
8.97223367012
8.97216513912
8.97209847625
8.97203429195
8.97197326292
8.97191614241
8.9718637779
8.97181714046
8.97177737233
8.97174586178
8.97172435736
8.97171513742
8.97172125486
8.97174688005
8.97179776506
8.97188184397
8.97200995631
8.97219660801
8.97246050808
8.97282419253
8.97331098888
8.97393490467
8.97467305679
8.97540878339
8.97592314325
8.97172118415
8.97174310538
8.97178628525
8.97184716409
8.9719219471
8.97200652972
8.97209697438
8.97218983546
8.97228233642
8.97237241512
8.97245867621
8.97254028904
8.97261686636
8.97268834509
8.97275488311
8.97281677606
8.97287439511
8.97292814247
8.97297842194
8.97302562026
8.97307009679
8.97311217835
8.97315215794
8.97319029522
8.97322681857
8.97326192729
8.97329579436
8.97332856881
8.97336037819
8.97339133061
8.9734215168
8.97345101182
8.97347987666
8.97350815979
8.97353589844
8.97356312
8.9735898431
8.9736160789
8.97364183205
8.97366710186
8.97369188318
8.97371616742
8.97373994313
8.97376319661
8.97378591261
8.9738080525
8.97382971896
8.97385089026
8.97387144192
8.97389130104
8.97391040784
8.97392871361
8.97394617799
8.9739627671
8.9739784519
8.97399320717
8.97400701042
8.97401984125
8.97403168058
8.97404251027
8.97405231253
8.97406106976
8.97406876406
8.97407537722
8.9740808903
8.97408528373
8.97408853698
8.97409062865
8.97409153627
8.9740912364
8.97408970449
8.97408691504
8.97408284149
8.97407745641
8.97407073147
8.97406263765
8.97405314521
8.97404222393
8.97402984307
8.97401597163
8.97400057819
8.97398363114
8.97396509845
8.97394494767
8.97392314554
8.97389965781
8.97387444871
8.97384747988
8.973818711
8.97378809659
8.97375557919
8.9737211277
8.97368464461
8.97364607327
8.97360539623
8.97356269043
8.97351791203
8.97347102006
8.9734219859
8.97337079415
8.97331740899
8.97326180793
8.97320397912
8.97314391844
8.97308163469
8.97301715414
8.97295052455
8.97288182057
8.97281114996
8.97273866085
8.97266454985
8.97258907155
8.97251253967
8.97243541903
8.97235811846
8.97228107163
8.97220478975
8.97212985588
8.97205693261
8.97198677201
8.97192022986
8.9718582876
8.97180208632
8.97175297961
8.97171261401
8.9716830491
8.97166693268
8.97166774967
8.97169016546
8.97174048302
8.97182722181
8.97196179507
8.97215918301