/*--------------------------------*- C++ -*----------------------------------*\
| =========                 |                                                 |
| \\      /  F ield         | OpenFOAM: The Open Source CFD Toolbox           |
|  \\    /   O peration     | Version:  2312                                  |
|   \\  /    A nd           | Website:  www.openfoam.com                      |
|    \\/     M anipulation  |                                                 |
\*---------------------------------------------------------------------------*/
FoamFile
{
    version     2.0;
    format      ascii;
    arch        "LSB;label=32;scalar=64";
    class       volScalarField;
    location    "0.86/water";
    object      d.gas;
}
// * * * * * * * * * * * * * * * * * * * * * * * * * * * * * * * * * * * * * //

dimensions      [0 1 0 0 0 0 0];

internalField   nonuniform List<scalar> 
1503
(
0.00497115374454
0.0049712152638
0.00497123105781
0.00497124324396
0.00497125359664
0.0049712628535
0.00497127134831
0.00497127907862
0.00497128597851
0.00497129207245
0.00497129738716
0.00497130197217
0.00497130590193
0.00497130924738
0.00497131206743
0.00497131441046
0.00497131631577
0.00497131781393
0.00497131892691
0.00497131967013
0.00497146160243
0.00497149162564
0.00497148891174
0.00497148860011
0.00497149302769
0.00497149709472
0.004971501014
0.00497150486939
0.00497150876981
0.00497151260032
0.00497151613675
0.00497151929493
0.00497152210885
0.00497152461671
0.00497152683169
0.00497152875094
0.00497153036567
0.00497153166618
0.0049715326426
0.00497153328614
0.00497173511644
0.00497176638051
0.00497175428757
0.00497174502899
0.00497174274102
0.00497174104357
0.00497173990189
0.00497173948545
0.0049717397213
0.0049717404874
0.00497174157123
0.00497174272535
0.00497174382296
0.00497174484649
0.00497174579981
0.00497174667344
0.00497174744388
0.0049717480801
0.0049717485485
0.00497174881917
0.00497197135358
0.00497199275744
0.00497197956417
0.00497197343831
0.00497197350198
0.00497197277291
0.00497197132341
0.0049719698683
0.0049719687091
0.00497196791493
0.00497196746465
0.00497196723206
0.00497196707795
0.00497196693978
0.00497196681148
0.00497196669696
0.00497196659059
0.00497196647528
0.00497196632584
0.00497196611694
0.00497220763991
0.00497222177697
0.00497220380081
0.00497219718315
0.00497219778494
0.00497219791823
0.00497219685768
0.00497219529269
0.00497219375893
0.00497219240894
0.00497219127042
0.00497219031144
0.00497218944988
0.00497218862316
0.00497218781714
0.00497218704202
0.00497218630897
0.00497218562113
0.00497218497276
0.00497218435548
0.00497243564733
0.00497244942045
0.00497243025593
0.00497242197248
0.00497242094149
0.00497242080502
0.00497241992924
0.00497241828983
0.00497241643389
0.00497241469079
0.00497241311445
0.00497241169789
0.00497241039362
0.00497240914792
0.00497240793787
0.00497240676871
0.00497240565566
0.00497240461204
0.00497240364506
0.00497240275936
0.00497265475257
0.00497267056979
0.0049726535517
0.00497264595657
0.00497264369322
0.0049726424257
0.00497264114603
0.0049726393806
0.00497263723673
0.00497263511876
0.00497263317125
0.00497263139699
0.00497262977075
0.00497262824942
0.00497262680176
0.00497262542199
0.00497262411955
0.0049726229074
0.00497262179581
0.00497262079389
0.00497287758827
0.00497289567006
0.0049728814234
0.00497287270473
0.00497286813592
0.00497286447771
0.00497286147632
0.00497285883313
0.00497285614698
0.00497285352664
0.00497285117292
0.00497284909362
0.00497284725357
0.00497284559892
0.00497284408028
0.00497284267265
0.00497284137122
0.00497284018014
0.00497283910449
0.00497283815152
0.00497307833016
0.00497309826916
0.00497308622153
0.00497308148266
0.00497307990556
0.00497307760191
0.00497307513637
0.00497307281555
0.00497307048792
0.00497306804262
0.00497306575582
0.00497306377378
0.00497306208905
0.0049730606407
0.00497305936344
0.00497305821685
0.00497305718349
0.00497305625781
0.00497305543802
0.00497305472652
0.00497329879722
0.00497331929422
0.00497330081854
0.00497329291599
0.00497328991468
0.00497328707994
0.00497328438157
0.00497328214007
0.00497328018304
0.00497327821767
0.00497327638832
0.00497327494202
0.00497327389199
0.00497327312357
0.00497327252229
0.00497327202501
0.00497327160137
0.00497327123634
0.00497327092252
0.00497327065535
0.00497347435662
0.00497349975365
0.00497348705378
0.00497348317181
0.00497348394128
0.004973484606
0.00497348475041
0.0049734845166
0.00497348396553
0.00497348319069
0.00497348255886
0.00497348244261
0.00497348279594
0.00497348338639
0.00497348402506
0.0049734846319
0.0049734851813
0.0049734856613
0.004973486066
0.00497348639415
0.0049736676407
0.00497370052723
0.00497368759014
0.00497368220043
0.00497368328551
0.00497368515386
0.0049736863514
0.00497368668885
0.00497368656766
0.0049736864796
0.00497368700789
0.0049736885274
0.00497369078958
0.00497369326074
0.0049736955483
0.00497369754737
0.00497369925606
0.00497370068279
0.00497370184164
0.00497370275121
0.0049738469674
0.00497388758666
0.00497388381322
0.00497388265001
0.00497388698919
0.00497389102146
0.00497389337473
0.00497389393292
0.00497389367746
0.00497389375962
0.00497389506647
0.004973897914
0.00497390192736
0.00497390624257
0.00497391007126
0.00497391326918
0.00497391588246
0.00497391796678
0.00497391957308
0.00497392075273
0.00497406523112
0.0049741108511
0.00497410518673
0.00497410566476
0.00497411128855
0.00497411525643
0.00497411653202
0.00497411579978
0.00497411458784
0.00497411405833
0.00497411482164
0.00497411749764
0.00497412197328
0.00497412703561
0.00497413136834
0.0049741347567
0.00497413733554
0.00497413922135
0.004974140506
0.00497414127426
0.00497431486997
0.00497436060142
0.0049743533023
0.0049743528861
0.00497435761876
0.00497436032016
0.00497435988795
0.0049743578267
0.00497435580127
0.00497435420632
0.00497435304781
0.00497435338232
0.0049743559365
0.00497435951479
0.00497436234142
0.00497436406486
0.00497436497665
0.00497436527564
0.00497436507557
0.00497436446932
0.00497458552264
0.00497463567947
0.00497462786895
0.00497462699588
0.00497463025872
0.00497463051221
0.00497462780766
0.00497462434879
0.00497462109937
0.00497461728491
0.00497461258776
0.00497460828922
0.00497460562979
0.00497460433406
0.00497460284475
0.00497460057074
0.00497459787024
0.00497459502792
0.00497459213083
0.00497458921723
0.00497490450159
0.00497495107653
0.00497493617234
0.00497492865692
0.00497492490693
0.00497491921838
0.0049749122842
0.00497490550245
0.00497489864675
0.00497489077187
0.0049748817362
0.00497487263386
0.00497486378252
0.00497485511771
0.00497484699552
0.00497483909189
0.00497483158413
0.00497482472991
0.00497481854424
0.0049748129448
0.00497519423779
0.00497522503941
0.00497520806584
0.00497519725826
0.00497518951095
0.00497518053162
0.00497517060419
0.00497516046269
0.00497515007625
0.00497513949337
0.00497512912734
0.00497511911314
0.00497510887161
0.00497509635221
0.0049750828862
0.00497507023896
0.00497505880188
0.00497504871727
0.00497503993801
0.00497503228465
0.00497541670536
0.00497542810722
0.0049754057613
0.00497539555097
0.00497538940139
0.00497538218696
0.00497537343549
0.00497536401586
0.00497535496645
0.00497534674875
0.00497533881993
0.00497533094894
0.00497532292961
0.00497531287969
0.00497529946216
0.00497528563079
0.00497527309755
0.00497526215182
0.00497525269437
0.00497524454867
0.00497555668248
0.00497556708238
0.00497554902268
0.00497554463346
0.00497554413635
0.00497554223442
0.0049755384326
0.0049755337133
0.0049755287348
0.00497552410426
0.00497552003229
0.00497551457231
0.00497550830264
0.00497550199335
0.0049754933017
0.00497548265587
0.00497547248658
0.00497546354945
0.00497545575587
0.0049754490105
0.00497572526443
0.00497573469318
0.00497571119242
0.00497570427102
0.00497570266217
0.00497570076192
0.00497569783064
0.00497569418306
0.00497569076086
0.00497568948796
0.00497568839348
0.00497568557682
0.00497568134741
0.00497567632726
0.00497567159135
0.00497566580531
0.00497566020723
0.00497565534558
0.00497565102307
0.00497564719131
0.00497585468011
0.00497587145232
0.00497585665765
0.00497585277622
0.0049758532907
0.00497585335147
0.00497585188483
0.00497584990858
0.00497585072292
0.00497585481747
0.00497585571106
0.00497585526076
0.00497585197327
0.00497584735816
0.00497584449483
0.00497584285657
0.0049758422111
0.0049758422666
0.00497584226653
0.00497584212131
0.00497601143325
0.00497603512218
0.00497602186063
0.004976015796
0.00497601443278
0.00497601307771
0.00497601123998
0.00497601186019
0.00497601896194
0.00497602275207
0.00497602517227
0.00497602664347
0.00497602538607
0.00497602187403
0.00497601989229
0.00497602113747
0.00497602488857
0.00497602963842
0.00497603385553
0.004976037373
0.00497615919466
0.00497618619606
0.00497617277991
0.0049761694527
0.00497617084698
0.00497617220733
0.00497617445282
0.00497618279726
0.00497619233375
0.0049761990934
0.00497620130145
0.00497620466409
0.00497620726885
0.00497620543746
0.00497620383329
0.00497620676845
0.00497621392656
0.00497622236254
0.00497622988527
0.00497623631389
0.00497634973316
0.00497637881845
0.00497635656301
0.00497635015332
0.00497635067448
0.00497635270039
0.00497635861156
0.00497637084208
0.0049763825577
0.00497638559184
0.00497639168543
0.00497639795446
0.00497640282706
0.00497640500857
0.00497640218995
0.00497640515985
0.00497641390081
0.00497642423139
0.00497643349394
0.00497644150239
0.0049765262353
0.00497655985063
0.00497653990747
0.00497653598768
0.00497654011808
0.00497654689742
0.00497655951309
0.00497657650115
0.00497658293808
0.00497659212057
0.00497659900655
0.00497660916545
0.00497662649885
0.00497662225304
0.0049766173333
0.00497661893107
0.00497662662393
0.00497663659992
0.00497664588898
0.00497665402265
0.00497672196928
0.00497676470118
0.00497674547383
0.00497674210011
0.00497674883882
0.00497675967147
0.0049767762939
0.00497678909888
0.00497680189503
0.00497680998785
0.00497682111977
0.00497685092921
0.00497685057351
0.00497684472239
0.0049768412484
0.00497684232222
0.00497684835063
0.00497685724037
0.00497686590869
0.0049768733785
0.00497692215057
0.00497697367339
0.00497696325451
0.00497696324662
0.00497697276701
0.00497698578904
0.00497700162852
0.00497701897051
0.00497702798537
0.0049770405528
0.00497707335172
0.00497707769656
0.00497707498271
0.00497707585164
0.00497707497111
0.00497707496457
0.0049770781948
0.00497708526765
0.0049770929229
0.00497709919698
0.00497715324398
0.00497721068712
0.00497720030666
0.0049772030659
0.00497721383922
0.00497722672457
0.00497724428226
0.00497725899481
0.00497727580058
0.00497730679627
0.00497731553697
0.00497731471931
0.00497731835343
0.00497731934448
0.00497731973899
0.00497731657179
0.00497731716401
0.00497732175322
0.00497732763794
0.00497733187198
0.00497740951449
0.00497747795301
0.00497747037851
0.00497747213799
0.00497748230683
0.00497749697027
0.00497751762285
0.00497754088119
0.00497756461707
0.00497757340308
0.00497757375599
0.00497757592479
0.00497757706035
0.00497757854899
0.0049775748997
0.00497757156776
0.00497756952284
0.00497756975288
0.00497757161557
0.00497757203385
0.004977768857
0.00497785345125
0.00497783769279
0.00497783192412
0.00497783477379
0.00497784466775
0.00497785849476
0.00497786761364
0.00497786658225
0.00497786124483
0.00497785788965
0.00497785534763
0.00497785406633
0.0049778509645
0.00497784719082
0.00497784029902
0.00497783481177
0.00497782946844
0.00497782440884
0.00497781868543
0.00497830926087
0.00497837771819
0.00497834023868
0.00497831452665
0.00497829029882
0.00497827019325
0.0049782510995
0.00497822865325
0.0049782046448
0.00497818376756
0.00497816722826
0.00497815474429
0.00497814347816
0.00497813431368
0.00497812391287
0.00497811393924
0.00497810516827
0.00497809498986
0.00497808154462
0.0049780678254
0.00497878552578
0.00497879150074
0.00497876304181
0.00497874211179
0.0049787148183
0.0049786773132
0.00497863517936
0.00497859321448
0.00497855359615
0.00497851737311
0.00497848648774
0.00497845874046
0.00497843338387
0.00497841211487
0.00497839496303
0.00497838157905
0.00497836960018
0.00497835566245
0.00497833506006
0.00497831278306
0.00497897446858
0.00497896611042
0.00497895219138
0.00497894803474
0.00497894407793
0.00497893047923
0.00497890310216
0.00497886823074
0.00497883138817
0.00497879505522
0.00497876037425
0.00497872709876
0.00497869527752
0.004978667106
0.00497864523578
0.00497862940871
0.00497861497756
0.00497859784877
0.00497857385629
0.00497854493476
0.00497909577038
0.00497907831028
0.00497906225853
0.00497905813279
0.00497906034362
0.00497906205039
0.00497905564833
0.00497903908989
0.00497901608083
0.00497898970181
0.00497896208944
0.00497893432091
0.00497890617792
0.00497887999021
0.00497885871431
0.00497884243912
0.00497882554636
0.00497880723578
0.00497878509282
0.0049787550994
0.0049791955978
0.00497917923506
0.00497916254571
0.00497915731509
0.00497915710657
0.00497916010228
0.0049791609458
0.00497915458541
0.00497914223786
0.00497912595118
0.00497910798524
0.00497908868749
0.00497906804977
0.00497904793943
0.00497903102128
0.00497901617784
0.00497899907883
0.00497898245606
0.00497896416744
0.00497893862316
0.00497929247082
0.0049792763693
0.00497926025041
0.00497925404208
0.00497925272902
0.00497925392007
0.00497925427094
0.00497925016536
0.00497924203994
0.00497923208399
0.00497922207201
0.00497921089569
0.00497919673942
0.00497918345351
0.00497917193719
0.00497916101021
0.00497914767267
0.0049791327265
0.00497911703676
0.0049790977658
0.00497936054657
0.00497935164715
0.00497934106724
0.00497933670793
0.00497933621688
0.00497933685186
0.00497933735639
0.00497933500652
0.00497933018974
0.00497932499714
0.00497932118273
0.00497931518566
0.00497930735952
0.00497929908211
0.00497929346904
0.00497928928156
0.00497928019559
0.0049792663148
0.00497925240793
0.00497923878059
0.00497132004556
0.00497132006887
0.00497131978275
0.00497131922639
0.00497131842723
0.00497131740325
0.0049713161645
0.00497131471462
0.00497131305196
0.00497131117044
0.00497130905956
0.00497130670311
0.00497130407542
0.00497130113548
0.00497129782718
0.00497129411905
0.00497129006335
0.00497128557193
0.00497127950068
0.00497121839251
0.00497153358869
0.00497153356045
0.00497153324015
0.00497153266848
0.00497153187639
0.0049715308886
0.00497152972514
0.00497152840303
0.00497152693705
0.00497152533934
0.00497152361726
0.00497152177001
0.00497151978604
0.00497151765041
0.00497151538003
0.00497151307146
0.00497151084231
0.00497150866163
0.004971506236
0.00497150610854
0.00497174887963
0.00497174873031
0.00497174838767
0.00497174788032
0.00497174723622
0.00497174648239
0.00497174564343
0.00497174474139
0.00497174379474
0.00497174281665
0.00497174181326
0.00497174078425
0.00497173973034
0.00497173867485
0.00497173769249
0.0049717368937
0.00497173633328
0.00497173592441
0.00497173549203
0.00497173716588
0.0049719658499
0.00497196552678
0.00497196514002
0.00497196469632
0.00497196420939
0.00497196369462
0.00497196316588
0.004971962634
0.00497196210528
0.00497196158046
0.00497196105557
0.00497196052669
0.0049719600011
0.00497195951257
0.00497195912151
0.00497195886729
0.00497195869514
0.00497195844626
0.00497195811971
0.00497195958411
0.00497218379264
0.00497218329682
0.00497218284348
0.00497218241876
0.00497218202013
0.00497218164719
0.00497218129913
0.00497218097308
0.0049721806631
0.00497218036045
0.00497218005626
0.00497217974761
0.00497217944677
0.00497217918731
0.00497217900974
0.00497217891361
0.00497217881483
0.00497217862318
0.00497217851251
0.00497217978024
0.00497240199569
0.00497240137513
0.00497240086293
0.00497240043251
0.0049724000689
0.00497239975976
0.00497239949354
0.00497239925828
0.00497239904123
0.00497239883005
0.00497239861619
0.00497239840048
0.00497239819917
0.0049723980433
0.00497239795668
0.00497239791143
0.00497239781381
0.00497239766466
0.00497239766917
0.00497239864552
0.00497261994944
0.00497261928352
0.00497261875552
0.0049726183334
0.00497261799483
0.00497261772091
0.00497261749453
0.00497261729959
0.00497261712113
0.00497261694705
0.00497261677135
0.00497261659852
0.00497261644649
0.00497261634097
0.00497261628914
0.00497261624248
0.00497261612664
0.00497261603197
0.00497261610262
0.00497261684795
0.00497283736394
0.00497283675493
0.00497283628244
0.00497283591351
0.00497283562409
0.00497283539382
0.00497283520467
0.00497283504048
0.00497283488749
0.00497283473612
0.00497283458382
0.00497283443809
0.00497283431691
0.00497283423934
0.00497283419748
0.00497283413159
0.00497283401284
0.00497283397725
0.00497283407102
0.0049728346439
0.00497305415227
0.0049730537185
0.00497305338713
0.00497305313084
0.00497305293014
0.00497305276849
0.00497305263137
0.00497305250614
0.00497305238289
0.00497305225617
0.00497305212731
0.00497305200621
0.00497305190985
0.00497305184995
0.00497305180538
0.00497305171763
0.00497305161529
0.0049730516286
0.00497305172244
0.00497305217338
0.00497327044971
0.00497327030294
0.00497327018851
0.00497327009492
0.00497327001475
0.00497326994102
0.00497326986703
0.00497326978688
0.00497326969662
0.004973269596
0.00497326949033
0.00497326939136
0.00497326931422
0.00497326926279
0.00497326920579
0.00497326910123
0.00497326902745
0.00497326907248
0.00497326915753
0.0049732695225
0.00497348665604
0.00497348685112
0.00497348697883
0.00497348705444
0.00497348709006
0.0049734870934
0.00497348706911
0.00497348702022
0.00497348694994
0.00497348686349
0.00497348676974
0.00497348668144
0.00497348661081
0.00497348655369
0.00497348647332
0.00497348635803
0.00497348631333
0.00497348637234
0.00497348644636
0.00497348675049
0.00497370342856
0.00497370389305
0.00497370418477
0.00497370435282
0.00497370443275
0.00497370444902
0.00497370441844
0.004973704353
0.00497370426237
0.00497370415612
0.00497370404522
0.00497370394188
0.00497370385389
0.00497370376902
0.00497370365165
0.00497370352732
0.00497370350154
0.00497370355952
0.00497370362121
0.00497370388142
0.00497392154719
0.00497392201652
0.00497392224799
0.00497392232036
0.00497392228813
0.00497392218817
0.0049739220454
0.004973921877
0.00497392169569
0.00497392151219
0.00497392133671
0.00497392117834
0.00497392103837
0.00497392089686
0.004973920727
0.00497392058856
0.00497392056475
0.00497392060967
0.00497392065662
0.00497392088357
0.00497414160438
0.0049741416097
0.0049741414123
0.00497414109863
0.00497414072525
0.00497414032835
0.00497413993069
0.00497413954652
0.00497413918507
0.00497413885293
0.00497413855535
0.00497413829483
0.00497413806381
0.00497413783559
0.00497413759916
0.00497413743653
0.00497413739642
0.00497413741894
0.00497413744797
0.0049741376477
0.00497436356692
0.00497436252654
0.00497436146757
0.00497436044394
0.00497435948567
0.00497435860758
0.00497435781515
0.00497435710841
0.00497435648472
0.00497435594028
0.00497435547062
0.00497435506815
0.00497435471443
0.00497435437795
0.00497435406771
0.00497435387123
0.00497435380098
0.00497435379532
0.00497435380408
0.00497435397972
0.00497458639386
0.00497458382587
0.00497458157307
0.00497457960934
0.00497457790641
0.00497457643607
0.00497457517151
0.00497457408817
0.00497457316421
0.0049745723804
0.00497457171906
0.00497457116019
0.00497457067377
0.0049745702269
0.0049745698487
0.00497456961607
0.0049745695114
0.00497456947735
0.00497456946635
0.00497456961996
0.00497480798686
0.00497480379324
0.00497480031688
0.00497479742218
0.00497479500465
0.00497479298198
0.00497479128825
0.00497478987025
0.00497478868468
0.00497478769581
0.00497478687252
0.00497478618254
0.0049747855859
0.00497478505343
0.00497478463053
0.00497478437236
0.00497478424137
0.00497478418622
0.0049747841605
0.00497478429478
0.00497502575664
0.00497502041726
0.00497501611412
0.00497501261725
0.00497500975769
0.0049750074083
0.00497500547174
0.00497500387242
0.00497500255096
0.00497500145974
0.00497500055801
0.00497499980467
0.00497499915413
0.00497499858745
0.0049749981601
0.00497499790119
0.00497499776394
0.00497499770271
0.00497499767219
0.00497499779177
0.00497523770862
0.00497523220324
0.00497522782962
0.00497522432224
0.00497522148799
0.00497521918353
0.00497521730096
0.00497521575803
0.00497521449127
0.00497521345045
0.00497521259245
0.00497521187318
0.00497521124843
0.00497521071606
0.00497521033485
0.0049752101101
0.00497520999461
0.00497520994774
0.00497520992591
0.00497521003766
0.00497544336255
0.00497543884553
0.00497543528079
0.00497543244177
0.00497543016223
0.00497542831869
0.00497542681884
0.00497542559306
0.00497542458829
0.00497542376257
0.00497542307851
0.00497542249599
0.00497542198076
0.00497542155247
0.00497542126736
0.00497542111359
0.00497542104918
0.00497542103816
0.00497542103936
0.00497542115176
0.00497564396091
0.00497564138242
0.00497563935455
0.00497563774677
0.0049756364604
0.00497563542148
0.00497563457509
0.00497563388043
0.00497563330683
0.00497563282944
0.00497563242318
0.00497563205836
0.00497563171933
0.00497563144928
0.00497563129784
0.00497563124431
0.00497563125446
0.0049756312968
0.00497563133298
0.00497563145475
0.00497584195633
0.0049758418276
0.0049758417323
0.00497584166262
0.00497584160815
0.00497584156022
0.00497584151324
0.00497584146406
0.00497584141077
0.00497584135002
0.00497584127254
0.00497584116423
0.00497584103498
0.00497584094916
0.00497584094786
0.00497584100868
0.00497584110534
0.00497584121042
0.0049758412884
0.00497584142691
0.00497604027393
0.00497604259872
0.00497604443867
0.00497604590646
0.00497604708009
0.00497604801715
0.00497604876213
0.00497604934983
0.00497604980679
0.00497605015049
0.00497605038789
0.00497605052401
0.00497605059773
0.00497605068865
0.00497605082896
0.00497605099939
0.0049760511801
0.00497605134698
0.0049760514669
0.00497605162678
0.00497624168134
0.0049762459914
0.00497624940216
0.0049762521184
0.00497625428812
0.00497625602234
0.00497625740609
0.00497625850452
0.0049762593663
0.00497626002486
0.00497626050145
0.00497626082194
0.00497626105316
0.00497626128163
0.0049762615314
0.00497626178814
0.00497626203627
0.00497626225372
0.00497626240893
0.00497626259131
0.00497644827114
0.0049764537436
0.00497645808963
0.00497646155381
0.00497646431997
0.00497646652897
0.00497646828919
0.00497646968296
0.0049764707708
0.00497647159497
0.00497647218797
0.00497647259628
0.00497647290916
0.0049764732113
0.00497647351981
0.00497647382459
0.004976474112
0.00497647436036
0.00497647453855
0.00497647474094
0.00497666100374
0.00497666670852
0.00497667126123
0.00497667489105
0.00497667778178
0.00497668007943
0.00497668189765
0.0049766833221
0.00497668441469
0.00497668521993
0.00497668577873
0.00497668615621
0.00497668645528
0.00497668675146
0.0049766870558
0.00497668736032
0.004976687651
0.0049766879048
0.0049766880897
0.00497668830646
0.00497687973645
0.00497688491762
0.00497688902914
0.00497689227374
0.00497689482195
0.00497689681265
0.00497689835374
0.00497689952466
0.00497690038141
0.00497690096638
0.0049769013271
0.00497690154352
0.00497690172202
0.00497690192371
0.00497690215384
0.00497690240377
0.00497690265698
0.00497690288722
0.00497690306002
0.00497690328298
0.00497710425245
0.00497710822264
0.00497711126755
0.00497711357505
0.00497711530123
0.00497711657201
0.00497711748212
0.00497711809748
0.00497711846253
0.00497711861432
0.00497711860458
0.00497711852192
0.00497711846552
0.00497711847874
0.00497711856011
0.00497711869732
0.00497711886932
0.00497711904472
0.00497711918497
0.00497711940378
0.00497733468877
0.00497733656199
0.00497733777239
0.00497733848933
0.00497733884127
0.00497733892704
0.00497733881509
0.0049773385469
0.00497733814748
0.0049773376433
0.00497733708509
0.0049773365605
0.00497733615096
0.00497733587944
0.0049773357356
0.00497733570033
0.00497733574597
0.00497733583419
0.00497733592053
0.00497733612302
0.00497757108052
0.00497756959383
0.00497756797049
0.00497756630279
0.00497756464405
0.0049775630312
0.0049775614806
0.00497755999063
0.00497755855414
0.00497755717764
0.00497755590145
0.00497755479942
0.0049775539252
0.00497755327896
0.0049775528383
0.00497755257438
0.004977552451
0.00497755242125
0.00497755243307
0.00497755260581
0.0049778121219
0.00497780585045
0.00497780032624
0.00497779547
0.00497779118664
0.00497778740084
0.00497778404222
0.00497778104259
0.0049777783467
0.00497777592872
0.00497777380606
0.00497777202469
0.00497777060243
0.00497776951451
0.00497776872341
0.00497776818833
0.00497776786311
0.00497776769128
0.00497776761205
0.00497776774187
0.00497805423158
0.00497804211687
0.00497803192809
0.00497802334091
0.00497801604489
0.00497800980653
0.00497800443842
0.00497799978621
0.00497799573302
0.00497799220927
0.0049779891975
0.00497798670415
0.00497798470699
0.00497798315566
0.00497798199596
0.00497798117426
0.00497798063415
0.00497798030983
0.00497798013162
0.00497798020789
0.00497829173879
0.00497827358078
0.00497825863874
0.00497824631548
0.00497823605137
0.00497822743211
0.00497822014054
0.00497821392935
0.00497820861505
0.00497820407888
0.00497820026168
0.00497819712507
0.00497819460803
0.00497819263685
0.00497819114166
0.0049781900572
0.00497818931821
0.00497818885128
0.0049781885791
0.00497818859656
0.00497851764408
0.00497849452404
0.00497847571959
0.00497846039851
0.00497844778603
0.00497843730929
0.00497842853932
0.00497842114972
0.00497841489963
0.00497840962649
0.00497840523184
0.00497840163612
0.00497839874715
0.00497839647382
0.00497839473476
0.00497839345658
0.00497839256835
0.00497839199238
0.00497839164663
0.00497839160764
0.00497872508104
0.00497869959869
0.00497867890883
0.00497866210489
0.0049786483378
0.00497863696277
0.00497862749608
0.00497861957073
0.0049786129145
0.00497860733949
0.00497860272102
0.00497859895106
0.00497859591946
0.00497859352693
0.00497859168752
0.00497859032514
0.0049785893678
0.00497858873808
0.00497858835339
0.00497858826884
0.00497891046644
0.00497888597311
0.00497886594718
0.00497884959706
0.00497883618344
0.00497882510936
0.00497881591287
0.00497880823715
0.00497880181448
0.00497879645839
0.00497879203777
0.00497878843431
0.0049787855355
0.00497878324469
0.00497878147936
0.00497878016704
0.0049787792399
0.00497877862575
0.00497877824618
0.00497877813431
0.00497907493574
0.00497905437736
0.00497903734007
0.00497902326413
0.00497901164305
0.00497900202639
0.00497899403799
0.00497898737533
0.00497898180897
0.00497897717992
0.00497897337049
0.00497897027023
0.00497896777851
0.00497896581107
0.00497896429622
0.00497896317089
0.00497896237619
0.00497896184964
0.0049789615216
0.0049789614061
0.00497922289189
0.0049792082076
0.00497919581242
)
;

boundaryField
{
    emptyPatch
    {
        type            empty;
    }
    minY
    {
        type            calculated;
        value           nonuniform List<scalar> 
40
(
0.0049710651425
0.0049711196759
0.00497112770234
0.00497113755428
0.00497114724652
0.00497115636777
0.00497116483968
0.00497117256638
0.00497117946545
0.00497118555886
0.00497119087312
0.00497119545774
0.00497119938716
0.00497120273233
0.00497120555213
0.00497120789497
0.00497120980011
0.00497121129814
0.00497121241103
0.00497121315418
0.00497121352958
0.00497121355289
0.00497121326679
0.00497121271048
0.00497121191139
0.00497121088749
0.00497120964885
0.0049712081991
0.00497120653658
0.00497120465522
0.00497120254452
0.00497120018827
0.00497119756081
0.00497119462112
0.00497119131311
0.00497118760529
0.00497118354994
0.0049711790589
0.00497117298817
0.00497111188524
)
;
    }
    maxY
    {
        type            calculated;
        value           nonuniform List<scalar> 0();
    }
    maxX
    {
        type            calculated;
        value           nonuniform List<scalar> 
37
(
0.00497121839251
0.00497150610854
0.00497173716588
0.00497195958411
0.00497217978024
0.00497239864552
0.00497261684795
0.0049728346439
0.00497305217338
0.0049732695225
0.00497348675049
0.00497370388142
0.00497392088357
0.0049741376477
0.00497435397972
0.00497456961996
0.00497478429478
0.00497499779177
0.00497521003766
0.00497542115176
0.00497563145475
0.00497584142691
0.00497605162678
0.00497626259131
0.00497647474094
0.00497668830646
0.00497690328298
0.00497711940378
0.00497733612302
0.00497755260581
0.00497776774187
0.00497798020789
0.00497818859656
0.00497839160764
0.00497858826884
0.00497877813431
0.0049789614061
)
;
    }
    water_to_heater
    {
        type            calculated;
        value           nonuniform List<scalar> 
61
(
0.00497115373843
0.00497143063802
0.00497147185281
0.00497171441706
0.00497175564115
0.00497196092237
0.00497200215475
0.00497220748288
0.00497243545959
0.00497261959244
0.00497266617693
0.00497285400095
0.00497290066224
0.00497306642418
0.00497311287871
0.00497329847149
0.00497347399527
0.00497363220567
0.00497367892762
0.00497382327821
0.00497386979828
0.00497405308258
0.00497409982782
0.00497431437319
0.00497458500181
0.00497486738189
0.00497491613337
0.00497517149382
0.00497521574317
0.00497540588676
0.0049754464529
0.00497555596938
0.0049757245198
0.00497582382459
0.00497586391805
0.00497599033817
0.0049760308951
0.00497614831004
0.00497618841161
0.00497634884253
0.0049765253023
0.00497669054232
0.00497673115823
0.00497690091559
0.00497694137624
0.00497714204435
0.00497718267499
0.00497740846241
0.00497776782648
0.00497827183412
0.00497832029636
0.00497876430964
0.00497880431569
0.00497896460814
0.00497899885784
0.00497909446071
0.00497919424522
0.00497926503525
0.00497929978203
0.00497934208578
0.00497937616162
)
;
    }
    procBoundary2to3
    {
        type            processor;
        value           nonuniform List<scalar> 
41
(
0.00497944428396
0.00497943443564
0.00497942013931
0.00497941505361
0.00497941378205
0.00497941425401
0.00497941481701
0.00497941368989
0.00497941094078
0.00497940917827
0.00497941081784
0.00497941082517
0.00497940671204
0.00497940419711
0.00497940485814
0.00497940627908
0.00497940229239
0.00497938985708
0.00497937803324
0.00497936910818
0.00497918537099
0.00497917664928
0.00497916939761
0.00497916336302
0.00497915832608
0.00497915412037
0.00497915063356
0.00497914777638
0.00497914546046
0.00497914360737
0.0049791421523
0.00497914103982
0.00497914022062
0.00497913964832
0.00497913927336
0.00497913903826
0.00497913894208
0.0049793602774
0.00497935223873
0.00497918537099
0.00497934534991
)
;
    }
}

