/*--------------------------------*- C++ -*----------------------------------*\
| =========                 |                                                 |
| \\      /  F ield         | OpenFOAM: The Open Source CFD Toolbox           |
|  \\    /   O peration     | Version:  2312                                  |
|   \\  /    A nd           | Website:  www.openfoam.com                      |
|    \\/     M anipulation  |                                                 |
\*---------------------------------------------------------------------------*/
FoamFile
{
    version     2.0;
    format      ascii;
    arch        "LSB;label=32;scalar=64";
    class       volScalarField;
    location    "0.165/water";
    object      k.gas;
}
// * * * * * * * * * * * * * * * * * * * * * * * * * * * * * * * * * * * * * //

dimensions      [0 2 -2 0 0 0 0];

internalField   nonuniform List<scalar> 
1497
(
0.0585447824024
0.0406111367297
0.0279317873725
0.0194248245157
0.0141558026301
0.011064876262
0.00918029471966
0.00786625062693
0.00679794988047
0.00581365692566
0.00481755003069
0.00364019077561
0.00228425648657
3.21051051635
1.56602139522
0.739566586375
0.382193568575
0.226112988623
0.15082316515
0.106538261626
0.0755091001693
0.0519425127328
0.034349032185
0.022493604137
0.0155048791092
0.0116370659977
0.00941821974581
0.00795842711094
0.00680919505519
0.0057334906737
0.00459424084565
0.00327073773613
0.00186031480759
4.39327985765
1.79704465965
0.838296790609
0.432850208602
0.2579862599
0.174801547495
0.126337433597
0.0915623359571
0.0635254960855
0.0411145266977
0.0255422025579
0.016836230695
0.0122229103186
0.00967242754654
0.00804075203181
0.00677789221721
0.00559907729452
0.00432239588283
0.00286345005991
0.0014552656827
4.7245320537
1.87768433258
0.881770870488
0.455903094297
0.271521261214
0.185918502029
0.137636167051
0.102935673645
0.0728237274287
0.0464215988875
0.0271924661408
0.0174882392062
0.0125633083361
0.00986648525202
0.00813953911322
0.00677311966927
0.00548313253439
0.00405210457195
0.0024692984232
0.00111518169359
4.62108504405
1.86461470116
0.870045325901
0.442473033822
0.263047013649
0.184789837377
0.142550833913
0.110408425342
0.0800665797488
0.0505134535291
0.0274102617953
0.0174170960443
0.0126347097339
0.0100037137903
0.0082633415835
0.00682286330277
0.00540585332479
0.00379598375955
0.00210899247434
0.000855541704599
4.52217418013
1.82266754349
0.838251233358
0.419291024497
0.252557314151
0.183337785041
0.145808394496
0.115401352459
0.0837926757872
0.0505120116308
0.0264237864503
0.0170016784684
0.0126286803293
0.0101596925688
0.00843156707109
0.00691563406201
0.00534408765588
0.00353791311081
0.00179654555372
0.000662179832698
4.49364772305
1.80430557266
0.820170246
0.408593768499
0.249028410581
0.184437081454
0.149593956848
0.120280067963
0.0873160031573
0.0467003104564
0.0250610327773
0.0166939220293
0.0127345982752
0.0103935034039
0.00863639103315
0.00701978000453
0.00525870058826
0.00326607009675
0.00152936717333
0.000547413510577
4.48210039071
1.80496496143
0.815833001681
0.407905743238
0.249752183924
0.186295029547
0.152245636823
0.123110531605
0.0889072135373
0.0433831118923
0.0244267012342
0.0168377038187
0.0130636745596
0.0107170328586
0.0088470669632
0.00708987160161
0.00512841348992
0.0029981946908
0.00126829840209
0.000423714816868
4.47040320788
1.80615132857
0.813849997844
0.409025694885
0.251629887809
0.187580762991
0.152808442614
0.122766803639
0.0872315921818
0.042148797507
0.0246524860471
0.0172919564819
0.0134962212128
0.0110295775387
0.0090009856519
0.00708446181482
0.00496507751384
0.00270388700899
0.000990444534639
0.000363290274018
4.46184806481
1.80528080297
0.806964210059
0.407076967964
0.251589344518
0.186919597514
0.150682720242
0.118853325267
0.0817026636058
0.0409337111094
0.0247505716112
0.0176387376274
0.0138058563281
0.0111994904045
0.00903444254331
0.00702029426442
0.00479803440626
0.00225813911951
0.000715654215955
0.000339321636416
4.49360026128
1.79594026778
0.792915172393
0.401452646557
0.249244780576
0.184305330749
0.146516418501
0.112373386877
0.0721053423112
0.0384958816038
0.0243531458295
0.0176640949568
0.0138436011734
0.0111398133383
0.00892993518591
0.00694024977892
0.00448042654154
0.00162704159826
0.000578426199744
0.000331510134763
4.58278977798
1.79173187949
0.777672910208
0.394076083073
0.24583296047
0.180925923411
0.141391736543
0.105086732832
0.0611869519309
0.0355558909036
0.0235332376441
0.0173287870036
0.0135581256006
0.0108320383065
0.00871125508348
0.00681593222275
0.00371716607124
0.00116747048935
0.00051731468872
0.000330810775304
4.73711280949
1.81022315883
0.769335758427
0.388696597251
0.24347034094
0.178195549305
0.136196645779
0.0947726101777
0.0535811308832
0.0328475747304
0.0224492030557
0.0166688377575
0.0129672524976
0.0103031425221
0.00838264063964
0.006350583125
0.00269554389602
0.000915282220475
0.00049715122363
0.000333157552445
4.9511918541
1.85618436313
0.773282265153
0.388716916659
0.24375246232
0.176645816529
0.130473234985
0.0815901618179
0.0479101833339
0.0305822049093
0.0212732139814
0.0157854507318
0.0121540321478
0.00957617755718
0.00784281552775
0.00531143370812
0.00193269056723
0.000802117194668
0.000498930892361
0.000339931051859
5.22251309316
1.93592230682
0.798636845241
0.399660330864
0.249385300291
0.177592333221
0.123797904921
0.0728949522356
0.0444148027045
0.0289762543191
0.0202038265876
0.014837292518
0.0112130481189
0.00864098409449
0.00692785872014
0.00403266521528
0.00147937112924
0.000766644434703
0.000516302224564
0.000351712508913
5.48703561674
2.03521659109
0.840610930841
0.419251201694
0.25824215126
0.178794822439
0.114597121834
0.0688657407989
0.04295773579
0.0281450463022
0.0194159319058
0.013947552576
0.0101794896846
0.00752974445041
0.0057391241648
0.00293209917376
0.00124586505415
0.000780255154425
0.000547625756586
0.000368927641916
5.72331970272
2.14581563815
0.896581837523
0.445982416812
0.269803150688
0.18068420907
0.111002555974
0.0681834636086
0.0430404008724
0.0280236034999
0.0189367205782
0.0131181400501
0.00907074859432
0.00637648125838
0.0045687366931
0.00218550053456
0.00116422013947
0.000832161124239
0.000597717934428
0.000390289120598
5.89081182361
2.23120598504
0.943502462452
0.469955516751
0.278925397856
0.178048883747
0.110483213588
0.0692696905655
0.0439847661607
0.0283562856916
0.0186358341919
0.0122911363233
0.00795693239915
0.00534345708119
0.00364167322835
0.00178695207484
0.00118990268002
0.000923524811688
0.000671189597913
0.000427808606565
6.03873951276
2.28884096271
0.977497889742
0.487114693994
0.284330914276
0.17553461847
0.110949689337
0.0706244258205
0.0449938671774
0.0287232797765
0.0183010120695
0.0114187663026
0.00692496319143
0.00454544440015
0.00299595187035
0.00164940133466
0.00129458831806
0.00105233556048
0.00076861112668
0.00048320621815
6.17880503691
2.31424942279
0.989617010437
0.491853219181
0.279091199994
0.173345920452
0.110512222936
0.0708996719588
0.0452781225748
0.0286629476649
0.0177090030476
0.0104508531645
0.00604944544639
0.00401472424605
0.00254484573489
0.00166268638103
0.001446092717
0.00121303528892
0.000890671424797
0.000545301439671
6.38851894031
2.32319227988
0.985389170063
0.484970406404
0.274076669993
0.168797671444
0.10750978625
0.0691203558429
0.0442692690285
0.0278152837929
0.0166586964585
0.00935507048803
0.00539895175141
0.00369471280094
0.00224543794632
0.00177109428034
0.00161875267742
0.00139106998904
0.00102593623909
0.000603091360788
6.72973543211
2.35139138961
0.991962999925
0.481134555361
0.267326943971
0.1607656225
0.101277229547
0.0650975819968
0.0418183195604
0.0259916080147
0.0150337193317
0.00819974402848
0.00496771082183
0.00326544504546
0.00216259253147
0.00194018643712
0.00178039077184
0.00155863567361
0.00113415341513
0.000646892209204
7.23208666622
2.48238745312
1.02787964863
0.488828821862
0.258140682437
0.149486240043
0.0925858512095
0.0594606370687
0.038124883452
0.0231892566985
0.012919698429
0.00715394396052
0.00449746056228
0.00278665588284
0.00223032207784
0.00210252337986
0.00190185630424
0.00167369866777
0.00118983159861
0.000671682026756
7.58723430064
2.62622860148
1.09229856698
0.498132560055
0.248348775557
0.137299948976
0.0833190673512
0.0532030873351
0.0335886265659
0.0196675583067
0.0107299589816
0.00620043721668
0.00366649697572
0.00260976920161
0.00237644792256
0.0022253952466
0.00196182044909
0.00170870851874
0.00119837005724
0.000677933093607
7.80018682414
2.70108112863
1.13162086767
0.501487349346
0.237188492335
0.125443622933
0.0745003806356
0.0468004234693
0.0285796304659
0.0160237818819
0.00881456379285
0.00493651068716
0.00314553873937
0.00268553254016
0.00251470014011
0.00228735470953
0.00194873148169
0.00169878801812
0.00118157974512
0.000672065129502
8.03345425129
2.78802552386
1.13813013137
0.48588130113
0.220530350688
0.113169696121
0.0661130105097
0.0405747540494
0.0236955499346
0.0129038039496
0.00695172218632
0.00397702329064
0.00310882945277
0.00284221550277
0.00260610932931
0.00228049064537
0.00190909330722
0.00169138171541
0.00115812364973
0.000662168951593
7.51183920447
2.58113907594
1.0382329751
0.433965663924
0.194117815674
0.0999785237867
0.0585152402646
0.0349762249324
0.0195165457687
0.0103479289884
0.00549276865936
0.00379077356824
0.00330048523349
0.00299465389927
0.00265957340143
0.00228891096751
0.00196657288273
0.00171282790194
0.00113689948403
0.000654439396008
6.4386368814
2.15741910572
0.856355263092
0.357108551977
0.164788532411
0.08892451602
0.0525559295173
0.0302719883979
0.0162710212695
0.00856501164349
0.00511882417203
0.00406385113474
0.00358526878378
0.0031992068814
0.00282716728991
0.00247457492063
0.00214673701329
0.00174804038209
0.00111950572384
0.000652145563713
5.00024986899
1.6608776383
0.666883076143
0.292113835599
0.146084534868
0.0829403592216
0.0485094913532
0.0270914414369
0.0146773811136
0.00812014623668
0.00560525310037
0.00467264447372
0.00409785137863
0.00365708229968
0.00325586999855
0.002836298061
0.00233685744534
0.00173305408958
0.00109942371509
0.000656947158478
3.5331650564
1.28522336722
0.554156544219
0.264949696436
0.142272742758
0.0821311073442
0.0475837781785
0.0267261227834
0.0148315987702
0.00906559750598
0.0068612460082
0.00573316994754
0.00497708516591
0.00439626209419
0.00382006356746
0.00314663985795
0.00240577925944
0.00168472253508
0.00107511427453
0.000663774963496
2.75460828063
1.15762185411
0.542508670465
0.276500326624
0.153491725174
0.0885572604047
0.0510274722184
0.0290734048461
0.0169980346478
0.0114278102193
0.00882056707884
0.00717579422253
0.00603029766725
0.00510011212427
0.00422647574704
0.00336633504331
0.00246205525108
0.00163638344864
0.0010437294631
0.000666888029032
2.71801182761
1.26889354326
0.619981426046
0.32260986684
0.177524298497
0.101559611623
0.0589235188741
0.0346037317246
0.0216078336215
0.0150737828641
0.011304654802
0.00878493624806
0.00704014353879
0.00574104159521
0.00466571949723
0.00362869602906
0.00255290601037
0.00161667299334
0.00100746340028
0.00065023559266
3.15269335969
1.55450920008
0.757888772463
0.376647238948
0.204019309688
0.117994972596
0.0706830764503
0.0438624469847
0.0288058490464
0.0200037376423
0.0143711872427
0.0106341408918
0.00817848598222
0.00650143943899
0.00521143272363
0.00399524067514
0.00274876458401
0.00167141292963
0.000993916526547
0.000617688971383
3.62342206143
1.689158226
0.804686482028
0.410727531706
0.228147449702
0.135447526023
0.0848643096207
0.0555767928664
0.0377180793766
0.0259526662781
0.0180735431893
0.0128292038501
0.00951534664532
0.0074048299077
0.0058958036475
0.00452714899574
0.00310204417769
0.00183490240493
0.00103569272445
0.000601097565709
3.61141814185
1.55847731231
0.749927849504
0.401591980913
0.237395197275
0.150424943869
0.0995688076119
0.0677700090933
0.0467744914648
0.0320151286928
0.0219739776098
0.0152023091821
0.0109619505865
0.00841645557478
0.00670597893921
0.00521162639936
0.00360548225417
0.00210707518824
0.00113977462221
0.000616815817129
3.32471845791
1.42719790521
0.694533555252
0.382937529473
0.236459522248
0.157488532486
0.109191449898
0.077234415464
0.0546335213977
0.0376739111528
0.0255460547862
0.0174408419949
0.0123799762419
0.0094279931674
0.00755531896505
0.00596145185087
0.00418508619367
0.00244573005895
0.00128856443565
0.000658364084527
3.07645715083
1.31247177557
0.641136263033
0.360404337407
0.229640288104
0.158433721785
0.113503655736
0.0823224058329
0.0592642409866
0.0414141536742
0.0281832172498
0.0192344193648
0.0136229316553
0.0103740562989
0.00836823817911
0.00668206011983
0.00474330084554
0.0027845159014
0.00144758920582
0.000707227970459
2.91946361526
1.21695842347
0.590715023725
0.33535073547
0.218377668896
0.15437909385
0.113048453717
0.0833153500834
0.0605851063191
0.0425538567856
0.0292801374462
0.0201887889975
0.0144737652215
0.0111582908368
0.00909335460109
0.0073071503934
0.00519480388245
0.00305879494494
0.00158199770564
0.000744089037851
0.00111675110508
0.000313698787785
0.0001033815584
0.000106338451391
9.77883975053e-05
9.47516113042e-05
8.78236016341e-05
8.0016734601e-05
6.96441540547e-05
7.41546060218e-05
6.03899446752e-05
9.20935395227e-05
0.000892819482823
0.00401367195495
0.00817984848443
0.012651518153
0.0170766380203
0.0209303659736
0.0235390265989
0.0246820948771
0.000777717863978
0.000180515108529
0.000116272588735
0.000108756437767
9.83157400462e-05
9.32940599469e-05
8.33467557989e-05
7.62838917416e-05
6.69524177985e-05
7.06701403969e-05
5.62839271186e-05
8.5077508213e-05
0.000858408401869
0.003853655951
0.00796552688292
0.012467616974
0.0171264086229
0.021256529633
0.0241104809784
0.0252771027238
0.000523146405065
0.000141122354091
0.000126907080698
0.000109821795329
9.83533563446e-05
9.03773933308e-05
7.85164146045e-05
7.2684432569e-05
6.36462799912e-05
6.61947111094e-05
5.18975981574e-05
8.0851983097e-05
0.000824178164797
0.00363606293942
0.00763239962779
0.0121430992883
0.0170202243621
0.0215503643534
0.0247207121159
0.0259620243582
0.00034956014694
0.00013717814208
0.000129637487857
0.000109964370129
9.74846108537e-05
8.5969554623e-05
7.375773854e-05
6.89346267806e-05
6.05232607295e-05
6.1591673557e-05
4.74983802131e-05
7.91561442957e-05
0.00081070678789
0.00346052347874
0.00732272872569
0.0118232724625
0.0168580592192
0.0217954915397
0.02537068223
0.0267679207221
0.000272925701372
0.000151194461402
0.000130501447903
0.000109419999012
9.54470384679e-05
8.08310504941e-05
6.99113513359e-05
6.53762132697e-05
5.77807654508e-05
5.68004032438e-05
4.35161876263e-05
7.97612203175e-05
0.000823741148915
0.00338049382829
0.00715260885215
0.0116530093638
0.0168186002472
0.0220155557701
0.0260455482556
0.0277637254884
0.000232846032126
0.000160444303741
0.000130373786717
0.000108378572049
9.22726544601e-05
7.57234351588e-05
6.68701437742e-05
6.23670181682e-05
5.52679066279e-05
5.17498283548e-05
4.01380777672e-05
8.3178723582e-05
0.000867754334295
0.00340527762184
0.00715550628738
0.0116967167505
0.0169674039417
0.0222613941793
0.0267149755205
0.0289537471084
0.0002202516537
0.00016371722799
0.000129380346367
0.000106296719093
8.81146608045e-05
7.11036996804e-05
6.37215473427e-05
5.97148046225e-05
5.27068210348e-05
4.71943622554e-05
3.72773635717e-05
9.07336770302e-05
0.000949704618411
0.00354097426703
0.00732929594775
0.0119234895314
0.0172799821126
0.0225385785127
0.027365421589
0.0302540013283
0.000221758479394
0.000165047135221
0.000127528950375
0.000102702381074
8.29600536079e-05
6.75183701264e-05
6.10758761114e-05
5.73027560401e-05
5.01010744544e-05
4.3918930349e-05
3.47708906757e-05
0.000103624311362
0.00107243121091
0.00377291941729
0.00765320824399
0.012432457518
0.0178296963854
0.0228269230963
0.0279914775923
0.031615882086
0.000223103218327
0.000164925739625
0.000124986729096
9.73803528653e-05
7.77208656768e-05
6.53019944978e-05
5.92504132906e-05
5.5209217e-05
4.74713471878e-05
4.15801468713e-05
3.23377402758e-05
0.000126252239967
0.00127180205087
0.00419042478252
0.0083246065481
0.0134089404191
0.0183769323311
0.0231041737763
0.0285888696092
0.0330081959281
0.000223730831925
0.000164072165006
0.000120926580528
9.20601710497e-05
7.36063901065e-05
6.41255200181e-05
5.84013827598e-05
5.33883422088e-05
4.43984625211e-05
4.00590531707e-05
3.02241273039e-05
0.000165450494628
0.00157634585013
0.00487125007972
0.00944897571954
0.0144259822396
0.0187116398272
0.0233798310977
0.029152977903
0.0343983089963
0.000224502202052
0.000161975446356
0.000114587512034
8.69552671826e-05
7.08092312615e-05
6.30245644567e-05
5.83369788277e-05
5.16207059241e-05
4.06984672505e-05
3.70979974076e-05
2.93937971814e-05
0.000232047417521
0.00200517629417
0.00581288971575
0.0106493584766
0.0149777648522
0.0189843655492
0.0236507085994
0.0296786427781
0.0357541995456
0.000225800416053
0.00015859200863
0.000107842027642
8.25510777196e-05
6.95974043493e-05
6.38208453309e-05
5.88313120632e-05
4.95714906103e-05
3.66112347774e-05
3.15489746921e-05
3.1504950953e-05
0.000343497523238
0.00258653817906
0.00686334631606
0.0113944097812
0.0153168947758
0.019250134722
0.0239110725421
0.0301613634984
0.0370472711849
0.000228253869276
0.000152645783951
0.000103151461585
7.95413459022e-05
7.00625271823e-05
6.60635256364e-05
5.95094735761e-05
4.67912039053e-05
3.67547214141e-05
2.72718595976e-05
3.83482511189e-05
0.000519451454042
0.00330652769094
0.0076886705948
0.0118172162356
0.0156258827928
0.0195030208587
0.0241562521679
0.0305986875952
0.0382551152866
0.000230490045115
0.00014723319315
0.000100077130029
7.80073154586e-05
7.17025075951e-05
6.90768240235e-05
5.99299123712e-05
4.2873888496e-05
3.46015453691e-05
2.78929502061e-05
5.0147486064e-05
0.000763402197444
0.00398906049367
0.00818937516448
0.0121650319276
0.0159105184187
0.0197372446984
0.0243830289042
0.0309906010048
0.0393632929201
0.0002306046225
0.000146388044542
9.8088872762e-05
7.81959828928e-05
7.46801449238e-05
7.27526562549e-05
5.98434205542e-05
3.80491891188e-05
2.84096664087e-05
3.48390394493e-05
6.53040068245e-05
0.00101998539725
0.0044487353005
0.0085541213959
0.0124770893908
0.0161661876363
0.0199493352161
0.0245894605866
0.0313391576897
0.0403663561265
0.000234512661681
0.000148593690802
9.69211026831e-05
7.97956398327e-05
7.82083772143e-05
7.69394287889e-05
5.92738318925e-05
4.09199459211e-05
3.05529278298e-05
4.25078042387e-05
8.12228336073e-05
0.00121233699263
0.00476696225976
0.00887097763744
0.0127520534732
0.0163919825257
0.0201383131594
0.0247748231124
0.0316480342126
0.0412685939241
0.000246852402415
0.000151045534629
9.67759685067e-05
8.19932103019e-05
8.17827100882e-05
8.1386732507e-05
5.86982993308e-05
3.71229298573e-05
4.59836523136e-05
4.48869062856e-05
9.50119819853e-05
0.00135548018652
0.00503727285222
0.00914742953341
0.012992959643
0.016591337434
0.0203062688541
0.0249401904191
0.0319224612528
0.0420840502303
0.00026375161374
0.000153371581463
9.71505988274e-05
8.41449302631e-05
8.55166220982e-05
8.62849137122e-05
5.94862636322e-05
3.65042154905e-05
6.1962304821e-05
4.50830884892e-05
0.000107863259933
0.00148349957217
0.00527515538048
0.00939122074143
0.0132088717839
0.01677220154
0.0204587694365
0.0250890143424
0.0321689723788
0.0428341769156
0.000281096113423
0.00015648297579
9.81497047192e-05
8.62135960106e-05
8.94518349938e-05
9.2003950048e-05
6.27491054696e-05
4.04754123197e-05
6.96572407669e-05
4.61218279652e-05
0.000121843169065
0.0016067428023
0.00549218469733
0.00961708038689
0.0134136355914
0.0169459781707
0.0206042754492
0.0252271107872
0.0323947551111
0.0435426724781
0.000298648576224
0.000160580898827
9.9953789856e-05
8.84837743531e-05
9.345985015e-05
9.77100830975e-05
6.75974690234e-05
4.41397656573e-05
7.49724607772e-05
4.82208123934e-05
0.000138454060669
0.00173428122744
0.0057060251875
0.00984333705219
0.013622748833
0.0171249414386
0.0207522152163
0.02536136934
0.0326060501663
0.0442283122074
0.000315971127121
0.000166135033874
0.000102740952886
9.11141254003e-05
9.75677087938e-05
0.000103482546544
7.30544585728e-05
4.82905082125e-05
8.16150662161e-05
5.12301326871e-05
0.000159756901944
0.00187701608461
0.00593537135009
0.0100869896847
0.0138494297431
0.0173191884242
0.0209106084028
0.0254980718608
0.0328067165386
0.0448988509254
0.000331067064973
0.000172264917042
0.00010656381084
9.42750890212e-05
0.000102006914685
0.000109329966963
7.9043692993e-05
5.31354080149e-05
8.93284100996e-05
5.50868689364e-05
0.000188438467673
0.0020453457069
0.00619510261631
0.0103597829749
0.0141018206568
0.0175346045256
0.0210844663791
0.0256416087654
0.0329975220962
0.0455478357144
0.000342044336565
0.000178535122523
0.000111265221152
9.81922180943e-05
0.000107076887269
0.000115325627709
8.48973578026e-05
5.90223171777e-05
9.7230137254e-05
5.95920613732e-05
0.000227843174851
0.00224737631281
0.00649338923881
0.010666169771
0.0143817777432
0.0177721385768
0.021275190266
0.0257940406947
0.0331765658872
0.0461545708891
0.00034841416768
0.000184918157078
0.000116649348548
0.000102967742611
0.000113027410831
0.000120756342686
8.87406578926e-05
6.59089558436e-05
0.00010424963387
6.44945614296e-05
0.000281753362481
0.00248684323076
0.00682956746236
0.0110021826083
0.0146844389177
0.0180276883786
0.0214804645456
0.0259548712639
0.0333399791362
0.0466864924033
0.000352139325103
0.000191297099547
0.000122649983673
0.000108550138433
0.000120073038227
0.000124675857823
9.13751275477e-05
7.5773721475e-05
0.000108881250594
6.9744011781e-05
0.0003537982872
0.00276047216127
0.00719232339019
0.0113550273999
0.0149985593374
0.0182926179446
0.0216945574656
0.0261210749369
0.0334828051979
0.0471044905133
0.000355614269744
0.000198131469065
0.000129284496132
0.000114752389018
0.000128088163516
0.000126227472649
0.000106603178904
9.1839262809e-05
0.000112229542397
7.67694864241e-05
0.000445598761472
0.00305511454833
0.00755966937025
0.0117048010304
0.0153085010027
0.0185554313563
0.0219094980466
0.0262876456507
0.0336000739089
0.0473713953218
0.000361225503599
0.000206133944331
0.00013646346696
0.000121231866869
0.000134113024379
0.000125166722463
0.000105475482648
0.000111501681795
0.00011296331927
8.72827438162e-05
0.000554599462961
0.00334877629381
0.00790387235442
0.0120295325416
0.0155982648363
0.0188048041788
0.022117203151
0.0264490572697
0.0336885858114
0.0474625328836
0.000370687546567
0.00021566861517
0.000143861378603
0.000127291187345
0.000138781791332
0.000123048808782
0.000100105662189
0.000126979537173
0.000112778933884
0.000103202485424
0.000673071283749
0.00361600994561
0.0081995200818
0.0123115048111
0.0158559533483
0.0190326198551
0.0223116310831
0.0266009160727
0.0337485547299
0.0473742712058
0.000384328872593
0.000226012788609
0.00015003399928
0.000131615467031
0.000142556751893
0.000122526529298
0.000101201435481
0.000136138246133
0.000112925404861
0.000123013838435
0.000783623205585
0.00383294843747
0.00843350082831
0.0125444003275
0.0160784229731
0.0192367607128
0.0224906058138
0.0267415905039
0.0337852519049
0.0471271384514
0.00039607961333
0.000233451048888
0.000153183345871
0.000133175628717
0.000144165747793
0.000124043144795
0.000103249628983
0.000140784324686
0.00011219349736
0.000137515406544
0.000856446752677
0.00398307836225
0.00861120530301
0.0127358022094
0.0162718601968
0.0194205791501
0.02265431636
0.0268700526701
0.0338080615364
0.0467716989923
0.0003996381828
0.000234684095186
0.000151976498131
0.000131558761896
0.000143915715687
0.000127962372869
0.000103738866164
0.000142100526889
0.000111124705283
0.000142827933216
0.000884590151645
0.00406863244453
0.00873978926261
0.0128926027698
0.0164416596772
0.0195875180203
0.0228041487037
0.0269863473975
0.0338238936446
0.0463625297275
0.000393282145099
0.000227886374976
0.000145681068781
0.000127142533631
0.000142842933972
0.000136051021905
0.000103568347293
0.000139506948702
0.000110583694836
0.000139218468567
0.000872909341517
0.00410205678289
0.0088313109386
0.0130249754659
0.0165956550995
0.0197432304281
0.0229439962766
0.0270933764059
0.0338404846312
0.0459521775535
0.000372731236528
0.000214619162948
0.000135286129062
0.000121306071716
0.000137699100666
0.000143288799848
0.000105962503266
0.000136509028779
0.000111712273196
0.000129943040819
0.000833453229427
0.0041024400692
0.00890169675941
0.0131454327197
0.0167431737584
0.0198945553719
0.0230790289814
0.0271952381138
0.0338643973645
0.0455859418518
0.000338906927804
0.000192417744719
0.000123608821539
0.000115922133469
0.000132719550897
0.000145646797894
0.00011154272479
0.000130361727891
0.000114841736959
0.000119135739643
0.000781543743132
0.00409114025446
0.00896722615612
0.0132660546387
0.0168928695773
0.0200477876511
0.0232142126195
0.0272959924398
0.0338998297566
0.0452960137606
0.000315088641738
0.000167510637609
0.000111644740628
0.000111952339355
0.000127765018032
0.000143250214169
0.000111209847609
0.000121345332683
0.000119389927991
0.000110163337936
0.000732220672055
0.00408816982728
0.00904212585112
0.0133968489786
0.0170516050124
0.0202078500645
0.0233535803607
0.0273989731881
0.0339482358834
0.045099399334
0.000304571046017
0.000149867762928
0.000103067916873
0.000108852329128
0.000122221710657
0.000138144926866
0.000106235359753
0.00011204925146
0.000124273160435
0.000104880265741
0.000698376407978
0.00411081670452
0.00913866115277
0.0135462320524
0.0172249747531
0.0203786830541
0.0235004019103
0.0275067972833
0.0340086015761
0.0449980991078
0.00029914138798
0.000139620442487
0.000100019694683
0.000105897205224
0.000117111576605
0.000133059147684
0.000101734578601
0.000104284664249
0.000127402663364
0.000103837124417
0.00069052341869
0.00417356598089
0.00926752155243
0.0137212755815
0.0174173882911
0.0205631915959
0.0236569323666
0.0276208973461
0.0340770077359
0.0449790018011
0.000290786999363
0.000134200162606
0.000102425964756
0.000104334681732
)
;

boundaryField
{
    emptyPatch
    {
        type            empty;
    }
    minY
    {
        type            fixedValue;
        value           nonuniform List<scalar> 0();
    }
    maxY
    {
        type            inletOutlet;
        inletValue      nonuniform List<scalar> 0();
        value           nonuniform List<scalar> 0();
    }
    maxX
    {
        type            kqRWallFunction;
        value           nonuniform List<scalar> 
37
(
0.0246820948771
0.0252771027238
0.0259620243582
0.0267679207221
0.0277637254884
0.0289537471084
0.0302540013283
0.031615882086
0.0330081959281
0.0343983089963
0.0357541995456
0.0370472711849
0.0382551152866
0.0393632929201
0.0403663561265
0.0412685939241
0.0420840502303
0.0428341769156
0.0435426724781
0.0442283122074
0.0448988509254
0.0455478357144
0.0461545708891
0.0466864924033
0.0471044905133
0.0473713953218
0.0474625328836
0.0473742712058
0.0471271384514
0.0467716989923
0.0463625297275
0.0459521775535
0.0455859418518
0.0452960137606
0.045099399334
0.0449980991078
0.0449790018011
)
;
    }
    water_to_heater
    {
        type            kqRWallFunction;
        value           nonuniform List<scalar> 
60
(
3.21051051635
3.21051051635
4.39327985765
4.39327985765
4.7245320537
4.7245320537
4.62108504405
4.52217418013
4.49364772305
4.49364772305
4.48210039071
4.48210039071
4.47040320788
4.47040320788
4.46184806481
4.49360026128
4.58278977798
4.58278977798
4.73711280949
4.73711280949
4.9511918541
4.9511918541
5.22251309316
5.48703561674
5.72331970272
5.72331970272
5.89081182361
5.89081182361
6.03873951276
6.03873951276
6.17880503691
6.38851894031
6.72973543211
6.72973543211
7.23208666622
7.23208666622
7.58723430064
7.58723430064
7.80018682414
8.03345425129
7.51183920447
7.51183920447
6.4386368814
6.4386368814
5.00024986899
5.00024986899
3.5331650564
2.75460828063
2.71801182761
2.71801182761
3.15269335969
3.15269335969
3.62342206143
3.62342206143
3.61141814185
3.32471845791
3.07645715083
3.07645715083
2.91946361526
2.91946361526
)
;
    }
    procBoundary1to0
    {
        type            processor;
        value           nonuniform List<scalar> 
41
(
2.85076295855
1.14241563008
0.543923333905
0.30853821535
0.203678428252
0.146339548275
0.108585943319
0.0806695693127
0.058835055658
0.0414934751314
0.0289374112689
0.0203289683409
0.0149321195728
0.0117821553809
0.00974106191121
0.00783220643413
0.00550105010108
0.00321449420416
0.00165353281966
0.000753273819258
0.000113518531719
0.000128636793344
9.95820192021e-05
9.77100568383e-05
0.000127459899863
0.000107080490289
0.000716070497414
0.00428578631951
0.00943542828093
0.0139254796893
0.0176303420854
0.0207622788724
0.0238248754845
0.0277448875929
0.0341551904434
0.0450234404254
0.000275495683512
0.000131574193545
0.000105933452689
0.000113518531719
0.000104767171596
)
;
    }
    procBoundary1to3
    {
        type            processor;
        value           nonuniform List<scalar> 
41
(
0.0469704640326
0.0330373146766
0.0235961649761
0.0172799669083
0.013194378393
0.010640443221
0.00896255824443
0.0077091818137
0.00666509213915
0.00574720039459
0.00491470305929
0.00389990781446
0.00262969683131
2.18436586494
1.17944305242
0.614454273734
0.326695735779
0.189842646832
0.122328170457
0.0838858872717
0.0838858872717
0.00147545384888
0.000539469981973
0.000114264839651
0.000102394406328
9.65749528168e-05
9.52410131492e-05
9.12564764419e-05
8.36096023512e-05
7.12165970584e-05
7.46912054795e-05
6.6179744495e-05
9.9297717895e-05
0.000899576748606
0.00405658302179
0.00823373959006
0.012661557928
0.0169335401273
0.0205762092347
0.0230048980728
0.0241714582595
)
;
    }
}


// ************************************************************************* //
