/*--------------------------------*- C++ -*----------------------------------*\
| =========                 |                                                 |
| \\      /  F ield         | OpenFOAM: The Open Source CFD Toolbox           |
|  \\    /   O peration     | Version:  2312                                  |
|   \\  /    A nd           | Website:  www.openfoam.com                      |
|    \\/     M anipulation  |                                                 |
\*---------------------------------------------------------------------------*/
FoamFile
{
    version     2.0;
    format      ascii;
    arch        "LSB;label=32;scalar=64";
    class       volScalarField;
    location    "0.03/water";
    object      epsilonm;
}
// * * * * * * * * * * * * * * * * * * * * * * * * * * * * * * * * * * * * * //

dimensions      [0 2 -3 0 0 0 0];

internalField   nonuniform List<scalar> 
1497
(
1.93412630117
1.06089426282
0.540083141699
0.228622765747
0.0883888778202
0.0405549427613
0.0268722960593
0.0225843069292
0.0196281242477
0.0167131418647
0.0138701304521
0.0112225879433
0.00888007957985
1715.58491759
558.51783255
195.758765635
71.5598818342
26.0344982534
9.54233174337
3.93180450322
1.9562744049
1.07168447837
0.54660491617
0.231834359442
0.0893229318336
0.0406297290176
0.0266189026661
0.0222970133071
0.0194065750287
0.0165497101204
0.0137521401165
0.0111474836095
0.00884917429272
1748.93286032
563.689834385
196.525506298
71.81293876
26.2548680418
9.67735837786
3.98680341165
1.97658390497
1.08101660043
0.551881807067
0.234299807476
0.089963811598
0.0405991146213
0.0263277461609
0.0219864671859
0.0191708865942
0.0163816745241
0.0136338968645
0.0110710079203
0.00881761030956
1792.48756729
572.759369751
198.252397703
72.4236706903
26.5924835518
9.8456706433
4.05003742653
1.99792872307
1.08941979518
0.555908025294
0.235958650992
0.0902930178079
0.0404765699112
0.0260215901998
0.0216706259031
0.0189269005128
0.0162052737812
0.0135147091147
0.010994971707
0.00878304570693
1802.66125987
577.356541194
199.731389721
73.0856372964
26.9599722492
10.030816707
4.12107874488
2.02127121303
1.0973151004
0.558735682358
0.236766896877
0.0902893380296
0.0402735658926
0.0257280425447
0.0213804538912
0.0186974731288
0.01603193842
0.0133939462342
0.0109215423729
0.00874907194482
1800.99340165
578.37405185
200.601181905
73.6167354404
27.3133530848
10.2296377744
4.20196662266
2.04797666006
1.10525223468
0.560566259656
0.236776229573
0.0899586678842
0.0399901632219
0.0254482763861
0.02112286581
0.0184941294013
0.0158742951305
0.0132787873621
0.0108492761037
0.00871805157445
1804.91169083
578.786357331
201.251429962
74.0408375827
27.6575216134
10.4448386086
4.29474506194
2.07885974345
1.11352777285
0.561593320923
0.236130104011
0.0893640345638
0.0396368361491
0.0251686259864
0.0208836565787
0.0183095704909
0.0157327532911
0.0131741568193
0.0107807058902
0.00868828502986
1800.33148999
576.27651686
200.799290472
74.0872623605
27.9148262986
10.6479857257
4.38732132753
2.1088062454
1.11990060665
0.560818929632
0.234515594033
0.0884757086831
0.0392187686114
0.0248796700613
0.0206495921517
0.0181326066008
0.0156007889131
0.0130789393709
0.0107186928235
0.00866160301234
1787.20914803
571.661825838
199.033452331
73.6901054065
28.0548259703
10.8251771793
4.47396430009
2.13492393284
1.12251450321
0.557185620933
0.231571813319
0.0872496668392
0.0387610587204
0.0246026194496
0.020432685902
0.017967715309
0.0154787221663
0.0129929775321
0.0106650302926
0.00864067700363
1764.31375578
562.403642157
195.313869568
72.5773789113
27.9394708663
10.9249046741
4.53954559942
2.15217047029
1.11948459631
0.550230481468
0.227262087215
0.0857139868379
0.0383068788907
0.0243780260977
0.020266083415
0.0178380943488
0.0153799757272
0.0129226325883
0.0106218015838
0.0086258069674
1731.60377062
548.983933804
189.996497071
70.7849841757
27.5329868906
10.9146849736
4.56600771371
2.15424223778
1.11008755911
0.540751783195
0.222086414027
0.0840109796697
0.0379042728624
0.0242269817899
0.0201620032896
0.0177538807261
0.0153128536547
0.0128729281418
0.0105898889752
0.00861576190262
1703.37165404
535.312126478
184.394870778
68.7123053679
26.9489080519
10.8150723424
4.55552739936
2.14421377497
1.0981117473
0.53157353582
0.217381461006
0.0825405198855
0.0376411651922
0.024145084092
0.020090159738
0.0176883169074
0.0152605662548
0.0128355314359
0.0105668253554
0.00861287734493
1698.29897423
525.08393879
179.352553802
66.7661417937
26.4125475105
10.719602941
4.54419350427
2.13793174511
1.09177455884
0.527390800046
0.215337971854
0.0819821004843
0.0376636389265
0.0241254844687
0.0200072970519
0.017604153016
0.0152001070973
0.0128018976635
0.0105559777692
0.00862491522455
1686.88765242
517.306081421
175.459450533
65.3664613205
26.103533409
10.7173741538
4.57368542941
2.15267848006
1.09852500184
0.531902357727
0.217830835945
0.0829934077701
0.0381324154101
0.0241955974595
0.019918294973
0.017518747894
0.0151541899317
0.0127893771089
0.0105643840481
0.00864705881827
1662.68943319
509.862141394
172.546853553
64.4492169697
25.9930374389
10.8033369429
4.64632891149
2.18927334874
1.11774774833
0.54439025154
0.224696700684
0.0856626542447
0.0390913910929
0.0243991756978
0.019875971938
0.017485189109
0.0151466764993
0.0127954016111
0.010578810743
0.00867369136187
1640.26547137
503.484376334
170.655760798
64.0236181016
26.0753628048
10.9668957141
4.75283690624
2.24143144984
1.14524695488
0.561957738175
0.234489537475
0.0894951179461
0.0404076608103
0.0247231267308
0.0198852414364
0.0174752167261
0.0151496620315
0.0128105487418
0.0106053805278
0.00871609411856
1629.82476905
498.913430095
169.631920833
64.0126531903
26.3111655623
11.1841390773
4.87923604237
2.30170433667
1.17649685659
0.581665014296
0.24563553574
0.0939013596356
0.041885550503
0.0251093570782
0.0199164217401
0.0174882468591
0.0151843601789
0.0128584925833
0.0106618589954
0.00878266053234
1625.39878451
494.525253854
168.776757758
64.0776030711
26.5610968941
11.4010491854
5.00413499243
2.36087281802
1.20633876782
0.600140733116
0.256265180047
0.0981990149545
0.0433125371075
0.0254941355544
0.0199628047568
0.0175402473018
0.0152649243085
0.0129485444313
0.0107514369214
0.00887109109552
1613.05603401
491.064614908
167.948860373
64.0370502843
26.763098082
11.6015660052
5.12336514505
2.41628646848
1.23246365923
0.615318401022
0.26498487774
0.101808045748
0.0445148401778
0.0258226473332
0.0200223556206
0.0176094835091
0.0153693712403
0.0130613565392
0.01085791883
0.00897128697531
1599.08516664
487.009513378
166.712571411
63.7707971688
26.8742764887
11.7744259518
5.23535153177
2.46808448224
1.25485418461
0.62693085305
0.271281562729
0.104437004583
0.0454072243486
0.0260666358873
0.0200877216134
0.0176934071537
0.0154764427011
0.0131722672209
0.0109624196201
0.00907189823901
1584.08733516
482.11944843
165.224669078
63.4295545076
26.9571016624
11.9442596102
5.35029044449
2.52065634215
1.27514967829
0.635564345072
0.275331199282
0.106070640702
0.0459866952425
0.0262337956797
0.0201602620164
0.0178045542063
0.0155977114884
0.013284891652
0.0110621192068
0.00916492058036
1581.3394299
478.214536918
163.981755679
63.2366177045
27.1034978907
12.1402924436
5.47664025739
2.57697003824
1.29499534524
0.642230848586
0.277631804095
0.106850696921
0.0462934462501
0.0263468149731
0.0202518758902
0.0179332381387
0.0157393188923
0.0134128197018
0.0111691991058
0.00925523868161
1602.41675701
476.318626972
163.107292861
63.1973776591
27.2914189728
12.3408662159
5.60259951747
2.63303964085
1.31424559539
0.647737585743
0.278791371752
0.107015728222
0.0463816678636
0.0264122804877
0.0203611095716
0.0180728756607
0.0158837454546
0.0135459931361
0.0112831657135
0.00934989278754
1603.62741346
474.516721155
162.525349197
63.1580424995
27.4308169987
12.5105820602
5.71590400654
2.68578052252
1.33299136443
0.652934747937
0.279547659261
0.106884674296
0.0463270975706
0.0264298867185
0.0204710828215
0.0182147870986
0.0160234414629
0.0136727267129
0.0113933144422
0.00944414237607
1601.02966584
472.361140583
161.739004692
62.8968352461
27.4533230047
12.624320464
5.8073011544
2.73257050621
1.35088593893
0.658146755578
0.280315512234
0.106743392588
0.0462223689747
0.0264153125281
0.0205725718924
0.0183527291842
0.0161594831024
0.0137944141882
0.0114979517468
0.0095340245718
1601.29222303
469.871410954
160.935433009
62.6480407363
27.4529048889
12.7083110979
5.88281807629
2.77440125063
1.36801924272
0.663485085016
0.281249013224
0.106678787764
0.0461224882768
0.0263996034338
0.0206788292695
0.0184933291553
0.016297390334
0.0139165797723
0.0116017713466
0.0096216177148
1634.48566121
471.611605689
161.117754914
62.683774134
27.5127435219
12.7870730156
5.94846131555
2.81214499544
1.38442165702
0.668998032272
0.282429259588
0.106717291135
0.0460478002998
0.0264074442517
0.0208093108143
0.0186498738941
0.0164448678937
0.0140440802958
0.0117087036381
0.00970972111179
1658.39623248
473.454114067
161.847281734
62.9120006181
27.5784735959
12.8369613428
5.99474617826
2.84193536617
1.39853140817
0.674020011076
0.28361268243
0.106812479439
0.0459850807765
0.026436843495
0.0209634037767
0.0188237280148
0.0166043490724
0.0141795423956
0.0118207026705
0.00979970457099
1676.42858617
477.537181989
163.409404403
63.3377610336
27.6398523755
12.8589575764
6.02361690648
2.86446569074
1.41007658202
0.67816144375
0.284656665436
0.106949501958
0.0459272302989
0.0264744885014
0.0211240983685
0.0190025723623
0.0167704306545
0.014322439124
0.0119390136247
0.00989346202605
1687.93551846
481.323446777
165.002559141
63.7013542815
27.642175351
12.8426543295
6.03299910797
2.87842162645
1.41800816661
0.680875874065
0.285433603364
0.107152249159
0.0458957253978
0.0265182910686
0.0212777930971
0.0191750985644
0.0169376542095
0.0144719499658
0.0120658022671
0.00999418465179
1684.78044208
483.397208039
166.667265585
64.1945687978
27.6822421317
12.8209388269
6.03086389661
2.88475274097
1.42192621178
0.681817037635
0.285821301478
0.107438601869
0.0459416435429
0.0266033351118
0.0214420281647
0.019353613935
0.0171151363092
0.0146348875888
0.0122054439826
0.010104876599
1657.19797888
483.323434889
169.046255791
65.1874509404
27.9011635058
12.8446277066
6.03571357256
2.88945478397
1.42367486318
0.681637442331
0.285932065078
0.107782289547
0.046122150841
0.0268009892423
0.0216734439951
0.0195812416106
0.0173323919013
0.0148278983298
0.0123658125414
0.0102318351387
1608.17941236
480.041019251
171.99656834
66.6719832297
28.3091549775
12.9318256849
6.0599675907
2.89843541861
1.4263975384
0.682144756125
0.286518715895
0.108372789381
0.0465009780543
0.0271593101879
0.0220136609816
0.0198922384173
0.0176137494313
0.0150662910693
0.012559682835
0.010384536715
1484.21936708
466.669891755
173.584220478
68.0796199834
28.7561382263
13.0602761761
6.10682220197
2.91752283411
1.43425939345
0.685729115126
0.288629678316
0.109508706844
0.0471188538426
0.027667137011
0.0224473260312
0.0202758579554
0.0179510473773
0.0153499391829
0.0127927672224
0.0105642544342
1318.11228497
441.279515788
171.974982849
68.6203699175
28.9901485061
13.1558046477
6.15687719692
2.94392524836
1.44766760551
0.692768517662
0.292424433477
0.111240753998
0.0479540190078
0.0282712412534
0.0229253331115
0.0206934368834
0.0183183368904
0.0156661881675
0.0130523285532
0.0107578134015
1158.81563013
413.737621679
169.056798984
68.74796747
29.1130131963
13.2252573826
6.20660163549
2.97545617995
1.46517543307
0.70225280066
0.297414567444
0.113416669168
0.0489368129438
0.0289150285273
0.0234063115863
0.0211143805565
0.0186986538621
0.0159992646081
0.0133197660728
0.0109606585274
1021.53897729
389.177434623
166.185802432
68.7845051555
29.1857317298
13.2749489761
6.25485676249
3.00952109908
1.48454420573
0.712706205479
0.302814153813
0.115742087459
0.049967342086
0.0295559518733
0.0238718256019
0.0215303925649
0.0190853887937
0.0163311113389
0.0135902437678
0.0111723776865
956.838563074
377.630211101
165.007925758
68.7018509886
29.1017346161
13.2679995865
6.28991803655
3.04049353112
1.50283726016
0.72247345672
0.307709919263
0.117831955687
0.0509175724782
0.0301518953455
0.024311593451
0.0219355487367
0.0194618369643
0.0166553281083
0.0138589184414
0.0113870250525
0.00679585964978
0.00540203311265
0.00544221869195
0.00559580755878
0.00518375165335
0.0034486789572
0.00135671310008
0.000280879259043
7.93688540335e-05
6.24024758628e-05
6.13236235302e-05
6.1267559708e-05
6.12648189128e-05
6.12646215728e-05
6.13249723221e-05
0.00010549961124
0.0110182259625
0.210932256804
0.932026830018
2.7311894962
0.0068016819641
0.00540734114577
0.00543824322548
0.00559649792475
0.00519327565434
0.00346275143823
0.00136351386224
0.00028578362519
7.99530829113e-05
6.24467268563e-05
6.13283112735e-05
6.1269999624e-05
6.12671956983e-05
6.12670382e-05
6.13310829933e-05
0.000108474930828
0.0114885686959
0.216066580008
0.946814039059
2.77061494177
0.00680718655025
0.00541404971165
0.00543726565831
0.00560005022544
0.00520458471274
0.00347590633987
0.0013685265403
0.000290133995249
8.04932495102e-05
6.24870258431e-05
6.13317152473e-05
6.1271311153e-05
6.1268465496e-05
6.12683615337e-05
6.13363283463e-05
0.000111651641244
0.0119777438127
0.221292756522
0.961392922939
2.80990574052
0.00680951100137
0.00542147788103
0.00543922660465
0.00560609489831
0.00521721572329
0.00348821655691
0.0013715604828
0.000293851015988
8.09851110764e-05
6.25233057467e-05
6.13339136013e-05
6.1271584588e-05
6.12687209423e-05
6.12686821801e-05
6.13408149292e-05
0.000115050468276
0.0124868904329
0.226619396686
0.976273953096
2.84945813126
0.00681008440755
0.00542965276604
0.00544338980283
0.00561384685648
0.00523074786419
0.00350028800219
0.00137340662578
0.000297144664682
8.14443530312e-05
6.25565451279e-05
6.13350808127e-05
6.12709634277e-05
6.12681052824e-05
6.1268145425e-05
6.13447040666e-05
0.000118686449954
0.0130160233856
0.232038345832
0.991325624225
2.88934559651
0.00681188287206
0.005438971721
0.00544894953702
0.00562273731441
0.0052451600169
0.00351300300365
0.00137503855997
0.000300292618382
8.18909011259e-05
6.25880256819e-05
6.13354638383e-05
6.12696451542e-05
6.12668137297e-05
6.12669477176e-05
6.13482047095e-05
0.000122567997084
0.0135644622497
0.23753783947
1.00649020851
2.92956887471
0.00681593557476
0.00544910159764
0.00545565121586
0.00563275669254
0.00526078723305
0.00352719050285
0.00137705227997
0.000303474900413
8.23406000405e-05
6.26191860639e-05
6.13353948547e-05
6.12678921393e-05
6.12651052939e-05
6.12653471498e-05
6.13515743034e-05
0.000126700446611
0.0141313824724
0.243107849401
1.02174367613
2.97012045516
0.00682141486217
0.00546023551638
0.00546395262604
0.00564421339223
0.00527789765192
0.0035432968097
0.00137975959048
0.000306824693039
8.28142347461e-05
6.26523344167e-05
6.13353067939e-05
6.12660078452e-05
6.12632741224e-05
6.12636364083e-05
6.13551078226e-05
0.000131088145083
0.014715973811
0.248739461921
1.03707235514
3.01099610238
0.00682927741156
0.005473594769
0.00547435987016
0.00565709473063
0.005296294253
0.00356152512597
0.00138375734262
0.000310624578383
8.33539987298e-05
6.26914668966e-05
6.13357707541e-05
6.12643466696e-05
6.12616602272e-05
6.12621495946e-05
6.13591310607e-05
0.000135736801019
0.0153176544908
0.254426238116
1.05247030725
3.0522003922
0.00684004251248
0.00549008129876
0.0054865518307
0.00567070349385
0.00531538641123
0.00358236508441
0.00139044550252
0.000315423348281
8.40286935664e-05
6.27422603262e-05
6.13374760269e-05
6.1263295446e-05
6.12606245853e-05
6.12612385186e-05
6.13639921993e-05
0.000140652232988
0.0159358285611
0.260161332976
1.0679323478
3.09374399185
0.00685419304471
0.00550887676985
0.00549920530876
0.00568401819544
0.00533465726945
0.00360685622185
0.00140177077617
0.000321926554494
8.49221394324e-05
6.28112253507e-05
6.13412014513e-05
6.12632807719e-05
6.12605592653e-05
6.12612768972e-05
6.13700483849e-05
0.000145840747011
0.0165699627978
0.265939149226
1.0834586063
3.13564975623
0.00687596173006
0.00553049652246
0.00551142076849
0.0056964898434
0.00535403369963
0.0036361911075
0.00141951869785
0.000330797936422
8.61165268654e-05
6.29049111626e-05
6.13477340875e-05
6.12647100079e-05
6.1261825798e-05
6.12626051892e-05
6.13776312682e-05
0.000151307731594
0.0172194197977
0.271753682834
1.09905072119
3.17795126769
0.00690712064881
0.00555828223688
0.00552360463938
0.00570845489392
0.0053738451294
0.00367092523676
0.00144483121144
0.000342516012778
8.76823474473e-05
6.30295670669e-05
6.13577949361e-05
6.12679144871e-05
6.1264710197e-05
6.12654851657e-05
6.13869899726e-05
0.000157060144701
0.0178838281668
0.277602461383
1.11471897626
3.22069906142
0.00694279838229
0.00559057100817
0.00553687814228
0.0057208135132
0.00539446987193
0.00371079878533
0.00147799887831
0.000357345298098
8.96782002796e-05
6.31909290437e-05
6.13718935663e-05
6.12730236307e-05
6.12693045593e-05
6.12699972086e-05
6.13982169263e-05
0.000163107011427
0.0185630955769
0.28348564601
1.13047792392
3.26395371363
0.00698746323793
0.00562964982729
0.00555276186411
0.00573441429502
0.00541610571207
0.00375522420169
0.0015187295616
0.00037540245048
9.21509963959e-05
6.3393428518e-05
6.1390180493e-05
6.12799040543e-05
6.12754653586e-05
6.12759986219e-05
6.14111935644e-05
0.000169463248635
0.0192578537591
0.289409757953
1.14635135911
3.30778396796
0.00704854170173
0.00567910608623
0.00557236232752
0.00574982150126
0.00543892006007
0.0038036043607
0.00156633862081
0.00039664888734
9.51209610933e-05
6.36382326355e-05
6.14122694273e-05
6.12881080912e-05
6.12827655681e-05
6.1283085868e-05
6.14255719958e-05
0.000176149083103
0.0199692464035
0.295384398735
1.16236361724
3.35225075867
0.00712711008408
0.005739396867
0.00559612594154
0.00576757305713
0.00546329417696
0.00385542968378
0.00161960014873
0.000420720525268
9.85508891319e-05
6.39208847501e-05
6.1437190691e-05
6.12969605592e-05
6.12905860635e-05
6.12906718271e-05
6.14408249161e-05
0.000183191839495
0.0206990921244
0.301423583301
1.17854111054
3.39740116979
0.00721915610034
0.00580844411882
0.00562433778628
0.00578842111049
0.00548982064678
0.00390976801082
0.00167631166486
0.000446720863391
0.000102323034805
6.42304813438e-05
6.14634833449e-05
6.13056515831e-05
6.12981912699e-05
6.1298061394e-05
6.14563295539e-05
0.000190622110204
0.0214493076165
0.30754003137
1.19490180196
3.44325426182
0.00731927920419
0.00588355699393
0.00565728879616
0.00581315291069
0.00551899197049
0.00396486940337
0.00173337642871
0.000473292226343
0.000106255948279
6.45518813335e-05
6.14895113002e-05
6.13134192932e-05
6.13049000367e-05
6.13046033444e-05
6.14714891869e-05
0.000198473514176
0.0222219149136
0.313745957157
1.21145785588
3.48980321473
0.0074204197609
0.00596115102402
0.00569475500653
0.00584203402554
0.00555077431819
0.00401946283407
0.00178802731193
0.000499090783754
0.000110164392677
6.48701326022e-05
6.15138076497e-05
6.13196509584e-05
6.1310163145e-05
6.13097710472e-05
6.1485826105e-05
0.000206777408243
0.0230183995732
0.320047731813
1.22820808232
3.53701198129
0.00751596890113
0.00603723736533
0.00573561831565
0.00587438716094
0.00558446759958
0.0040728076908
0.00183881970944
0.000523296891412
0.000113918426074
6.51740531727e-05
6.15353546509e-05
6.13240068887e-05
6.13136824963e-05
6.13132688283e-05
6.14990660077e-05
0.000215563384601
0.0238398971058
0.326448588158
1.24514469261
3.58482792447
0.00760289485649
0.00610887448177
0.00577812028955
0.00590880016536
0.00561904213182
0.00412458028993
0.00188559625461
0.000545676708811
0.000117452683457
6.54567387353e-05
6.15536239065e-05
6.13264078133e-05
6.13153911288e-05
6.13150233621e-05
6.15111506935e-05
0.000224855237458
0.0246867560088
0.33294526351
1.26224961311
3.63318559307
0.00768619428367
0.00617712775818
0.00582060788127
0.00594382273572
0.00565367040463
0.00417486133845
0.0019287976482
0.000566248472152
0.000120733686057
6.57142353311e-05
6.15685431657e-05
6.13270373204e-05
6.13154663629e-05
6.13151922004e-05
6.15222341532e-05
0.000234674150405
0.0255590285512
0.339532860276
1.27950385201
3.68202191922
0.00776941929192
0.00624389011093
0.00586194572581
0.00597857425356
0.00568801639783
0.00422401365083
0.00196892853364
0.000585023607807
0.000123739427647
6.59454221167e-05
6.15804420028e-05
6.13262344449e-05
6.13142205962e-05
6.13140696801e-05
6.15326136815e-05
0.00024503645538
0.0264562063449
0.346202575619
1.29688470218
3.7312783101
0.0078504786406
0.0063082967707
0.00590164861212
0.00601281194272
0.00572206727857
0.00427241963901
0.00200638734408
0.000602095153877
0.000126483517033
6.61539469396e-05
6.15900819509e-05
6.13244540321e-05
6.13120708248e-05
6.13120525595e-05
6.15426837219e-05
0.000255958601661
0.0273778357052
0.35294694219
1.31437429995
3.78091098217
0.00792807931603
0.00636907100672
0.00593976490899
0.0060464588834
0.00575573456483
0.00432037564305
0.00204205179611
0.000617966390408
0.000129056884082
6.6349745979e-05
6.15985850888e-05
6.13221633765e-05
6.13094334767e-05
6.13095450322e-05
6.15528605089e-05
0.000267454832543
0.0283232058083
0.359756963756
1.3319551687
3.83088726834
0.00800255636244
0.00642641560273
0.00597630574793
0.00607915820141
0.00578871733897
0.00436830039196
0.00207744113185
0.000633615768913
0.000131626362534
6.65474065267e-05
6.16072765732e-05
6.13198330082e-05
6.1306727867e-05
6.13069547271e-05
6.15635618654e-05
0.000279542004436
0.0292918930104
0.366626516399
1.34961678094
3.88119062978
0.00807489007014
0.00648121552307
0.00601097376929
0.00611040835098
0.00582078480046
0.00441695715968
0.00211419000446
0.0006501551736
0.000134381829288
6.676220172e-05
6.16174378473e-05
6.13178720273e-05
6.13043118679e-05
6.13046333538e-05
6.15751624091e-05
0.000292235955042
0.0302833224314
0.373548610964
1.36734960636
3.93181384422
0.00814728274315
0.00653504075581
0.00604376219221
0.00614010195336
0.00585210228057
0.00446730088626
0.00215370881123
0.000668472444241
0.000137482609204
6.70070480939e-05
6.16301956686e-05
6.13166478945e-05
6.13025090328e-05
6.13028966281e-05
6.15879974938e-05
0.000305556120759
0.0312972653082
0.380519408933
1.3851510706
3.98276243508
0.0082233206003
0.00658985010345
0.00607548704438
0.00616878378443
0.00588316065186
0.00451996777658
0.00219672106151
0.000689082226491
0.000141042042019
6.72925299938e-05
6.16465385097e-05
6.13164432813e-05
6.13015554973e-05
6.13019751118e-05
6.16023290418e-05
0.000319521333401
0.0323333790651
0.387534474938
1.40301948352
4.03404701565
0.00830753557019
0.00664944772361
0.00610796318613
0.00619727220263
0.00591429806479
0.00457490156455
0.00224329132748
0.000712250459418
0.000145155089444
6.76294656408e-05
6.16674580541e-05
6.13174792598e-05
6.1301624094e-05
6.13020342578e-05
6.16183524173e-05
0.000334155273636
0.0333917504071
0.39459306731
1.42096029508
4.08568544341
0.00840466079281
0.00671764576767
0.00614278988424
0.00622594458503
0.00594532166494
0.00463150804797
0.00229337083777
0.000738272753511
0.000149942357654
6.80311848954e-05
6.16939794203e-05
6.1319867361e-05
6.13027707652e-05
6.13031250233e-05
6.16361630853e-05
0.000349482291816
0.0344724615696
0.40169452118
1.43897953623
4.13769327285
0.00851707685694
0.00679448480943
0.00618021582803
0.00625452335265
0.00597568099404
0.00468917990511
0.00234704880998
0.000767611969779
0.000155560807896
6.85125974338e-05
6.17270375215e-05
6.13236160716e-05
6.13049560761e-05
6.13052044412e-05
6.16557655159e-05
0.000365534171948
0.0355761886863
0.408842732763
1.45709013289
4.19008410834
0.00864180145771
0.00687772568301
0.00621988803665
0.0062826051023
0.00600500213665
0.00474759765257
0.00240451620431
0.000800696371702
0.000162156944226
6.90860640154e-05
6.17671975297e-05
6.13285766274e-05
6.13079973609e-05
6.13080921145e-05
6.16770459374e-05
0.000382345823523
0.0367037607996
0.416042300956
1.47530417752
4.24285790906
0.00877681708497
0.00696944015348
0.00626199334653
0.00631026634003
0.00603342099239
0.00480654931611
0.00246556363651
0.00083752906387
0.000169797608078
6.97570850563e-05
6.18144728351e-05
6.13344592594e-05
6.13116010073e-05
6.13115031592e-05
6.16997929185e-05
0.000399962485908
0.0378567225876
0.423302620463
1.49363924687
4.29600017895
0.00892478827175
0.00707163123908
0.00630710834981
0.00633808131757
0.00606136943958
0.00486550858365
0.00252915945869
0.00087749930857
0.000178440145557
7.05231842254e-05
6.18683280765e-05
6.13408223955e-05
6.13153432295e-05
6.1315028594e-05
6.1723687845e-05
0.000418432428596
0.0390366463084
0.430632114118
1.51210799428
4.3494703649
0.00908463944155
0.00718263375245
0.00635533711569
0.00636647861669
0.00608897561089
0.00492341314212
0.00259363188779
0.000919620542565
0.000187973531481
7.13769005579e-05
6.19278816485e-05
6.13471466225e-05
6.13187459494e-05
6.13182113422e-05
6.1748360356e-05
0.000437799250052
0.0402442865418
0.438031783138
1.53073635849
4.40392962115
0.00924832777759
0.00729712671238
0.00640543051076
0.00639502582956
)
;

boundaryField
{
    emptyPatch
    {
        type            empty;
    }
    minY
    {
        type            fixedValue;
        value           nonuniform List<scalar> 0();
    }
    maxY
    {
        type            inletOutlet;
        inletValue      nonuniform List<scalar> 0();
        value           nonuniform List<scalar> 0();
    }
    water_to_cooler
    {
        type            fixedValue;
        value           nonuniform List<scalar> 
37
(
7.33588811357
7.44668318993
7.55796928964
7.67014078783
7.78320018843
7.89707135847
8.01168714871
8.12699850926
8.24299213561
8.35966952247
8.4770693802
8.59525227855
8.71433028034
8.83443960957
8.95575302063
9.07842634475
9.20259875537
9.32833793224
9.4556589809
9.58449318918
9.71473525114
9.84623107966
9.97883573924
10.1123985539
10.2468112146
10.3819788168
10.5178550264
10.6544052409
10.7916381807
10.9295691648
11.0682499848
11.2077300276
11.3480824856
11.4893606864
11.631620574
11.7748565306
11.9182475839
)
;
    }
    water_to_heater
    {
        type            fixedValue;
        value           nonuniform List<scalar> 
60
(
5446.96772809
5446.96772809
5533.26906257
5533.26906257
5661.50367052
5661.50367052
5715.26433836
5725.44669347
5726.64040419
5726.64040419
5683.17163858
5683.17163858
5621.5719985
5621.5719985
5520.79731881
5374.14061583
5228.26676351
5228.26676351
5135.53411659
5135.53411659
5057.53967806
5057.53967806
4980.70600108
4915.14713543
4871.36528439
4871.36528439
4822.96847339
4822.96847339
4773.64729366
4773.64729366
4726.09101369
4672.18934301
4638.54932896
4638.54932896
4636.90840803
4636.90840803
4603.34070161
4603.34070161
4571.36629168
4543.65669689
4587.10013762
4587.10013762
4616.43532418
4616.43532418
4645.25238741
4645.25238741
4674.78167419
4682.09898689
4654.18993503
4654.18993503
4606.66360704
4606.66360704
4459.86308515
4459.86308515
4208.43327964
3945.17753329
3730.49258712
3730.49258712
3729.80700038
3729.80700038
)
;
    }
    procBoundary1to0
    {
        type            processor;
        value           nonuniform List<scalar> 
41
(
922.253115565
375.753323679
166.666803953
69.0930605885
29.0450186277
13.2623971275
6.32643972452
3.07164277524
1.52042601797
0.731141865813
0.311649270892
0.119412869443
0.0516787706528
0.0306642259814
0.0247124644318
0.0223141912507
0.0198125588268
0.0169657890163
0.0141193070436
0.0115932684432
0.00611562997071
0.00497884368386
0.00265733321983
0.000962994934986
0.000198293548307
7.23102675275e-05
6.19920045432e-05
6.13528000218e-05
6.13212292947e-05
6.13204893708e-05
6.17732757503e-05
0.000458040555895
0.0414758891473
0.445524113394
1.55056952349
4.45633000578
0.00940503270993
0.00740858649697
0.00645455812916
0.00611562997071
0.0064223296472
)
;
    }
    procBoundary1to3
    {
        type            processor;
        value           nonuniform List<scalar> 
41
(
1.91221756393
1.04986316372
0.533012090713
0.224964967145
0.0872422830146
0.0403955932421
0.027102055793
0.0228624443808
0.0198487867723
0.0168812782852
0.0139916198282
0.0113013323273
0.00891484856311
1720.59481694
560.237828763
195.845854857
71.308243479
25.7902626737
9.39818935682
3.87309689204
3.87309689204
0.00679268731192
0.00539842305371
0.00544859304939
0.00559767267447
0.00517609631449
0.00343473674798
0.00134927179543
0.000275746208251
7.87655314903e-05
6.2355679084e-05
6.13177708411e-05
6.12640422041e-05
6.12613734442e-05
6.12611430992e-05
6.13179999928e-05
0.000102698046217
0.0105632806931
0.205867880141
0.917048640557
2.69355782773
)
;
    }
}


// ************************************************************************* //
