/*--------------------------------*- C++ -*----------------------------------*\
| =========                 |                                                 |
| \\      /  F ield         | OpenFOAM: The Open Source CFD Toolbox           |
|  \\    /   O peration     | Version:  2312                                  |
|   \\  /    A nd           | Website:  www.openfoam.com                      |
|    \\/     M anipulation  |                                                 |
\*---------------------------------------------------------------------------*/
FoamFile
{
    version     2.0;
    format      ascii;
    arch        "LSB;label=32;scalar=64";
    class       volScalarField;
    location    "0.03/water";
    object      p_rgh;
}
// * * * * * * * * * * * * * * * * * * * * * * * * * * * * * * * * * * * * * //

dimensions      [1 -1 -2 0 0 0 0];

internalField   nonuniform List<scalar> 
1497
(
100679.9058
100750.028378
100834.892792
100914.557626
100956.726721
100969.083512
100973.811853
100977.801007
100982.229532
100986.950388
100991.638782
100996.093613
101000.241708
100423.603227
100438.268664
100431.412549
100442.332234
100492.477007
100564.993677
100630.1664
100691.002359
100761.175127
100845.749672
100926.016495
100969.154184
100981.734558
100986.365846
100990.221905
100994.547186
100999.206505
101003.850973
101008.26055
101012.360571
100422.494026
100442.142816
100437.061066
100448.635795
100499.008673
100572.754423
100640.536521
100702.600692
100772.487105
100856.619059
100937.48314
100981.749686
100994.669826
100999.223055
101002.938268
101007.13935
101011.712435
101016.298864
101020.653671
101024.692758
100421.235522
100443.851244
100443.153394
100454.987917
100506.399448
100581.914971
100651.79499
100714.571334
100783.862123
100867.32632
100948.834384
100994.467047
101007.835957
101012.327188
101015.903666
101019.976153
101024.450178
101028.952646
101033.241296
101037.212338
100426.476281
100448.105042
100449.441012
100460.320044
100513.039211
100591.970456
100663.922026
100727.062885
100795.55714
100878.211153
100960.362796
101007.40989
101021.19951
101025.613742
101029.049795
101032.999457
101037.376913
101041.786074
101045.98424
101049.879709
100432.311597
100455.288602
100456.171163
100464.925044
100518.660107
100601.886425
100676.677025
100740.222011
100807.786846
100889.661449
100972.399137
101020.623906
101034.742757
101039.048348
101042.332919
101046.156666
101050.43686
101054.751696
101058.848531
101062.646982
100434.269864
100464.220052
100463.044499
100471.602749
100524.682006
100610.099581
100688.255618
100752.842048
100819.764604
100901.197513
100984.663577
101034.050572
101048.447272
101052.620936
101055.737835
101059.418637
101063.585795
101067.796148
101071.785076
101075.473059
100437.77099
100475.821222
100469.999568
100480.603349
100533.817528
100618.955532
100698.169345
100763.596428
100830.742292
100912.271488
100996.687554
101047.493286
101062.262225
101066.309039
101069.245392
101072.759179
101076.78588
101080.869561
101084.73569
101088.302217
100443.858621
100488.835636
100478.139187
100492.050112
100544.778575
100628.246915
100707.660098
100773.641984
100840.814801
100922.347925
101008.288141
101060.904452
101076.102438
101080.035555
101082.788058
101086.117464
101089.978555
101093.91115
101097.634553
101101.066577
100449.956874
100503.75139
100491.065603
100504.577557
100554.198245
100636.41827
100716.262668
100782.504889
100849.697064
100932.662384
101020.659325
101074.380605
101089.848437
101093.655576
101096.225432
101099.369785
101103.059236
101106.831276
101110.402242
101113.692726
100455.883633
100520.997783
100507.499549
100516.57493
100560.825596
100642.093685
100722.836999
100790.112546
100859.355858
100944.452569
101033.67096
101087.996864
101103.405779
101107.021076
101109.405677
101112.375639
101115.90288
101119.522191
101122.948518
101126.103121
100457.682461
100536.399855
100522.639232
100524.998327
100562.61607
100642.992477
100726.568424
100797.330138
100870.03306
100957.664645
101048.142048
101101.999668
101116.712714
101120.034881
101122.234903
101125.043948
101128.416611
101131.891016
101135.183728
101138.211332
100452.809439
100545.714633
100532.297234
100532.068592
100561.027028
100638.714331
100727.373353
100804.139554
100881.877924
100973.360966
101064.706134
101116.311857
101129.642393
101132.610781
101134.643232
101137.306583
101140.524013
101143.84945
101147.008774
101149.915587
100451.160292
100551.342485
100537.812667
100537.573566
100558.683852
100631.395833
100725.744085
100809.729776
100892.483551
100987.787113
101079.99014
101129.788075
101141.930485
101144.606083
101146.494163
101149.014496
101152.076183
101155.266185
101158.318528
101161.144973
100453.543395
100556.126319
100542.510267
100542.290879
100556.770414
100623.835585
100722.519163
100813.19456
100900.270409
100997.564066
101090.928812
101141.20205
101153.314657
101155.85015
101157.596797
101159.967329
101162.932888
101166.067112
101169.077742
101171.863034
100454.194942
100560.592917
100546.227469
100546.01379
100555.302263
100616.941806
100718.381807
100814.381018
100905.468847
101005.183359
101100.037217
101151.26991
101163.752652
101166.243511
101167.868818
101170.167053
101173.111813
101176.234771
101179.23121
101181.997479
100448.870563
100565.217933
100550.603956
100548.690467
100554.242411
100610.387461
100713.491845
100814.242898
100908.385256
101010.114024
101106.899251
101160.096319
101173.255005
101175.768245
101177.322644
101179.58308
101182.527974
101185.674418
101188.697999
101191.488436
100441.252123
100571.739383
100556.812758
100550.965768
100555.107936
100606.90731
100710.359002
100815.242765
100911.75704
101013.564564
101111.768467
101167.599456
101181.815376
101184.407005
101185.927267
101188.142216
101191.113427
101194.330738
101197.437921
101200.312711
100439.037952
100577.911894
100558.924893
100551.309637
100555.322322
100606.524601
100710.905082
100818.064736
100915.975028
101017.832442
101116.044468
101174.060384
101189.417799
101192.134411
101193.648979
101195.870735
101198.897245
101202.2284
101205.472669
101208.483884
100435.256828
100581.145387
100558.113806
100550.130339
100553.707406
100605.54267
100711.845496
100821.175606
100920.255338
101022.269145
101120.500857
101179.821356
101196.043232
101198.932089
101200.49002
101202.791099
101205.939962
101209.43597
101212.859012
101216.041985
100428.90221
100582.157442
100557.261291
100547.407989
100550.488285
100603.367662
100713.29208
100826.102959
100925.937154
101026.815484
101124.698442
101184.74573
101201.694476
101204.810131
101206.49077
101208.910654
101212.266397
101215.996184
101219.653033
101223.052444
100415.111751
100582.222048
100559.013311
100544.553439
100546.700572
100599.671573
100714.296164
100831.78954
100932.657864
101032.107822
101128.617141
101188.963814
101206.47385
101209.837661
101211.727522
101214.34705
101217.9423
101221.961391
101225.911051
101229.588544
100393.906486
100584.46584
100565.213867
100543.457933
100543.058291
100595.079594
100713.345633
100835.946718
100938.743665
101037.524799
101132.774066
101192.838595
101210.553435
101214.170041
101216.339497
101219.245035
101223.138272
101227.47589
101231.751176
101235.74727
100383.604734
100588.522518
100568.856347
100540.080144
100537.585032
100589.898268
100710.834722
100837.669884
100942.538528
101041.346941
101136.14651
101196.306658
101214.148796
101218.050374
101220.553665
101223.803572
101228.049806
101232.741106
101237.361727
101241.689628
100373.734228
100587.375034
100564.996216
100533.121042
100531.209977
100583.617849
100707.15791
100837.397362
100943.803403
101042.750323
101137.730694
101198.913373
101217.476658
101221.792409
101224.676316
101228.295376
101232.914107
101237.975719
101242.951229
101247.612093
100360.490193
100580.214407
100559.372514
100526.15861
100524.70741
100576.694774
100702.971522
100836.364602
100943.83543
101042.953338
101138.914784
101201.324737
101220.962458
101225.796255
101229.073017
101233.047586
101238.017947
101243.429503
101248.739759
101253.713428
100336.81715
100571.969591
100557.236022
100522.470043
100519.877961
100571.202567
100699.633488
100835.821337
100944.158882
101043.592788
101140.142542
101204.28918
101225.185083
101230.52108
101234.126175
101238.39011
101243.65096
101249.354899
101254.945355
101260.183479
100326.197253
100573.511566
100563.435153
100525.222708
100518.520665
100570.203007
100699.772017
100837.588986
100946.190188
101044.738843
101141.625399
101208.209509
101230.624328
101236.347115
101240.147483
101244.586866
101250.040783
101255.950537
101261.743395
101267.17774
100325.723687
100581.121801
100570.848092
100529.555878
100519.980428
100572.836645
100703.518708
100841.733138
100949.433165
101046.458819
101143.912893
101213.357948
101237.425274
101243.414592
101247.276917
101251.770385
101257.306656
101263.323951
101269.234371
101274.790927
100326.140295
100586.149388
100573.936507
100531.585276
100522.815934
100577.706669
100709.707733
100846.907656
100952.721427
101048.310635
101146.762949
101219.449993
101245.388218
101251.631062
101255.478318
101259.934857
101265.457394
101271.493026
101277.442864
101283.054095
100326.987331
100588.530981
100576.79871
100534.120987
100526.362907
100582.761206
100715.507506
100851.707768
100955.159069
101049.47238
101149.277182
101225.888604
101254.235764
101260.809618
101264.612761
101268.978408
101274.421112
101280.409534
101286.340807
101291.955358
100324.917588
100585.77703
100580.803052
100539.317855
100530.485053
100586.933701
100720.157128
100854.927198
100956.735814
101050.776617
101152.889686
101233.541485
101263.934528
101270.761357
101274.495785
101278.74396
101284.075004
101289.986013
101295.870483
101301.452786
100311.212152
100576.662011
100585.295498
100547.808756
100535.97519
100591.357493
100723.332397
100856.718944
100959.061757
101055.517905
101160.758241
101243.335718
101274.402596
101281.308821
101284.948064
101289.071558
101294.287724
101300.121267
101305.94888
101311.479347
100311.462224
100566.994248
100587.432741
100554.99491
100540.927369
100595.157061
100724.488579
100857.879646
100963.256205
101063.370696
101170.734548
101254.055678
101285.455264
101292.330686
101295.858345
101299.86021
101304.972395
101310.730373
101316.491688
101321.96956
100313.34048
100564.304512
100588.023521
100558.502199
100545.918165
100597.580926
100724.134232
100859.248584
100968.715706
101072.137729
101181.272125
101265.363879
101296.969465
101303.761416
101307.174655
101311.0621
101316.078199
101321.752662
101327.449764
101332.896475
100315.449222
100563.187878
100591.390625
100562.560789
100551.160226
100599.418917
100723.772827
100861.42651
100974.740431
101081.116764
101192.126663
101277.100972
101308.862651
101315.560739
101318.861696
101322.639108
101327.554343
101333.142635
101338.802006
101344.216919
100317.013181
100559.098987
100598.386086
100569.573178
100556.633235
100601.956875
100724.488266
100864.51625
100981.318482
101090.649367
101203.372291
101289.178401
101321.092801
101327.693361
101330.878401
101334.539687
101339.347508
101344.87903
101350.502374
101355.882635
100296.715156
100552.954359
100609.946336
100581.76269
100563.733321
100606.628097
100726.814197
100868.747872
100989.554227
101101.297235
101215.46191
101301.810814
101333.674291
101340.122983
101343.178497
101346.718436
101351.436177
101356.92492
101362.514389
101367.861481
101004.213979
101007.405379
101008.813996
101009.341538
101009.829055
101010.634064
101012.308129
101014.456318
101015.501271
101015.753666
101015.907043
101016.035325
101016.141655
101016.228584
101016.298432
101016.352786
101016.389137
101016.404171
101016.402278
101016.405686
101016.291491
101019.464172
101020.848696
101021.323552
101021.758582
101022.509161
101024.131073
101026.269154
101027.322158
101027.55625
101027.688507
101027.799051
101027.890669
101027.965566
101028.025742
101028.072439
101028.102902
101028.113756
101028.10924
101028.112145
101028.571413
101031.716535
101033.06889
101033.484776
101033.862238
101034.556372
101036.124481
101038.248418
101039.304883
101039.518233
101039.627583
101039.718937
101039.794743
101039.856828
101039.906857
101039.945783
101039.970461
101039.977097
101039.969795
101039.971484
101041.027678
101044.130559
101045.439122
101045.790006
101046.105547
101046.741779
101048.257526
101050.361897
101051.414592
101051.604349
101051.688959
101051.759642
101051.818464
101051.866834
101051.906067
101051.936686
101051.955154
101051.957343
101051.947217
101051.947731
101053.622786
101056.669007
101057.921575
101058.201599
101058.451069
101059.027428
101060.490783
101062.570056
101063.612195
101063.775613
101063.83363
101063.882095
101063.922638
101063.956208
101063.983687
101064.005237
101064.01687
101064.014132
101064.000903
101064.000205
101066.309917
101069.287056
101070.474908
101070.678168
101070.857139
101071.370754
101072.77838
101074.82791
101075.855076
101075.989869
101076.01953
101076.044291
101076.065299
101076.083004
101076.097863
101076.109604
101076.113874
101076.105822
101076.089306
101076.087337
101079.036746
101081.936869
101083.052907
101083.173176
101083.276867
101083.723938
101085.071613
101087.088155
101088.097791
101088.202131
101088.201942
101088.201765
101088.202255
101088.203343
101088.205022
101088.206572
101088.203115
101088.189571
101088.169579
101088.166216
101091.753889
101094.567815
101095.602593
101095.634031
101095.65813
101096.035323
101097.32084
101099.30278
101100.292691
101100.365142
101100.334089
101100.308138
101100.287392
101100.271218
101100.259122
101100.249951
101100.238463
101100.219074
101100.195511
101100.190832
101104.399312
101107.118226
101108.064234
101108.003198
101107.945414
101108.251764
101109.47624
101111.42238
101112.389885
101112.429454
101112.36707
101112.314989
101112.272778
101112.239251
101112.213437
101112.193665
101112.174116
101112.149057
101112.121882
101112.115731
101116.902794
101119.519978
101120.374398
101120.220966
101120.081932
101120.319174
101121.485142
101123.3944
101124.338169
101124.34508
101124.251789
101124.173955
101124.110543
101124.059783
101124.020186
101123.989683
101123.962097
101123.931124
101123.900372
101123.892982
101129.191184
101131.705081
101132.470128
101132.227755
101132.010721
101132.182053
101133.290159
101135.164009
101136.085863
101136.061823
101135.938875
101135.836346
101135.752681
101135.685576
101135.633103
101135.592645
101135.557445
101135.521142
101135.486968
101135.478187
101141.180594
101143.605617
101144.28953
101143.964882
101143.675227
101143.783682
101144.836303
101146.677649
101147.583345
101147.532037
101147.38188
101147.256685
101147.154369
101147.072091
101147.007433
101146.95747
101146.915124
101146.87346
101146.836083
101146.826324
101152.785464
101155.142765
101155.771462
101155.375538
101155.020821
101155.069851
101156.070386
101157.885507
101158.784352
101158.711029
101158.537013
101158.391923
101158.273318
101158.177923
101158.102988
101158.045068
101157.996556
101157.950574
101157.910381
101157.899528
101163.95648
101166.265423
101166.859543
101166.406923
101165.997709
101165.994215
101166.947566
101168.745162
101169.648747
101169.560292
101169.36704
101169.205882
101169.074064
101168.967901
101168.884249
101168.819501
101168.765798
101168.715748
101168.673158
101168.661788
101174.634687
101176.921115
101177.50371
101177.013443
101176.564161
101176.519417
101177.43303
101179.222142
101180.142677
101180.047086
101179.840057
101179.667347
101179.526121
101179.412433
101179.322981
101179.253726
101179.196392
101179.143769
101179.099406
101179.087442
101184.755092
101187.056703
101187.662966
101187.159243
101186.68795
101186.61633
101187.499758
101189.289516
101190.240588
101190.147728
101189.933727
101189.75509
101189.609003
101189.491321
101189.398515
101189.326587
101189.267119
101189.21251
101189.167022
101189.155192
101194.27599
101196.636913
101197.308957
101196.819427
101196.346958
101196.264601
101197.128092
101198.92821
101199.925735
101199.847155
101199.633801
101199.455492
101199.309779
101199.192513
101199.100249
101199.028717
101198.969268
101198.914615
101198.868884
101198.857161
101203.183934
101205.648006
101206.427039
101205.981407
101205.53075
101205.454748
101206.309819
101208.131999
101209.194149
101209.143128
101208.939293
101208.7686
101208.629165
101208.516934
101208.428484
101208.359838
101208.302374
101208.248601
101208.203492
101208.19271
101211.485729
101214.094246
101215.018182
101214.647531
101214.243392
101214.19434
101215.055302
101216.91245
101218.056102
101218.045813
101217.860688
101217.705137
101217.578224
101217.476237
101217.396143
101217.333924
101217.28099
101217.230312
101217.186886
101217.177061
101219.212365
101222.001554
101223.103577
101222.838884
101222.507321
101222.508968
101223.395973
101225.301731
101226.539263
101226.581869
101226.425131
101226.292682
101226.184732
101226.098028
101226.029868
101225.976817
101225.930527
101225.884022
101225.843249
101225.835254
101226.423707
101229.423371
101230.729519
101230.599878
101230.367146
101230.444045
101231.380385
101233.348236
101234.687271
101234.792919
101234.673505
101234.571488
101234.488549
101234.422152
101234.370311
101234.329815
101234.292654
101234.252459
101234.21539
101234.209236
101233.207501
101236.443253
101237.96992
101238.000918
101237.891137
101238.065549
101239.071874
101241.113887
101242.560408
101242.738005
101242.664119
101242.59928
101242.546787
101242.50493
101242.472346
101242.446674
101242.420345
101242.387317
101242.354764
101242.35122
101239.663929
101243.163275
101244.925166
101245.137155
101245.169363
101245.458404
101246.549043
101248.674212
101250.233279
101250.489661
101250.467367
101250.444637
101250.426644
101250.412699
101250.402414
101250.39388
101250.380119
101250.355796
101250.328484
101250.327458
101245.921613
101249.705192
101251.71837
101252.123851
101252.309216
101252.722656
101253.905262
101256.11984
101257.79426
101258.13339
101258.166539
101258.189087
101258.208121
101258.224
101258.237154
101258.246659
101258.2461
101258.230678
101258.20897
101258.210982
101252.152565
101256.22038
101258.489116
101259.089027
101259.428996
101259.968429
101261.247232
101263.55297
101265.339839
101265.760955
101265.850058
101265.918315
101265.974752
101266.020851
101266.058085
101266.086082
101266.099131
101266.093125
101266.077164
101266.081933
101258.541265
101262.875116
101265.382223
101266.16445
101266.650529
101267.309908
101268.684313
101271.078359
101272.968808
101273.466833
101273.609524
101273.721639
101273.813961
101273.888988
101273.948991
101273.99452
101274.020388
101274.023091
101274.012615
101274.020304
101265.258335
101269.822742
101272.534108
101273.475382
101274.090204
101274.856567
101276.316895
101278.79152
101280.773406
101281.340103
101281.530914
101281.682434
101281.807048
101281.908193
101281.989013
101282.050531
101282.08818
101282.099005
101282.093525
101282.103653
101272.442503
101277.187059
101280.06006
101281.129426
101281.848805
101282.703154
101284.233818
101286.773758
101288.83443
101289.460458
101289.692
101289.876892
101290.028919
101290.152236
101290.25056
101290.325575
101290.373059
101290.390578
101290.389326
101290.401744
101280.182665
101285.052468
101288.043481
101289.206695
101290.002665
101290.921603
101292.50134
101295.088992
101297.216752
101297.892556
101298.15606
101298.367056
101298.540597
101298.681397
101298.793713
101298.87949
101298.934906
101298.957845
101298.959957
101298.974103
101288.515243
101293.462013
101296.531867
101297.755691
101298.600104
101299.558886
101301.164572
101303.783501
101305.968421
101306.685173
101306.971811
101307.20158
101307.390694
101307.544197
101307.666603
101307.760189
101307.821243
101307.847994
101307.852535
101307.868099
101297.436186
101302.421572
101305.539526
101306.796022
101307.664022
101308.640513
101310.253668
101312.887245
101315.120595
101315.870241
101316.171643
101316.413157
101316.612094
101316.773679
101316.902634
101317.001275
101317.066041
101317.095263
101317.101358
101317.11784
101306.914644
101311.908971
101315.0567
101316.326314
101317.19862
101318.175801
101319.780699
101322.415384
101324.689348
101325.465046
101325.774105
101326.021365
101326.225239
101326.39097
101326.52329
101326.624557
101326.691142
101326.72154
101326.728417
101326.745504
101316.905736
101321.892581
101325.062141
101326.332569
101327.195681
101328.161406
101329.744816
101332.36916
101334.677218
101335.474232
101335.785302
101336.033417
101336.238188
101336.404786
101336.537918
101336.639845
101336.706889
101336.737501
101336.744541
101336.761884
101327.371011
101332.350221
101335.528766
101336.793143
101337.638339
101338.58379
101340.135022
101342.73763
101345.076182
101345.892857
101346.201992
101346.447393
101346.650148
101346.815279
101346.947364
101347.048512
101347.114899
101347.145002
101347.151776
101347.16914
101338.273865
101343.23751
101346.424101
101347.681279
101348.503379
101349.421755
101350.931338
101353.50238
101355.871469
101356.709171
101357.014009
101357.254334
101357.453111
101357.615174
101357.744951
101357.844418
101357.909585
101357.938787
101357.945048
101357.962262
101349.561901
101354.509335
101357.714104
101358.967269
101359.763695
101360.650237
101362.110957
101364.643671
101367.045353
101367.907
101368.206449
101368.440388
101368.63415
101368.792368
101368.919301
101369.01666
101369.080304
101369.108504
101369.114204
101369.131406
101361.192455
101366.130898
101369.366624
101370.621088
101371.391548
101372.24449
101373.653295
101376.144509
101378.579872
101379.468094
101379.761986
101379.989026
101380.177337
101380.331339
101380.455101
101380.550232
101380.612399
101380.639632
101380.644993
101380.661212
101373.142807
101378.080658
101381.353971
101382.615658
)
;

boundaryField
{
    emptyPatch
    {
        type            empty;
    }
    minY
    {
        type            zeroGradient;
    }
    maxY
    {
        type            prghTotalPressure;
        U               U.gas;
        p0              nonuniform List<scalar> 0();
        value           nonuniform List<scalar> 0();
    }
    water_to_cooler
    {
        type            fixedFluxPressure;
        gradient        uniform 0;
        value           nonuniform List<scalar> 
37
(
101016.405686
101028.112145
101039.971484
101051.947731
101064.000205
101076.087337
101088.166216
101100.190832
101112.115731
101123.892982
101135.478187
101146.826324
101157.899528
101168.661788
101179.087442
101189.155192
101198.857161
101208.19271
101217.177061
101225.835254
101234.209236
101242.35122
101250.327458
101258.210982
101266.081933
101274.020304
101282.103653
101290.401744
101298.974103
101307.868099
101317.11784
101326.745504
101336.761884
101347.16914
101357.962262
101369.131406
101380.661212
)
;
    }
    water_to_heater
    {
        type            fixedFluxPressure;
        gradient        uniform 0;
        value           nonuniform List<scalar> 
60
(
100423.603227
100423.603227
100422.494026
100422.494026
100421.235522
100421.235522
100426.476281
100432.311597
100434.269864
100434.269864
100437.77099
100437.77099
100443.858621
100443.858621
100449.956874
100455.883633
100457.682461
100457.682461
100452.809439
100452.809439
100451.160292
100451.160292
100453.543395
100454.194942
100448.870563
100448.870563
100441.252123
100441.252123
100439.037952
100439.037952
100435.256828
100428.90221
100415.111751
100415.111751
100393.906486
100393.906486
100383.604734
100383.604734
100373.734228
100360.490193
100336.81715
100336.81715
100326.197253
100326.197253
100325.723687
100325.723687
100326.140295
100326.987331
100324.917588
100324.917588
100311.212152
100311.212152
100311.462224
100311.462224
100313.34048
100315.449222
100317.013181
100317.013181
100296.715156
100296.715156
)
;
    }
    procBoundary1to0
    {
        type            processor;
        value           nonuniform List<scalar> 
41
(
100268.032392
100554.535829
100623.304331
100598.54145
100574.042194
100614.033903
100730.478727
100874.757114
100999.664513
101114.029773
101229.412438
101315.429419
101346.677102
101352.839699
101355.742349
101359.16506
101363.810959
101369.248782
101374.809094
101380.13791
101383.361953
101384.182535
101385.540847
101387.989563
101390.457
101391.373277
101391.66187
101391.881851
101392.06456
101392.214244
101392.334852
101392.427752
101392.488402
101392.514681
101392.519408
101392.534861
101385.401689
101390.342857
101393.656087
101383.361953
101394.928789
)
;
    }
    procBoundary1to3
    {
        type            processor;
        value           nonuniform List<scalar> 
41
(
100669.78277
100739.636919
100824.349459
100903.364242
100944.624984
100956.765844
100961.581745
100965.686139
100970.195898
100974.959891
100979.683546
100984.173071
100988.358902
100419.068015
100432.494365
100425.997222
100440.212666
100491.134012
100559.18236
100620.581619
100620.581619
100992.365288
100995.570769
100996.997624
100997.57182
100998.106343
100998.960549
101000.68284
101002.838716
101003.873631
101004.142372
101004.315013
101004.459477
101004.579179
101004.677004
101004.75559
101004.816731
101004.858239
101004.877142
101004.877698
101004.882
)
;
    }
}


// ************************************************************************* //
