/*--------------------------------*- C++ -*----------------------------------*\
| =========                 |                                                 |
| \\      /  F ield         | OpenFOAM: The Open Source CFD Toolbox           |
|  \\    /   O peration     | Version:  2312                                  |
|   \\  /    A nd           | Website:  www.openfoam.com                      |
|    \\/     M anipulation  |                                                 |
\*---------------------------------------------------------------------------*/
FoamFile
{
    version     2.0;
    format      ascii;
    arch        "LSB;label=32;scalar=64";
    class       volScalarField;
    location    "0.495/water";
    object      p;
}
// * * * * * * * * * * * * * * * * * * * * * * * * * * * * * * * * * * * * * //

dimensions      [1 -1 -2 0 0 0 0];

internalField   nonuniform List<scalar> 
1504
(
101106.914041
101107.372226
101107.778992
101107.950419
101107.993543
101107.968042
101107.934683
101108.143758
101108.690264
101109.474116
101110.339083
101111.356925
101112.452047
101113.641871
101114.651865
101115.485762
101116.346959
101117.46187
101118.56743
101119.645022
101103.47117
101103.768074
101104.173823
101104.332212
101104.373452
101104.367649
101104.309692
101104.375568
101104.653253
101105.053893
101105.401062
101105.76387
101106.414365
101106.982073
101107.468195
101107.75558
101108.031462
101108.927813
101109.795348
101110.539557
101099.839965
101100.162848
101100.593678
101100.763208
101100.82222
101100.841834
101100.780415
101100.767014
101100.869888
101100.929681
101100.691044
101100.596626
101100.645089
101100.799081
101100.745898
101100.200131
101100.215952
101100.76862
101101.370059
101101.820158
101096.568287
101096.770528
101097.13085
101097.30118
101097.376927
101097.39374
101097.305698
101097.204817
101097.078148
101096.614613
101095.764889
101095.113677
101094.788162
101094.323201
101093.803926
101093.021797
101092.340098
101092.550421
101092.882303
101093.070298
101092.76718
101093.035114
101093.37938
101093.522863
101093.596301
101093.530313
101093.314563
101093.016207
101092.492152
101091.274716
101089.870903
101089.058191
101088.220581
101087.446467
101086.462301
101084.876856
101084.003966
101083.87292
101083.947208
101083.950119
101087.368887
101088.013571
101088.724057
101088.929942
101088.911601
101088.634616
101088.175235
101087.543427
101086.300254
101084.367097
101082.929096
101081.687624
101080.571886
101079.331877
101077.93596
101076.213388
101074.778861
101074.414332
101074.338251
101074.274217
101079.75609
101080.953745
101082.348132
101082.637154
101082.425882
101081.882934
101081.161189
101079.999741
101077.874736
101075.890576
101074.304007
101072.98958
101071.558801
101070.119464
101068.422423
101065.982652
101064.690599
101064.212414
101064.043513
101063.903585
101071.05366
101072.518365
101074.494743
101074.717714
101074.179891
101073.332429
101072.157415
101070.018987
101067.7032
101065.851827
101064.386451
101062.747335
101061.161749
101059.490644
101057.201264
101055.035046
101053.702297
101053.03864
101052.676908
101052.433705
101062.298478
101063.573914
101065.674426
101065.653224
101064.721221
101063.380095
101061.177076
101058.595292
101056.45364
101054.835014
101052.969909
101051.210228
101049.373461
101047.353742
101045.128124
101042.682984
101041.316744
101040.370417
101039.783496
101039.423301
101053.872966
101054.400244
101055.973677
101055.550919
101054.041271
101051.707649
101048.807303
101046.262364
101044.458699
101042.343314
101040.405973
101038.365889
101036.194236
101034.018174
101031.130034
101028.892432
101027.260153
101025.935496
101025.010209
101024.495398
101045.756775
101044.78978
101046.450498
101045.209702
101042.413443
101038.893565
101035.641413
101033.454063
101030.944929
101028.739402
101026.406995
101023.940701
101021.558374
101018.713009
101015.984865
101013.427408
101011.411957
101009.610171
101008.332116
101007.60534
101036.989009
101033.722913
101034.410141
101031.906653
101027.920614
101023.845908
101021.076627
101018.051437
101015.465466
101012.787258
101010.024644
101007.483377
101004.488721
101001.63435
100998.450483
100996.019524
100993.606873
100991.466464
100989.96831
100989.371459
101021.248778
101015.118462
101014.387692
101012.065948
101008.506942
101004.853216
101001.224731
100998.233151
100995.481983
100992.24719
100989.572357
100986.265899
100983.579963
100980.558147
100978.29654
100975.911426
100973.49755
100971.42175
100970.093274
100969.540159
100986.133866
100977.086041
100976.329495
100975.298665
100973.532989
100971.192928
100968.697648
100966.492612
100963.376846
100961.078004
100958.943041
100957.54462
100955.918939
100954.72281
100953.497305
100952.138914
100950.723651
100949.462789
100948.593473
100948.401228
100912.879475
100903.1922
100903.146349
100904.098184
100905.82789
100908.28908
100910.579189
100912.348676
100914.481781
100916.804351
100919.104418
100920.813685
100922.182129
100923.333772
100924.337851
100925.195613
100925.860233
100926.304595
100926.596852
100926.937087
100849.447893
100846.085545
100848.82019
100850.137793
100851.387612
100853.365285
100856.752754
100861.706555
100867.462823
100873.333893
100878.764316
100883.56765
100887.740102
100891.474495
100894.862819
100897.986208
100900.819207
100903.235484
100904.937224
100905.894293
100833.595862
100834.155626
100835.084449
100835.466887
100835.601826
100835.81047
100836.448004
100838.125671
100841.180965
100845.364471
100850.215358
100855.469786
100860.704748
100865.608712
100870.176304
100874.430503
100878.385749
100882.020036
100884.917484
100886.563264
100829.432368
100829.971804
100830.661683
100830.79587
100830.69133
100830.472581
100830.305197
100830.299021
100830.891849
100832.445743
100835.024873
100838.627174
100842.992563
100847.546474
100851.982346
100856.204077
100860.204534
100863.967235
100867.332279
100869.628521
100824.050429
100824.747511
100825.436967
100825.694424
100825.721253
100825.645157
100825.514093
100825.371508
100825.391776
100825.895685
100827.122584
100829.1561
100832.037284
100835.479379
100839.076468
100842.62395
100846.065658
100849.348733
100852.440289
100854.871514
100819.895951
100820.305861
100820.76879
100820.959065
100820.975842
100820.921698
100820.849924
100820.795828
100820.763418
100821.008341
100821.726754
100822.948552
100824.748133
100827.074185
100829.677279
100832.37149
100835.045761
100837.662791
100840.098601
100842.135409
100815.2154
100815.67538
100816.27986
100816.503776
100816.542384
100816.491465
100816.436814
100816.392108
100816.38954
100816.575006
100817.101393
100817.953243
100819.138884
100820.635041
100822.361913
100824.254746
100826.182673
100828.100085
100829.830395
100831.173753
100811.497518
100811.742261
100812.28644
100812.462184
100812.457479
100812.402853
100812.33276
100812.306278
100812.317276
100812.487651
100812.904491
100813.518446
100814.281066
100815.137177
100816.156143
100817.388305
100818.667909
100819.947776
100821.050182
100821.681629
100807.726591
100807.798383
100808.333574
100808.502812
100808.523073
100808.471807
100808.438263
100808.423838
100808.477385
100808.643875
100808.96979
100809.391861
100809.829517
100810.177008
100810.59169
100811.227143
100811.916305
100812.649277
100813.213578
100813.153434
100804.595093
100804.421921
100804.768246
100804.880228
100804.860538
100804.827745
100804.802363
100804.842329
100804.935416
100805.11763
100805.384002
100805.664442
100805.813729
100805.58639
100805.356241
100805.377315
100805.506062
100805.782998
100805.860551
100805.185744
100801.349839
100800.863791
100801.183247
100801.250773
100801.256118
100801.249589
100801.289371
100801.370904
100801.512878
100801.712699
100801.918847
100802.022895
100801.708794
100800.726196
100799.867378
100799.270499
100798.963221
100798.895361
100798.520452
100797.320238
100797.364945
100796.834228
100797.501645
100797.601286
100797.595058
100797.583815
100797.588583
100797.652874
100797.76103
100797.87155
100797.912134
100797.680722
100796.575595
100794.872388
100793.517758
100792.352015
100791.851037
100791.53621
100790.755453
100789.190807
100792.00898
100791.575798
100792.744001
100792.916856
100792.87205
100792.775733
100792.701648
100792.679681
100792.656605
100792.594656
100792.383616
100791.578378
100789.470935
100787.343167
100785.395202
100784.090596
100783.774047
100783.267814
100782.114569
100780.350755
100784.349372
100784.115611
100785.662117
100785.87709
100785.712249
100785.483227
100785.292163
100785.138535
100784.977609
100784.751988
100784.178965
100782.409603
100779.838609
100777.386782
100775.035948
100774.48938
100774.382749
100773.622971
100772.266158
100770.583572
100775.127295
100774.707142
100776.214194
100776.289814
100775.875965
100775.414517
100775.033361
100774.722391
100774.421156
100773.95583
100772.734187
100770.226057
100767.402819
100764.344941
100763.233702
100763.609908
100763.452619
100762.455
100761.178946
100759.762613
100764.8193
100763.567649
100764.507026
100764.327643
100763.680704
100763.050742
100762.514735
100762.024653
100761.462397
100760.474034
100758.387745
100755.504589
100752.257325
100750.424769
100750.980142
100751.493949
100751.066138
100749.953977
100748.866117
100747.471825
100750.997123
100748.783908
100750.319827
100750.166556
100749.547835
100748.965307
100748.359745
100747.639953
100746.634268
100744.903634
100742.295516
100739.266555
100736.993195
100737.31264
100738.168116
100738.278864
100737.497
100736.45233
100735.370596
100734.108266
100732.111324
100729.527764
100732.209635
100732.532015
100732.331938
100732.143322
100731.735812
100730.958182
100729.643796
100727.673235
100725.36659
100723.378053
100723.205228
100723.908658
100724.22284
100724.119828
100723.355444
100722.496832
100721.509611
100720.20501
100705.693422
100704.587618
100708.353396
100709.470474
100710.022887
100710.621648
100711.038531
100711.026899
100710.473796
100709.581186
100708.691498
100708.344398
100708.818501
100709.291982
100709.7912
100709.795508
100709.292127
100708.682789
100707.799929
100706.719478
100679.238198
100679.902077
100682.833513
100684.190572
100685.314968
100686.809782
100688.61158
100690.267139
100691.470126
100692.302241
100692.974253
100693.747637
100694.68944
100695.657778
100696.363806
100696.507746
100696.295793
100695.967691
100695.339888
100694.315408
100668.126957
100668.072173
100668.354164
100668.831751
100669.19619
100670.052371
100671.923776
100674.283713
100676.548463
100678.538987
100680.203131
100681.793358
100683.243024
100684.392872
100685.040438
100685.19942
100685.137095
100684.960866
100684.522148
100683.917455
100666.135641
100666.093553
100666.041179
100665.997627
100665.857772
100665.421009
100665.438543
100666.408946
100667.993276
100669.685986
100671.295357
100672.839241
100674.171149
100675.117148
100675.599304
100675.761745
100675.803937
100675.765781
100675.556677
100675.135605
100664.779182
100664.751098
100664.731145
100664.705903
100664.668816
100664.412248
100663.956
100663.827659
100664.201809
100664.749726
100665.32179
100665.925101
100666.534322
100667.020991
100667.337233
100667.566719
100667.718585
100667.800396
100667.754608
100667.63751
100663.675673
100663.687706
100663.694767
100663.693414
100663.688391
100663.536668
100663.118696
101136.028946
101137.036605
101137.870419
101138.563627
101139.142098
101139.625072
101140.026566
101140.35759
101140.628049
101140.8464
101141.019785
101141.154235
101141.255058
101141.327095
101141.375455
101141.405711
101141.416694
101120.957554
101122.276238
101123.40224
101124.345291
101125.131262
101125.78512
101126.33018
101126.785622
101127.165985
101127.481826
101127.741978
101127.954368
101128.125724
101128.261608
101128.366812
101128.445522
101128.501637
101128.53923
101128.562963
101128.572783
101111.312844
101112.112262
101112.805673
101113.401262
101113.90666
101114.330132
101114.684202
101114.980515
101115.227845
101115.432573
101115.600528
101115.737046
101115.846583
101115.932819
101115.99895
101116.047835
101116.08216
101116.104838
101116.119353
101116.126316
101102.131181
101102.428511
101102.673467
101102.897292
101103.096971
101103.266473
101103.408319
101103.526729
101103.62461
101103.704058
101103.767637
101103.817825
101103.856661
101103.885794
101103.906723
101103.920853
101103.929607
101103.934605
101103.938091
101103.940917
101093.014911
101092.870076
101092.686354
101092.543039
101092.436055
101092.348232
101092.273469
101092.209169
101092.15279
101092.102417
101092.057384
101092.017348
101091.981967
101091.950898
101091.92394
101091.901055
101091.88238
101091.868301
101091.859786
101091.857505
101083.649234
101083.1393
101082.563959
101082.07447
101081.674695
101081.339356
101081.055141
101080.813354
101080.606592
101080.429299
101080.277748
101080.148927
101080.040269
101079.94954
101079.874936
101079.815036
101079.768787
101079.735391
101079.714625
101079.706582
101073.81747
101072.997192
101072.065763
101071.255151
101070.583115
101070.017659
101069.538808
101069.13207
101068.785553
101068.490281
101068.239609
101068.028041
101067.85095
101067.704367
101067.584999
101067.490167
101067.417729
101067.365879
101067.333296
101067.319144
101063.306297
101062.209153
101060.95688
101059.854169
101058.937523
101058.167486
101057.517056
101056.96578
101056.497378
101056.099537
101055.762824
101055.479458
101055.242957
101055.047794
101054.889372
101054.763904
101054.668361
101054.600102
101054.556901
101054.536678
101051.759159
101050.468453
101048.962233
101047.620066
101046.506258
101045.573582
101044.788531
101044.125017
101043.562742
101043.086357
101042.683991
101042.345944
101042.064199
101041.831978
101041.64363
101041.49452
101041.380962
101041.299806
101041.248136
101041.222384
101038.774394
101037.439531
101035.793239
101034.301193
101033.067235
101032.03728
101031.173402
101030.445345
101029.829864
101029.30942
101028.870461
101028.502013
101028.195085
101027.942105
101027.736793
101027.574017
101027.449813
101027.360875
101027.303962
101027.273869
101023.987155
101022.82502
101021.212377
101019.700092
101018.452667
101017.413863
101016.545092
101015.814809
101015.198708
101014.67848
101014.24005
101013.872118
101013.565489
101013.312464
101013.10667
101012.942972
101012.817549
101012.727461
101012.669551
101012.636979
101007.318719
101006.508404
101005.131208
101003.743923
101002.601223
101001.653145
101000.863202
101000.201529
100999.644686
100999.175129
100998.779536
100998.447339
100998.170033
100997.940539
100997.753054
100997.602978
100997.487167
100997.403535
100997.349572
100997.316964
100989.107147
100988.575704
100987.594261
100986.475923
100985.556812
100984.803204
100984.180291
100983.662054
100983.227651
100982.861864
100982.553495
100982.293874
100982.076172
100981.894785
100981.745179
100981.62391
100981.529001
100981.459792
100981.414987
100981.385155
100969.097821
100968.946614
100968.584732
100967.968226
100967.431739
100966.996124
100966.638032
100966.342172
100966.094623
100965.885425
100965.707634
100965.556083
100965.426875
100965.31686
100965.223596
100965.145424
100965.082087
100965.034785
100965.004059
100964.979918
100948.216188
100948.427758
100948.561892
100948.583266
100948.551305
100948.53158
100948.51698
100948.506949
100948.497807
100948.487186
100948.474183
100948.458522
100948.440323
100948.419766
100948.397171
100948.373231
100948.349787
100948.330267
100948.317478
100948.301617
100927.426959
100927.851083
100928.254998
100928.866027
100929.397027
100929.845123
100930.215408
100930.523829
100930.779247
100930.988265
100931.157047
100931.290999
100931.394873
100931.472653
100931.527821
100931.5637
100931.58445
100931.595762
100931.602921
100931.597143
100906.954724
100907.614689
100908.381159
100909.432869
100910.514887
100911.435105
100912.189865
100912.812594
100913.32736
100913.750807
100914.096616
100914.376066
100914.598602
100914.772023
100914.902936
100914.997267
100915.06138
100915.103063
100915.129862
100915.134801
100887.892865
100888.897211
100889.906288
100891.130259
100892.563871
100893.853801
100894.922819
100895.804175
100896.533401
100897.134985
100897.62846
100898.029728
100898.351974
100898.606059
100898.801143
100898.945276
100899.04663
100899.114561
100899.158329
100899.173319
100871.032296
100872.06679
100873.229916
100874.495579
100876.037974
100877.530053
100878.797058
100879.84605
100880.71641
100881.436863
100882.030092
100882.514559
100882.905585
100883.215852
100883.45608
100883.635665
100883.763906
100883.851083
100883.907313
100883.930552
100856.158856
100857.31457
100858.509168
100859.743623
100861.198433
100862.708801
100864.037528
100865.148917
100866.075565
100866.845938
100867.482846
100868.005062
100868.428283
100868.76561
100869.028218
100869.225959
100869.368537
100869.466399
100869.529625
100869.558565
100843.376274
100844.705547
100845.741487
100846.817012
100848.062434
100849.43283
100850.696473
100851.77212
100852.67569
100853.430782
100854.057695
100854.573675
100854.993346
100855.329049
100855.591432
100855.79001
100855.934212
100856.034035
100856.098726
100856.130533
100832.345385
100833.469126
100834.318266
100835.336134
100836.394983
100837.558518
100838.675215
100839.641923
100840.460911
100841.148997
100841.72226
100842.195484
100842.581461
100842.891042
100843.133686
100843.317967
100843.452529
100843.546421
100843.607561
100843.639523
100822.340455
100823.344152
100824.232344
100825.101616
100825.970326
100826.894772
100827.804901
100828.607109
100829.294417
100829.876599
100830.363473
100830.766395
100831.095792
100831.360551
100831.568443
100831.726606
100831.842457
100831.923815
100831.977333
100832.007169
100813.404439
100814.102608
100814.816056
100815.654622
100816.422297
100817.140784
100817.833105
100818.445971
100818.973371
100819.425489
100819.805716
100820.121023
100820.37923
100820.587048
100820.750269
100820.874195
100820.96467
100821.028384
100821.070954
100821.096554
100804.787686
100805.334958
100806.12445
100806.860224
100807.500871
100808.021708
100808.496439
100808.909841
100809.262023
100809.570297
100809.834049
100810.053853
100810.234213
100810.379478
100810.493287
100810.578788
100810.639819
100810.681895
100810.710249
100810.728859
100796.633033
100796.873834
100797.570288
100798.213983
100798.744948
100799.132554
100799.439431
100799.681927
100799.874637
100800.04679
100800.20055
100800.330333
100800.436924
100800.522453
100800.588606
100800.636422
100800.667433
100800.685578
100800.696421
100800.703995
100788.027933
100788.107108
100788.641542
100789.135182
100789.726622
100790.091155
100790.312681
100790.442856
100790.520461
100790.585121
100790.651341
100790.710509
100790.75928
100790.797632
100790.825572
100790.842389
100790.847507
100790.843056
100790.834957
100790.826828
100778.93057
100778.66873
100779.132664
100779.751295
100780.318807
100780.675351
100780.852817
100780.918855
100780.926702
100780.925842
100780.940266
100780.960995
100780.979654
100780.993481
100781.001176
100781.001421
100780.992613
100780.974786
100780.952836
100780.926325
100769.014512
100768.582011
100768.836073
100769.349467
100770.048144
100770.49663
100770.704821
100770.776237
100770.781543
100770.778813
100770.796643
100770.826051
100770.854268
100770.876496
100770.891652
100770.899587
100770.899005
100770.887229
100770.866619
100770.820622
100758.08091
100757.078601
100757.183648
100757.896273
100758.680558
100759.235004
100759.525723
100759.670669
100759.748408
100759.817173
100759.901935
100759.992556
100760.073892
100760.140192
100760.192544
100760.227393
100760.240714
100760.232274
100760.226492
100760.152616
100745.68016
100744.39829
100744.34366
100745.160568
100745.995127
100746.613965
100747.000418
100747.263763
100747.472826
100747.671918
100747.87552
100748.0744
100748.25771
100748.420707
100748.542306
100748.611905
100748.647689
100748.66985
100748.682356
100748.50393
100732.342462
100730.677084
100730.475071
100731.176748
100731.789879
100732.443326
100732.91125
100733.2896
100733.640968
100733.98987
100734.343962
100734.700997
100735.054693
100735.371374
100735.619417
100735.804872
100735.931553
100736.007815
100736.025807
100735.761197
100718.479186
100716.534006
100715.882826
100716.40237
100716.740776
100717.082373
100717.400951
100717.714873
100718.056404
100718.432916
100718.84444
100719.29311
100719.76512
100720.263685
100720.786426
100721.257592
100721.605847
100721.815274
100721.895098
100721.62202
100704.974928
100702.719896
100701.907347
100701.688824
100701.531513
100701.415264
100701.306786
100701.279484
100701.390817
100701.637092
100701.988067
100702.412597
100702.938496
100703.624381
100704.435149
100705.293678
100706.005086
100706.458221
100706.672377
100706.462849
100692.90483
100690.758724
100689.207746
100688.613395
100688.067788
100687.46506
100686.90999
100686.390654
100686.055002
100686.028612
100686.306388
100686.797941
100687.376785
100688.14844
100689.059063
100689.813435
100690.624208
100691.489402
100692.020475
100691.986956
100682.833235
100680.842704
100679.332387
100678.616917
100678.382918
100677.791046
100677.32681
100676.931935
100676.594388
100676.376124
100676.469102
100676.93698
100677.856169
100678.869356
100679.528257
100680.286618
100681.229031
100681.955315
100682.73522
100682.954447
100674.584548
100673.399074
100671.954325
100671.979621
100672.176287
100672.308632
100672.34725
100672.593116
100673.119975
100673.92114
100674.854342
100675.903431
100677.019374
100678.103047
100678.69431
100679.380088
100681.397399
100682.355464
100682.629414
100682.793052
100667.382257
100666.76794
100666.149467
100666.436305
100667.37644
100668.296116
100669.273269
100670.571689
100672.071168
100673.714995
100675.414565
100677.29127
100679.10532
100680.882407
100681.917743
100683.008929
100685.30521
100685.997241
100686.038493
100686.19199
)
;

boundaryField
{
    emptyPatch
    {
        type            empty;
    }
    minY
    {
        type            calculated;
        value           nonuniform List<scalar> 0();
    }
    maxY
    {
        type            calculated;
        value           nonuniform List<scalar> 0();
    }
    water_to_cooler
    {
        type            calculated;
        value           nonuniform List<scalar> 
38
(
101141.416694
101128.572783
101116.126316
101103.940917
101091.857505
101079.706582
101067.319144
101054.536678
101041.222384
101027.273869
101012.636979
100997.316964
100981.385155
100964.979918
100948.301617
100931.597143
100915.134801
100899.173319
100883.930552
100869.558565
100856.130533
100843.639523
100832.007169
100821.096554
100810.728859
100800.703995
100790.826828
100780.926325
100770.820622
100760.152616
100748.50393
100735.761197
100721.62202
100706.462849
100691.986956
100682.954447
100682.793052
100686.19199
)
;
    }
    water_to_heater
    {
        type            calculated;
        value           nonuniform List<scalar> 
60
(
101107.507823
101105.486365
101103.562427
101099.932782
101098.160825
101096.165151
101093.876041
101091.854297
101087.971191
101085.966389
101079.859469
101071.159784
101063.923318
101061.900838
101054.989049
101052.977511
101046.374778
101044.350742
101037.103518
101021.361798
100988.483537
100985.492065
100914.554125
100911.418053
100850.267436
100847.452726
100833.725944
100829.563139
100825.728375
100823.665055
100821.039082
100819.019079
100815.864946
100813.801618
100811.634056
100807.864037
100806.265407
100804.225237
100802.523526
100800.460185
100798.023586
100795.970059
100792.157111
100784.500574
100776.831465
100774.764493
100766.026615
100763.924571
100751.717803
100749.462069
100732.266767
100705.851493
100681.085958
100678.842789
100669.165768
100667.424845
100666.712306
100665.051431
100664.937191
100663.836447
)
;
    }
    procBoundary3to1
    {
        type            processor;
        value           nonuniform List<scalar> 
41
(
100662.754927
100662.568892
100662.208572
100661.57329
100661.108043
100661.005334
100660.869974
100660.708689
100660.567467
100660.54315
100660.493383
100660.378901
100660.161785
100661.54558
100661.737408
100662.412617
100662.465685
100662.443406
100662.236285
100662.754927
100661.793602
100659.994906
100659.77397
100659.558065
100660.045498
100661.190274
100662.510879
100664.191862
100666.072481
100668.318331
100670.908254
100674.089525
100677.542543
100681.188705
100684.882435
100687.592058
100690.251944
100691.508387
100690.717308
100690.029683
100689.824174
)
;
    }
    procBoundary3to2
    {
        type            processor;
        value           nonuniform List<scalar> 
41
(
101111.065312
101111.388639
101111.698434
101111.838804
101111.865914
101111.795349
101111.756903
101112.149983
101113.06867
101114.405727
101115.986905
101117.67736
101119.540663
101121.331638
101122.898423
101124.2882
101125.546753
101126.878475
101128.176197
101129.656838
101148.719781
101149.852147
101150.786349
101151.562393
101152.210073
101152.751406
101153.202064
101153.574017
101153.877845
101154.122996
101154.317461
101154.468095
101154.58085
101154.661231
101154.715
101154.748348
101154.758712
101131.535208
101133.319874
101134.80579
101134.80579
)
;
    }
}


// ************************************************************************* //
