/*--------------------------------*- C++ -*----------------------------------*\
| =========                 |                                                 |
| \\      /  F ield         | OpenFOAM: The Open Source CFD Toolbox           |
|  \\    /   O peration     | Version:  2312                                  |
|   \\  /    A nd           | Website:  www.openfoam.com                      |
|    \\/     M anipulation  |                                                 |
\*---------------------------------------------------------------------------*/
FoamFile
{
    version     2.0;
    format      ascii;
    arch        "LSB;label=32;scalar=64";
    class       volScalarField;
    location    "0.625/water";
    object      p_rgh;
}
// * * * * * * * * * * * * * * * * * * * * * * * * * * * * * * * * * * * * * //

dimensions      [1 -1 -2 0 0 0 0];

internalField   nonuniform List<scalar> 
1497
(
100669.698988
100670.364963
100691.446928
100751.693032
100847.87039
100972.257392
101107.614348
101210.897683
101231.234671
101231.485025
101231.594008
101231.958695
101222.318257
100676.111484
100814.930627
100780.4934
100738.485165
100694.788944
100682.797144
100681.237328
100681.96377
100691.97412
100732.006302
100801.329786
100897.230286
101018.157496
101148.988232
101234.048007
101241.033546
101240.958644
101241.306517
101236.670452
101214.811768
100710.299757
100840.742559
100806.926133
100770.911762
100731.689393
100722.390179
100725.816671
100732.114609
100753.446379
100801.753383
100872.795123
100968.846187
101088.588223
101207.207858
101250.728884
101250.410208
101250.72447
101250.400674
101226.111007
101198.793804
100765.736436
100844.180015
100812.850394
100782.667207
100761.688436
100773.526972
100806.868367
100832.952235
100859.244842
100902.709107
100969.534747
101063.793608
101176.637988
101254.132531
101259.430483
101259.62402
101259.381443
101245.443097
101180.128352
101176.005253
100793.427639
100828.55115
100804.436551
100779.48691
100768.695609
100799.625635
100875.359638
100945.844611
100988.094962
101029.58682
101091.147343
101175.741458
101252.310725
101267.226196
101267.144844
101266.786742
101245.804461
101156.076512
101107.977203
101147.994087
100780.93853
100780.320529
100769.977064
100760.836411
100762.803896
100794.906818
100876.409477
100975.720114
101060.252953
101126.411794
101191.117882
101253.802895
101273.270187
101273.148455
101272.401126
101225.957483
101094.507587
101001.722645
101027.556261
101117.253059
100731.158162
100713.48403
100718.688022
100726.419811
100740.766967
100772.230268
100845.989776
100952.48024
101054.105314
101136.368822
101210.605252
101265.793301
101278.547601
101270.151549
101205.971663
101038.770547
100900.723958
100897.908581
100964.590999
101076.077177
100659.845055
100660.360218
100678.4956
100690.635778
100705.128838
100729.727038
100780.362318
100872.427465
100992.1142
101106.706423
101197.719723
101250.657525
101249.885041
101196.718981
101030.256137
100884.610246
100863.703073
100875.710148
100940.403853
101047.3134
100605.007684
100643.486875
100664.345589
100670.074363
100676.053937
100688.263772
100714.782026
100773.459628
100879.125194
101012.758892
101127.779377
101176.305098
101161.575875
101077.373719
100939.818919
100870.238175
100868.993777
100882.151093
100945.97663
101050.233584
100602.294748
100646.13904
100663.176332
100664.771616
100665.284865
100668.915462
100681.849091
100719.781832
100800.960205
100920.48588
101037.364642
101097.274749
101091.295347
101045.401
100949.544587
100889.851719
100886.646251
100906.170313
100969.668403
101070.586212
100602.7471
100652.850812
100665.688576
100666.29021
100666.452905
100666.778018
100676.669867
100712.070189
100788.205029
100897.448156
101009.096203
101084.383317
101094.295426
101062.691853
100994.227729
100948.761129
100947.776122
100971.168014
101033.070391
101127.733134
100604.893842
100666.843337
100672.537338
100671.603044
100669.554861
100669.962239
100680.310814
100716.991473
100794.582679
100904.18902
101016.219043
101096.540776
101123.702007
101116.080784
101088.911516
101058.782927
101059.489779
101081.518439
101137.25411
101219.09967
100606.145782
100687.640339
100689.001347
100686.387154
100679.842854
100680.415516
100692.785978
100733.659641
100814.167772
100923.295376
101036.245055
101129.849713
101191.788621
101216.908653
101214.201958
101197.71186
101195.879105
101211.560222
101251.911885
101304.980157
100608.086112
100711.479668
100716.980797
100714.585448
100705.971703
100707.774112
100725.704014
100774.906894
100859.032689
100966.69586
101081.910583
101192.297029
101282.381563
101323.069005
101325.187335
101316.727695
101311.027349
101316.209277
101331.437199
101351.669245
100609.427067
100741.872273
100755.481534
100757.072189
100752.564644
100760.048583
100789.260149
100848.796452
100935.01628
101040.484746
101157.26938
101274.45383
101355.923708
101374.148721
101373.889724
101371.651057
101368.567905
101366.886555
101367.77014
101370.208518
100611.201226
100784.684601
100804.843632
100814.464108
100820.801294
100842.332537
100886.89777
100954.526225
101041.034156
101144.043867
101257.128447
101354.103576
101384.057597
101383.386749
101382.769364
101382.55412
101381.518488
101380.935417
101379.428375
101378.225966
100614.293599
100844.517397
100868.897398
100890.367868
100912.450907
100953.760109
101012.707302
101085.447728
101172.125265
101269.596755
101357.320716
101393.023772
101392.493416
101391.913376
101392.003499
101390.747717
101390.69016
101388.775047
101388.082664
101385.481747
100617.557988
100925.760646
100950.243297
100987.099899
101026.374592
101085.574698
101153.931268
101231.332277
101313.597666
101378.750113
101401.502903
101400.827249
101400.307347
101400.532518
101399.307232
101399.630469
101397.608782
101397.49638
101394.418093
101379.686619
100627.642001
101022.654112
101034.229231
101090.407726
101149.48286
101221.786284
101293.937891
101366.525527
101404.456077
101408.893864
101408.543287
101407.825053
101408.215245
101406.903651
101407.448207
101405.491658
101405.681771
101398.272657
101376.446902
101329.006579
100687.226018
101085.154875
101086.897519
101154.860113
101244.950719
101332.384005
101399.139608
101416.822393
101415.787354
101415.876083
101414.641065
101415.298891
101413.533869
101414.296941
101412.039184
101407.799095
101395.575794
101376.039094
101334.511472
101257.125397
100806.251265
101092.616505
101093.735537
101162.033884
101271.273999
101370.793976
101423.866236
101422.294498
101422.5547
101420.56266
101421.465435
101418.968448
101419.84768
101407.807461
101397.764337
101390.393714
101380.608254
101348.673191
101281.299173
101210.349793
100893.516406
101051.412629
101060.350521
101133.718188
101255.237871
101361.129829
101420.52284
101424.758988
101423.064553
101423.94051
101418.641502
101404.109348
101387.374389
101379.840221
101383.675657
101386.687441
101378.428812
101336.927163
101259.21958
101201.768256
100867.771726
100915.038082
100938.516709
101013.66037
101143.151599
101262.00697
101337.243238
101369.706436
101376.861152
101368.550071
101350.544129
101336.760841
101339.064853
101358.938111
101380.04817
101388.533365
101382.172516
101342.267925
101264.35666
101205.386
100788.135594
100759.229738
100780.337393
100833.748875
100919.750183
101014.658266
101097.043147
101158.347528
101191.616654
101208.911825
101221.119783
101244.426261
101285.793723
101335.063774
101375.508421
101393.532603
101391.833341
101360.81864
101286.557716
101214.572701
100685.608976
100670.962466
100691.581939
100713.96062
100739.959815
100775.152626
100821.735651
100877.015042
100936.380939
101003.931562
101073.250681
101144.471257
101219.807488
101296.057863
101363.771965
101402.863863
101408.781796
101392.340502
101333.30481
101239.045226
100636.335675
100653.404915
100674.27602
100678.960726
100681.039379
100685.00526
100697.053777
100725.64443
100781.210742
100867.404063
100967.418464
101066.138582
101161.459985
101256.239972
101347.702761
101411.798458
101427.8358
101422.425429
101386.824781
101283.941418
100635.621959
100655.52451
100675.942945
100677.424193
100677.508028
100677.582198
100678.500943
100693.63749
100741.458951
100824.648258
100928.043235
101035.449046
101141.499315
101246.938904
101348.728157
101423.206367
101442.347309
101441.817591
101423.464339
101328.533975
100637.41226
100662.254581
100686.446013
100685.18059
100680.537776
100680.207943
100680.278029
100694.295375
100741.570579
100823.914738
100927.557205
101038.029039
101148.517514
101258.962238
101365.518515
101441.167576
101451.724508
101452.12088
101443.210564
101352.796592
100639.906641
100679.217257
100715.876238
100711.767545
100696.50505
100687.864501
100688.45511
100704.579747
100753.710126
100837.308263
100942.786305
101058.039171
101178.047853
101300.813934
101411.373447
101460.505141
101460.438305
101460.288674
101455.00083
101358.568179
100644.517829
100709.873344
100763.996658
100761.387553
100738.612512
100719.092976
100719.960652
100739.620908
100793.409882
100880.662246
100991.231692
101116.701745
101252.037922
101384.929942
101464.322037
101469.39981
101468.367528
101468.384127
101458.483846
101340.937608
100674.324745
100758.58607
100825.183702
100827.02483
100805.492352
100783.716352
100785.409069
100808.8424
100867.66576
100960.141265
101078.769377
101216.421638
101361.896316
101466.121111
101478.741124
101476.87917
101476.250417
101473.848591
101436.099643
101301.019181
100745.970547
100819.27275
100893.207074
100902.15174
100888.285376
100875.027011
100879.825924
100907.511135
100970.304216
101068.256152
101195.456046
101340.673893
101462.823539
101488.461915
101486.078702
101485.025452
101482.107874
101468.399022
101362.078789
101302.512303
100851.188164
100878.64288
100965.522524
100988.505388
100984.644827
100983.256245
100993.010795
101025.912738
101092.979884
101194.971451
101321.943937
101444.833716
101497.985538
101495.585301
101494.355044
101491.136916
101464.168202
101389.559283
101364.089179
101360.050469
100930.045991
100934.831467
101057.210806
101094.123429
101097.203738
101102.259689
101115.983075
101152.21927
101220.526333
101314.161019
101407.305877
101471.01877
101497.726221
101493.74677
101476.06113
101439.331095
101409.569721
101396.802197
101410.176614
101442.367965
100942.531144
101005.697285
101181.18214
101220.222125
101222.255857
101224.710013
101234.996174
101265.529674
101318.70759
101375.209196
101420.120864
101455.159628
101454.173209
101437.631922
101422.154719
101419.477676
101426.504556
101458.8879
101477.319339
101463.903845
100908.702155
101117.791736
101313.150727
101344.877042
101339.52815
101330.305164
101329.21632
101339.65687
101359.703914
101381.922891
101404.643568
101409.280564
101410.472889
101417.460827
101430.878836
101456.196711
101500.791009
101502.498412
101492.214757
101210.596021
100831.731504
101282.732758
101412.996244
101434.091488
101421.043839
101400.622849
101383.810643
101374.242099
101374.232773
101382.147151
101394.804318
101408.581511
101424.182894
101450.222486
101493.964563
101537.860146
101534.028402
101507.630931
101233.16469
100853.482809
100806.367482
101427.206846
101469.271632
101483.374029
101466.377793
101442.648864
101418.341319
101398.717337
101391.846169
101397.746645
101417.460824
101446.721946
101487.48949
101538.438756
101566.880605
101561.547566
101510.170654
101253.673662
100958.833631
100831.989676
101223.535623
101229.31652
101207.912344
101110.177042
101034.803821
101035.845062
101033.995637
101036.485302
101034.453265
101037.273377
101035.503649
101038.045486
101038.011066
101081.137616
101193.034513
101128.152895
101120.923664
101122.951053
101204.310629
101401.184706
101220.389001
101241.640753
101239.190891
101189.883103
101088.404982
101041.606632
101042.683162
101040.966916
101043.563567
101041.591497
101044.29365
101042.930148
101045.260034
101103.434806
101239.950602
101195.261836
101130.070091
101129.676796
101290.399724
101437.844663
101217.214378
101251.459835
101258.869231
101242.327428
101180.808027
101102.75536
101050.145578
101049.851045
101048.398505
101050.680983
101049.202655
101051.410288
101051.088597
101128.254142
101273.825587
101257.269212
101151.615728
101194.024998
101385.932
101470.307908
101219.015422
101260.529553
101269.858673
101267.853404
101248.737839
101199.618995
101134.109489
101082.712737
101057.113363
101056.350333
101058.001476
101057.173335
101058.856942
101164.366934
101293.792875
101282.961997
101245.767666
101336.406897
101462.654988
101491.772707
101221.233267
101266.40753
101278.369235
101280.190796
101278.252962
101265.53145
101232.533274
101180.650292
101123.147668
101080.281006
101065.049517
101065.955456
101066.20453
101209.410497
101310.327989
101299.157993
101336.656258
101449.612024
101502.892493
101506.571504
101210.103629
101264.988604
101285.660448
101289.925553
101290.751687
101289.742607
101282.75733
101262.412046
101224.170059
101172.43615
101119.017869
101104.498368
101134.328652
101278.803476
101326.592855
101336.199172
101413.320624
101503.369972
101520.637669
101520.990814
101181.367734
101257.514374
101293.138261
101299.776796
101301.09622
101301.72183
101300.721094
101295.813449
101283.209245
101258.594256
101221.196204
101209.120041
101244.792242
101333.236918
101350.529486
101392.866349
101476.139087
101530.544677
101536.577535
101536.804454
101160.830744
101255.301845
101302.49542
101309.801757
101311.358075
101312.767022
101313.162977
101311.6574
101307.481617
101301.325019
101295.462909
101294.430075
101305.386037
101360.894113
101390.540595
101456.659987
101525.191745
101551.453306
101553.620398
101553.828096
101165.394786
101263.91007
101313.441501
101319.272434
101320.893814
101322.713545
101324.569586
101325.065576
101324.873575
101327.263038
101331.621127
101333.786003
101318.836736
101361.761739
101413.412203
101506.561057
101558.715665
101569.044231
101569.965149
101570.07866
101184.627942
101282.281525
101325.687582
101327.760903
101328.862917
101330.483294
101332.234725
101334.606584
101337.435294
101340.84687
101344.648172
101336.666182
101257.890691
101234.835432
101364.952844
101507.958276
101570.502262
101577.920847
101578.134933
101578.506659
101234.160759
101316.496062
101334.987684
101334.663032
101334.887455
101334.709937
101335.359618
101335.459563
101336.574566
101336.047449
101281.344962
101114.659207
100949.371845
100890.754847
101089.483165
101402.11626
101546.777278
101567.715412
101568.479397
101571.602709
101303.357962
101343.108425
101342.363634
101341.413424
101339.852747
101339.129071
101336.809574
101335.617865
101296.017623
101081.014958
100838.577018
100734.344555
100708.463204
100707.671821
100855.973299
101310.908364
101511.769336
101559.057059
101558.186337
101565.365223
101348.882696
101351.574355
101350.102339
101348.067472
101346.86227
101343.666673
101341.229389
101171.326409
100855.665759
100715.392979
100709.662078
100705.764815
100709.733225
100707.753752
100882.439694
101334.156732
101516.342774
101566.9935
101560.017257
101569.218002
101361.039459
101359.398597
101357.28903
101355.84216
101352.322202
101319.613806
101027.157302
100744.224342
100709.346829
100712.276254
100707.958438
100712.324568
100709.268979
100712.363858
101016.390513
101396.722127
101541.666863
101581.358969
101562.174874
101573.94428
101368.656192
101366.661864
101365.097127
101361.332061
101287.925735
100945.93758
100715.938964
100711.715572
100714.97958
100710.918505
100715.010032
100712.04977
100715.042923
100783.725454
101185.26299
101475.569776
101574.798276
101596.870038
101553.307337
101577.983211
101376.081248
101374.245206
101364.638287
101251.113014
100936.69404
100717.705126
100715.179724
100717.736509
100714.040072
100717.764102
100715.170346
100717.799498
100744.938209
100958.9323
101345.758165
101546.640251
101602.828191
101610.865575
101518.448084
101584.457584
101382.407207
101346.543294
101224.897595
100988.249121
100775.814847
100719.382185
100720.548493
100717.75341
100720.570758
100718.963792
100720.604023
100748.4024
100881.458316
101183.237765
101484.27877
101600.686528
101622.499801
101623.935188
101456.139395
101591.277548
101332.965681
101217.231483
101055.844995
100910.956628
100777.506514
100723.421611
100722.089043
100723.425699
100722.216305
100727.557058
100775.815904
100884.007195
101098.347348
101399.208077
101586.76356
101632.740399
101636.679786
101635.60283
101384.733239
101591.000931
101232.853774
101122.36344
101033.978909
100925.844178
100810.008907
100739.395432
100726.28918
100725.680998
100746.737738
100813.787243
100934.313927
101103.817202
101343.93682
101566.589032
101641.306228
101649.356374
101649.532593
101649.541634
101372.512983
101567.206752
101173.143441
101123.492575
101057.060877
100977.91716
100885.307307
100803.94589
100766.884882
100769.511417
100839.86168
100981.289789
101166.239578
101363.484563
101556.463153
101650.011027
101661.61571
101661.932805
101661.91382
101661.982013
101381.045536
101512.738409
101175.085648
101144.844266
101111.532369
101063.859149
100988.382813
100906.760951
100862.792944
100868.447538
100968.508832
101187.799177
101420.790467
101583.404434
101660.338708
101673.186079
101673.539634
101673.525235
101673.471688
101673.451763
101389.106078
101438.880006
101185.137008
101180.169511
101173.163194
101151.600445
101095.992888
101020.485817
100973.119336
100971.844517
101074.859233
101380.988084
101608.601674
101675.149838
101683.891815
101684.289012
101684.366079
101684.421989
101684.431793
101684.417188
101396.718886
101383.026843
101193.883676
101208.754256
101215.151638
101212.408385
101183.520509
101124.496598
101068.436194
101047.919486
101156.060161
101508.285443
101677.656916
101693.920257
101694.473725
101694.710349
101694.89718
101695.034551
101695.08769
101694.927541
101354.028054
101353.344985
101196.691913
101216.60158
101239.285604
101246.678814
101239.425435
101204.136816
101145.377015
101107.693247
101237.392704
101581.955702
101698.115629
101704.632624
101705.171038
101705.581309
101705.910461
101706.156573
101706.222727
101700.226691
101154.599213
101424.695934
101200.360707
101216.985034
101251.820659
101271.152655
101275.174449
101258.506318
101208.991242
101170.819723
101335.214079
101636.077088
101711.938841
101715.935139
101716.691152
101717.328715
101717.874458
101718.308342
101718.488768
101558.795671
101113.304976
101642.482137
101207.103536
101209.097398
101253.979175
101292.201983
101306.179008
101300.917238
101268.180699
101248.202816
101443.901781
101680.35514
101725.333755
101728.096909
101729.01224
101729.782237
101730.409782
101730.736663
101724.060013
101176.541011
101122.122063
101722.41752
101217.227695
101214.56462
101251.75239
101307.475104
101340.034064
101346.220032
101330.491875
101338.490546
101540.026406
101712.607463
101739.111909
101741.460567
101742.592942
101743.662114
101744.618733
101744.827655
101456.881426
101112.418174
101251.697995
101736.375374
101227.794068
101220.158942
101247.653128
101316.492218
101378.537458
101404.37775
101398.929941
101420.530093
101595.845237
101730.548654
101753.083522
101755.2499
101756.180479
101757.011823
101757.469448
101622.437082
101114.376774
101118.50584
101486.589616
101747.060845
101233.177829
101225.195527
101251.547557
101330.200259
101424.688409
101465.318809
101464.141826
101466.568819
101606.648105
101743.319883
101767.686371
101769.528658
101769.933055
101769.934747
101683.07676
101129.076788
101122.127633
101163.522158
101562.375957
101756.844039
101235.377476
101233.836113
101273.645857
101370.95173
101475.921922
101482.222712
101486.145882
101462.324561
101564.538887
101731.999428
101777.454971
101780.037956
101776.422842
101638.625767
101128.410996
101130.113068
101166.716956
101304.923026
101557.141434
101758.495964
101249.110679
101272.964692
101349.651574
101440.424735
101475.044494
101474.100749
101398.154351
101275.618053
101262.791481
101455.467239
101668.825518
101650.350079
101374.938567
101055.873906
101028.796995
101171.812879
101280.878552
101358.121352
101497.904007
101747.263806
101309.630882
101377.458872
101414.843469
101416.255978
101324.779205
101109.699383
100920.49245
100809.950071
100767.606994
100851.125644
101080.130198
100982.947146
100743.341378
100803.438689
100986.671838
101171.916931
101314.061179
101370.237227
101424.32209
101731.860773
101409.047475
101405.090523
101346.807484
101049.954065
100765.363697
100628.554443
100582.791307
100568.004146
100565.51368
100572.59493
100616.317617
100598.012371
100587.093448
100763.278733
100928.945373
101137.773363
101340.688953
101398.678672
101396.642397
101726.679327
101435.002343
101247.788514
100832.683948
100606.104045
100563.935281
100565.271746
100562.8542
100565.286077
100562.957988
100565.290631
100563.462381
100565.285118
100586.00533
100786.905754
100940.563478
101171.125017
101399.73087
101431.331734
101386.529158
101730.556299
101191.886641
100735.930756
100569.35125
100564.76303
100566.994741
100564.542365
100566.987357
100564.743534
100566.982788
100564.957541
100566.981184
100566.296963
100630.607666
100812.198617
100985.281331
101241.068431
101475.838033
101470.598947
101372.277744
101738.202839
100752.151742
100584.918603
100567.067687
100568.756341
100566.344654
100568.724383
100566.624605
100568.706277
100567.188133
100568.698235
100567.62383
100568.696982
100694.034882
100844.071204
101045.673397
101320.478191
101543.77362
101515.693966
101354.009365
101747.466253
100692.460224
100597.743119
100570.562054
100569.400371
100570.503008
100568.976707
100570.468412
100569.559935
100570.451101
100569.920729
100570.446874
100600.573111
100746.763541
100886.495249
101115.003418
101402.781683
101599.978928
101549.148882
101342.230653
101759.366633
100733.060963
100649.015655
100592.251375
100575.580442
)
;

boundaryField
{
    emptyPatch
    {
        type            empty;
    }
    minY
    {
        type            zeroGradient;
    }
    maxY
    {
        type            prghTotalPressure;
        U               U.gas;
        p0              nonuniform List<scalar> 0();
        value           nonuniform List<scalar> 0();
    }
    water_to_cooler
    {
        type            fixedFluxPressure;
        gradient        uniform 0;
        value           nonuniform List<scalar> 
37
(
101401.184706
101437.844663
101470.307908
101491.772707
101506.571504
101520.990814
101536.804454
101553.828096
101570.07866
101578.506659
101571.602709
101565.365223
101569.218002
101573.94428
101577.983211
101584.457584
101591.277548
101591.000931
101567.206752
101512.738409
101438.880006
101383.026843
101353.344985
101424.695934
101642.482137
101722.41752
101736.375374
101747.060845
101756.844039
101758.495964
101747.263806
101731.860773
101726.679327
101730.556299
101738.202839
101747.466253
101759.366633
)
;
    }
    water_to_heater
    {
        type            fixedFluxPressure;
        gradient        uniform 0;
        value           nonuniform List<scalar> 
60
(
100676.111484
100676.111484
100710.299757
100710.299757
100765.736436
100765.736436
100793.427639
100780.93853
100731.158162
100731.158162
100659.845055
100659.845055
100605.007684
100605.007684
100602.294748
100602.7471
100604.893842
100604.893842
100606.145782
100606.145782
100608.086112
100608.086112
100609.427067
100611.201226
100614.293599
100614.293599
100617.557988
100617.557988
100627.642001
100627.642001
100687.226018
100806.251265
100893.516406
100893.516406
100867.771726
100867.771726
100788.135594
100788.135594
100685.608976
100636.335675
100635.621959
100635.621959
100637.41226
100637.41226
100639.906641
100639.906641
100644.517829
100674.324745
100745.970547
100745.970547
100851.188164
100851.188164
100930.045991
100930.045991
100942.531144
100908.702155
100831.731504
100831.731504
100806.367482
100806.367482
)
;
    }
    procBoundary1to0
    {
        type            processor;
        value           nonuniform List<scalar> 
41
(
100885.093548
101491.501455
101500.192108
101505.875857
101497.618013
101479.682027
101457.702175
101439.190335
101436.844211
101453.150016
101490.180966
101536.576249
101579.088548
101586.408209
101579.663621
101512.030904
101293.433781
101071.052522
100963.193751
100883.271888
100571.706453
100572.262189
100571.85284
100572.234171
100573.70836
100578.384567
100595.208889
100673.341974
100798.881633
100941.309301
101196.304133
101488.43506
101643.070516
101566.870172
101333.324708
101774.848699
100807.480123
100723.796661
100656.487977
100571.706453
100622.171568
)
;
    }
    procBoundary1to3
    {
        type            processor;
        value           nonuniform List<scalar> 
41
(
100666.762881
100667.426648
100673.907222
100723.838909
100821.610111
100951.347342
101088.882136
101195.399887
101221.770325
101222.100917
101222.691982
101223.029974
101222.020246
100670.271991
100748.3061
100735.016204
100699.615404
100673.036271
100669.702421
100669.43272
100669.43272
101222.614702
101216.794419
101158.671253
101042.944613
101029.539246
101027.584295
101029.816257
101027.613607
101030.182679
101028.426533
101030.923897
101030.145289
101032.091764
101068.926623
101143.326257
101113.313349
101115.022959
101113.706654
101140.879736
101367.876957
)
;
    }
}


// ************************************************************************* //
