/*--------------------------------*- C++ -*----------------------------------*\
| =========                 |                                                 |
| \\      /  F ield         | OpenFOAM: The Open Source CFD Toolbox           |
|  \\    /   O peration     | Version:  2312                                  |
|   \\  /    A nd           | Website:  www.openfoam.com                      |
|    \\/     M anipulation  |                                                 |
\*---------------------------------------------------------------------------*/
FoamFile
{
    version     2.0;
    format      ascii;
    arch        "LSB;label=32;scalar=64";
    class       volScalarField;
    location    "0.25/water";
    object      p;
}
// * * * * * * * * * * * * * * * * * * * * * * * * * * * * * * * * * * * * * //

dimensions      [1 -1 -2 0 0 0 0];

internalField   nonuniform List<scalar> 
1496
(
100285.232595
100285.205083
100285.180845
100285.151674
100285.115611
100285.070434
100285.011838
100284.868475
100284.50703
100284.833944
100286.368631
100288.637971
100291.248128
100294.069979
100297.092823
100300.265385
100303.428271
100306.440426
100309.137204
100311.534653
100284.17267
100284.149723
100284.132264
100284.111838
100284.084961
100284.050741
100284.00956
100283.959086
100283.854585
100283.550196
100283.809427
100284.849439
100286.561295
100288.737466
100291.273224
100294.140994
100297.183844
100300.188224
100302.942271
100305.39803
100283.302414
100283.282854
100283.269829
100283.255987
100283.238328
100283.216622
100283.190637
100283.160497
100283.125994
100283.026699
100282.991118
100283.441403
100284.428317
100285.962118
100287.981826
100290.443843
100293.175245
100295.932007
100298.478711
100300.804185
100282.557664
100282.540451
100282.530175
100282.52051
100282.508916
100282.495456
100282.480026
100282.462157
100282.44089
100282.412937
100282.454354
100282.858663
100283.62787
100284.840199
100286.501471
100288.553695
100290.856343
100293.223517
100295.427286
100297.527848
100281.895643
100281.880069
100281.871462
100281.86458
100281.857148
100281.849204
100281.840701
100281.831713
100281.821761
100281.808026
100282.004817
100282.530944
100283.340071
100284.496438
100285.999057
100287.730995
100289.606585
100291.559403
100293.321713
100295.201849
100281.291268
100281.277273
100281.269991
100281.265046
100281.260353
100281.255873
100281.251607
100281.247614
100281.242261
100281.251505
100281.539183
100282.131315
100282.974686
100284.103323
100285.504928
100287.070001
100288.698625
100290.299142
100291.680515
100293.583362
100280.724919
100280.714471
100280.709933
100280.707752
100280.706189
100280.705368
100280.705265
100280.705078
100280.701791
100280.786493
100281.154855
100281.772245
100282.628947
100283.777144
100285.210171
100286.734201
100288.102937
100289.305753
100290.55653
100292.568379
100280.19208
100280.182839
100280.180187
100280.180876
100280.183
100280.187016
100280.192926
100280.199907
100280.201905
100280.461405
100281.003743
100281.770764
100282.768754
100284.060042
100285.536792
100286.801826
100287.787417
100288.57214
100289.933817
100291.989876
100279.655441
100279.646491
100279.644199
100279.645929
100279.649078
100279.653613
100279.658995
100279.669791
100279.8597
100280.368769
100281.142294
100282.126287
100283.328449
100284.728787
100286.073567
100286.877534
100287.467946
100287.966487
100289.671096
100291.644974
100279.089137
100279.079891
100279.077284
100279.078408
100279.080233
100279.082041
100279.108419
100279.278962
100279.741715
100280.478774
100281.449591
100282.618073
100283.968764
100285.31796
100286.214424
100286.650511
100286.834267
100287.558655
100289.535956
100291.379567
100278.50441
100278.494208
100278.489865
100278.488153
100278.486137
100278.504236
100278.626362
100278.971137
100279.580471
100280.477723
100281.601479
100282.893313
100284.222902
100285.371467
100285.783072
100285.94931
100285.875156
100287.311798
100289.321504
100291.247091
100277.927981
100277.917001
100277.910979
100277.905916
100277.911287
100277.958772
100278.135184
100278.554021
100279.27523
100280.277921
100281.484194
100282.754957
100284.004542
100284.695642
100284.879604
100284.84634
100285.176698
100287.081223
100289.020565
100291.169374
100277.393858
100277.382465
100277.375551
100277.368417
100277.398033
100277.467833
100277.697364
100278.196672
100278.99469
100280.045872
100281.222852
100282.428482
100283.440667
100283.781224
100283.987201
100283.77453
100284.704886
100286.802397
100288.912856
100291.242754
100276.916851
100276.90526
100276.89795
100276.918818
100276.977846
100277.107024
100277.43092
100278.030498
100278.899183
100279.968435
100281.072569
100282.200284
100282.851015
100283.031597
100283.156836
100283.07799
100284.330138
100286.434699
100288.80371
100291.314904
100276.497844
100276.486763
100276.481126
100276.537239
100276.630946
100276.845785
100277.294095
100278.010607
100278.950526
100279.972995
100281.039726
100281.964223
100282.222701
100282.303892
100282.149008
100282.001884
100283.598369
100286.067097
100288.623259
100291.003377
100276.109164
100276.096932
100276.115046
100276.203737
100276.342012
100276.6424
100277.194463
100277.986884
100278.920814
100279.869545
100280.848989
100281.373054
100281.210521
100281.077691
100280.542523
100280.510574
100282.411081
100284.942685
100287.619567
100289.525744
100275.746941
100275.737743
100275.738267
100275.779461
100275.927187
100276.271507
100276.86076
100277.64069
100278.459968
100279.357587
100280.0637
100279.909725
100279.308144
100278.782357
100277.759029
100278.03148
100279.967374
100282.252841
100284.062944
100285.167849
100275.303818
100274.64183
100274.554734
100274.635476
100274.823081
100275.212817
100275.801076
100276.495711
100277.310689
100278.053655
100278.089325
100277.177408
100276.258415
100275.115879
100273.79185
100274.226429
100275.849684
100277.155824
100277.61268
100273.242576
100274.879787
100272.277663
100272.130659
100272.39494
100272.744377
100273.257301
100273.898478
100274.670038
100275.36862
100275.434444
100274.400109
100273.061193
100271.763324
100269.885614
100268.617782
100269.028489
100270.026895
100269.625966
100265.682981
100246.280415
100275.102393
100269.426966
100269.00074
100269.640551
100270.263134
100271.01798
100271.834579
100272.417184
100272.204516
100270.946858
100269.346059
100267.751821
100265.632513
100263.289417
100262.343066
100262.537281
100261.662291
100258.480484
100241.885264
100240.048866
100274.816839
100267.643081
100267.214193
100267.879242
100268.560617
100269.390751
100269.784467
100269.008334
100267.292027
100265.53359
100263.813712
100261.669708
100258.906732
100256.612712
100255.532582
100254.190463
100251.956829
100239.771473
100231.395526
100238.435694
100272.542473
100266.34953
100266.128008
100266.932813
100267.547406
100267.454071
100265.959097
100263.853476
100262.074904
100260.351997
100258.225211
100255.430599
100252.262923
100250.016924
100248.56893
100245.767144
100238.01938
100225.069951
100229.147385
100233.548128
100269.368889
100266.469175
100266.701138
100267.588936
100266.705061
100264.092675
100261.758159
100260.094362
100258.375727
100256.195144
100253.367315
100249.746447
100246.087645
100243.508069
100240.756698
100235.764641
100224.335443
100220.940425
100225.448662
100227.957118
100268.468973
100270.419841
100270.980571
100270.377091
100266.359021
100263.21927
100261.381336
100259.335755
100256.65786
100253.331163
100249.327283
100244.508032
100240.358193
100237.287629
100233.126409
100225.329176
100217.276514
100217.519349
100219.229919
100220.56186
100270.01146
100276.439213
100277.661228
100273.055683
100267.879296
100265.251275
100262.463225
100259.505874
100255.757965
100250.762397
100244.979017
100238.877014
100234.060551
100229.734102
100224.008758
100215.898547
100211.01025
100210.116638
100209.338432
100208.463971
100272.939173
100274.191174
100274.656326
100271.034166
100268.93255
100266.172491
100263.041569
100258.881982
100253.67457
100247.351612
100238.962832
100231.523783
100225.592685
100219.388209
100211.771012
100204.102551
100199.892838
100196.52115
100192.6817
100189.994696
100290.979192
100276.729445
100278.043936
100279.786127
100277.246737
100273.743138
100268.367444
100261.699954
100253.741237
100241.420041
100230.172775
100221.14704
100212.726433
100203.256928
100193.122096
100184.981767
100179.917871
100174.938733
100169.934951
100167.192983
100314.790755
100287.580798
100294.011381
100296.728875
100292.864847
100286.157179
100276.163431
100263.41836
100243.183114
100226.317015
100214.18057
100202.286522
100189.283545
100176.103736
100163.821938
100154.941084
100149.055096
100143.781253
100139.492896
100138.626845
100238.810633
100212.524288
100224.536552
100229.144315
100222.319183
100207.167121
100190.361563
100178.154514
100174.913017
100172.784624
100165.50768
100154.62644
100143.224545
100131.941686
100121.117449
100112.720468
100106.489563
100099.768378
100094.822153
100097.067802
100058.966866
100017.148464
100003.996779
99994.9863595
99988.4819826
99990.2711788
100002.836552
100022.035667
100042.160058
100059.552235
100072.027595
100078.590093
100079.956822
100078.504501
100075.285072
100071.054291
100066.218746
100059.942709
100053.5685
100053.64997
100002.457929
100001.876487
100001.840503
100001.831867
100001.838765
100001.856249
100001.875434
100001.882236
100002.135628
100003.066493
100006.155183
100017.766022
100031.088152
100038.188171
100041.820227
100042.942239
100041.075591
100037.64298
100032.70584
100031.639639
100001.718289
100001.681709
100001.664591
100001.651655
100001.644439
100001.641609
100001.641569
100001.6441
100001.652847
100001.649562
100001.472589
99999.4635609
100002.857664
100013.420482
100020.652162
100025.173092
100026.929376
100026.512541
100024.105863
100023.135009
100001.417714
100001.41501
100001.415692
100001.415485
100001.413611
100001.409918
100001.404958
100001.398742
100001.39166
100001.384386
100001.379152
100001.374738
99999.8926338
100001.085856
100007.77546
100013.038125
100016.671779
100018.613156
100018.992124
100018.148047
100001.120957
100001.120182
100001.120213
100001.120686
100001.120806
100001.120118
100001.118623
100001.116544
100001.114466
100001.112186
100001.10981
100001.107535
100000.95668
100000.077193
100001.681591
100005.971541
100009.231723
100011.466795
100013.504999
100013.247164
100000.811205
100000.811156
100000.812042
100000.814074
100000.816404
100000.818146
100000.819047
100000.819285
100000.819163
100000.818992
100000.819066
100000.819554
100000.796699
100000.568194
100000.847809
100002.896515
100005.536691
100006.922276
100007.677492
100008.96728
100000.494073
100000.49441
100000.495373
100000.497597
100000.500365
100000.502914
100000.505017
100000.50682
100000.508518
100000.510311
100000.51242
100000.515172
100000.52747
100000.651841
100001.239205
100002.493898
100004.175856
100003.992965
100002.904696
100005.211967
100000.161707
100000.161702
100000.161191
100000.16085
100000.161021
100000.161956
100000.163622
100000.16578
100000.16815
100000.170537
100000.172829
100000.175004
100000.242227
100000.574843
100001.466661
100002.606496
100003.358632
100000.806622
100000.419403
100001.692323
100328.39893
100330.004004
100330.885142
100330.373171
100331.128128
100332.065897
100332.568142
100332.902724
100333.389456
100333.843182
100334.149895
100334.302055
100334.364627
100334.370614
100334.359876
100334.385109
100313.821154
100315.973893
100318.037428
100319.957661
100321.946556
100324.005097
100325.215106
100324.158049
100325.560109
100326.429194
100326.858971
100327.343959
100327.821393
100328.28411
100328.583624
100328.746537
100328.825889
100328.847737
100328.846344
100328.875022
100307.730043
100310.005408
100312.200119
100314.30009
100316.462325
100318.578496
100320.251777
100319.427577
100319.983145
100321.291946
100321.841014
100322.220295
100322.729936
100323.160509
100323.433672
100323.589617
100323.66881
100323.692989
100323.691612
100323.718932
100303.10341
100305.385153
100307.581033
100309.719368
100311.889822
100314.09471
100315.697713
100314.272492
100315.111576
100316.490835
100316.966217
100317.509659
100318.008234
100318.39669
100318.64864
100318.796827
100318.872578
100318.894974
100318.890011
100318.914347
100299.747732
100301.934347
100304.076578
100306.185112
100308.319294
100310.33024
100312.128782
100310.710131
100309.811868
100311.892636
100312.58918
100313.057415
100313.533657
100313.901341
100314.161492
100314.325095
100314.41313
100314.443668
100314.442449
100314.46736
100297.348355
100299.4369
100301.501636
100303.539179
100305.561808
100307.489748
100308.882345
100306.519704
100305.654181
100307.849285
100308.4421
100308.981476
100309.454541
100309.836591
100310.128915
100310.320887
100310.427801
100310.467478
100310.470239
100310.497716
100295.684515
100297.704863
100299.718773
100301.733109
100303.675394
100305.32661
100306.79355
100303.912534
100301.523259
100304.07867
100304.949305
100305.524137
100305.99715
100306.403565
100306.718103
100306.924627
100307.033887
100307.067009
100307.063075
100307.08979
100294.575566
100296.580398
100298.570064
100300.595513
100302.458662
100304.224093
100305.337455
100300.389817
100298.299999
100301.074547
100302.077395
100302.620386
100303.096392
100303.521372
100303.84399
100304.052593
100304.155756
100304.175609
100304.158772
100304.184408
100293.91991
100295.917847
100297.918458
100299.94752
100301.765534
100303.169466
100303.936285
100296.440706
100295.925655
100298.435563
100299.383774
100299.983161
100300.532681
100301.002123
100301.343519
100301.565289
100301.67378
100301.689935
100301.666054
100301.698247
100293.570083
100295.592369
100297.641119
100299.564755
100301.135592
100302.73082
100300.267042
100291.903082
100294.410231
100296.284556
100297.060602
100297.751879
100298.376698
100298.895219
100299.258242
100299.481067
100299.580966
100299.585596
100299.548749
100299.586011
100293.404577
100295.46934
100297.503014
100299.186788
100300.854584
100301.575729
100292.073373
100290.733332
100293.588384
100294.499961
100295.094554
100295.85548
100296.533002
100297.075977
100297.422925
100297.60772
100297.680524
100297.669976
100297.615387
100297.645749
100293.38576
100295.512968
100297.294314
100298.880165
100299.952707
100293.774951
100288.887896
100291.408692
100292.285102
100292.411898
100292.979113
100293.867296
100294.608024
100295.174744
100295.503958
100295.661911
100295.709789
100295.686021
100295.61756
100295.637954
100293.431084
100295.389014
100296.928804
100298.219225
100295.826191
100286.350608
100288.286245
100290.310209
100290.544085
100290.03797
100290.715824
100291.728794
100292.532193
100293.11193
100293.3964
100293.498384
100293.498895
100293.447058
100293.368121
100293.385037
100293.470441
100294.971971
100296.099225
100296.482194
100285.035034
100284.865395
100288.246043
100289.024306
100288.161978
100287.184563
100288.155352
100289.255489
100290.099271
100290.63735
100290.82982
100290.853379
100290.801247
100290.719105
100290.634918
100290.65476
100293.140874
100294.274229
100295.245454
100285.496861
100282.265157
100286.156519
100287.097306
100286.661543
100284.474232
100283.735188
100285.027871
100286.158455
100286.992997
100287.395303
100287.476969
100287.430469
100287.336257
100287.234851
100287.154636
100287.17489
100292.419549
100293.698189
100287.202094
100278.561292
100282.137114
100283.440455
100283.676417
100282.024632
100279.321093
100279.486799
100280.953509
100282.110854
100282.867976
100283.120983
100283.130365
100283.044528
100282.930262
100282.825977
100282.756742
100282.775116
100291.051769
100286.288629
100271.377192
100275.070772
100278.034113
100278.820317
100277.989127
100275.468677
100273.412643
100274.507598
100275.990019
100277.111263
100277.702371
100277.845433
100277.81529
100277.718505
100277.606304
100277.516035
100277.46275
100277.48072
100280.234018
100262.414655
100265.800983
100270.663047
100272.170303
100272.094626
100270.461988
100268.090396
100267.208581
100268.757808
100270.225682
100271.249902
100271.657912
100271.738262
100271.690328
100271.599109
100271.502399
100271.430156
100271.392924
100271.411538
100253.152996
100256.484078
100261.70175
100263.961167
100264.66655
100263.921956
100262.776587
100260.870961
100260.799818
100262.472525
100263.893285
100264.716471
100264.981296
100265.015971
100264.951663
100264.860207
100264.775107
100264.707278
100264.677851
100264.694641
100248.293885
100253.971386
100256.327124
100257.43822
100257.454875
100256.826754
100255.757489
100253.565723
100254.256906
100256.027191
100257.306182
100257.833978
100257.935312
100257.862588
100257.729976
100257.592877
100257.478763
100257.388516
100257.345818
100257.351419
100246.722819
100249.118237
100250.572422
100251.066396
100250.441733
100249.432754
100247.589568
100245.687781
100247.186459
100249.00535
100250.045531
100250.314547
100250.239538
100250.021335
100249.779194
100249.55843
100249.376427
100249.239427
100249.165252
100249.149668
100241.503043
100243.32848
100244.49992
100243.944185
100242.341101
100241.214375
100238.535867
100237.669791
100239.713614
100241.364262
100241.949249
100241.899222
100241.559631
100241.127357
100240.711593
100240.352886
100240.056994
100239.845523
100239.721698
100239.672114
100235.722184
100237.466711
100237.414525
100235.505619
100233.616023
100231.478556
100227.896716
100228.681832
100230.858384
100232.103533
100232.214801
100231.799229
100231.151315
100230.472867
100229.850329
100229.315153
100228.882744
100228.582772
100228.401951
100228.30501
100229.681605
100229.889766
100227.582909
100224.44481
100221.613102
100216.971813
100214.839142
100216.759153
100218.956256
100219.723512
100219.501857
100218.77018
100217.883798
100217.019378
100216.238065
100215.564783
100215.039588
100214.681084
100214.4678
100214.320673
100220.645614
100217.771778
100212.848946
100208.100876
100203.028961
100198.705479
100198.442306
100200.129137
100201.559435
100201.934148
100201.65629
100201.031507
100200.287678
100199.548152
100198.871715
100198.295238
100197.848237
100197.541921
100197.373226
100197.202107
100205.976772
100200.338708
100193.586485
100187.195875
100181.588957
100178.625186
100177.971449
100178.43669
100178.999378
100179.390515
100179.480683
100179.204464
100178.746042
100178.288526
100177.908044
100177.616591
100177.391674
100177.233601
100177.180783
100177.020006
100186.238871
100179.858636
100172.722062
100166.068959
100160.979997
100157.865182
100156.047373
100155.170317
100154.75361
100154.445029
100153.96543
100153.40097
100153.111727
100153.156066
100153.260929
100153.382197
100153.43482
100153.456929
100153.53392
100153.347144
100163.790939
100158.238445
100151.923458
100145.969567
100141.277289
100137.710443
100135.006631
100133.020712
100131.207725
100128.686724
100125.82983
100124.12796
100123.8905
100124.300514
100124.360648
100124.028463
100124.881876
100125.883663
100126.472166
100126.444255
100137.189085
100133.698609
100129.625831
100125.784722
100122.409387
100119.459438
100116.913016
100114.289419
100110.69157
100106.505228
100104.423768
100104.007049
100103.909178
100102.976624
100101.141215
100100.555296
100100.037188
100100.776446
100101.975218
100102.318684
100100.875017
100102.165151
100102.232402
100102.212004
100101.879828
100101.034255
100099.795962
100097.642099
100094.200623
100091.697875
100091.475782
100091.568969
100090.900902
100088.87174
100087.781085
100087.446013
100087.257161
100086.779087
100086.846608
100087.168006
100059.133173
100065.478228
100070.299192
100073.930753
100076.850648
100078.809438
100079.721487
100079.430434
100078.095289
100077.718021
100078.40264
100079.174252
100079.077927
100078.033149
100077.213876
100077.175039
100077.120493
100076.844456
100076.613816
100076.618352
100032.561216
100036.928085
100042.767634
100048.367035
100053.062439
100056.638702
100059.411031
100061.263361
100062.460865
100063.164329
100064.512293
100065.961393
100066.550669
100066.12568
100065.828562
100065.738891
100065.732282
100065.714308
100065.456863
100065.384313
100022.833011
100023.656349
100026.644773
100030.89354
100035.743694
100040.088583
100043.553994
100046.403709
100048.471254
100049.93264
100051.248338
100052.672372
100053.929351
100054.645942
100054.751029
100054.761242
100054.788814
100054.826291
100054.573741
100054.454882
100018.170709
100018.05897
100019.094259
100021.274425
100024.552658
100028.380976
100031.771468
100034.512986
100036.546881
100037.929694
100039.087782
100040.420251
100041.8873
100043.149593
100043.956858
100044.058424
100044.138714
100044.174792
100043.880874
100043.742961
100013.57985
100013.718499
100014.281796
100015.515376
100017.509497
100020.181375
100022.755896
100024.971227
100026.189371
100027.513618
100028.567801
100029.655449
100031.056864
100032.463499
100033.564562
100034.134811
100034.240134
100034.278695
100033.951662
100033.742825
100009.416505
100009.694272
100010.198487
100011.048212
100012.329927
100014.026741
100015.790347
100017.008653
100017.258114
100018.39156
100019.188327
100020.132159
100021.315306
100022.637699
100023.783185
100024.339119
100024.697386
100024.89786
100024.60796
100024.348728
100005.505471
100005.821536
100006.27859
100006.923484
100007.789419
100008.792608
100009.610346
100009.050814
100009.629103
100010.507452
100011.201259
100011.8658
100012.697491
100013.688557
100014.562993
100015.235931
100015.297934
100015.688332
100015.678904
100015.42579
100001.749733
100001.854939
100002.197841
100002.663021
100003.115559
100003.357563
100003.010225
100002.608633
100003.207212
100003.607569
100003.931793
100004.26649
100004.663031
100005.15661
100005.612926
100005.841721
100005.756067
100006.254095
100006.377163
100006.19351
)
;

boundaryField
{
    emptyPatch
    {
        type            empty;
    }
    minY
    {
        type            calculated;
        value           nonuniform List<scalar> 0();
    }
    maxY
    {
        type            calculated;
        value           uniform 100000;
    }
    maxX
    {
        type            calculated;
        value           nonuniform List<scalar> 
38
(
100334.385109
100328.875022
100323.718932
100318.914347
100314.46736
100310.497716
100307.08979
100304.184408
100301.698247
100299.586011
100297.645749
100295.637954
100293.385037
100290.65476
100287.17489
100282.775116
100277.48072
100271.411538
100264.694641
100257.351419
100249.149668
100239.672114
100228.30501
100214.320673
100197.202107
100177.020006
100153.347144
100126.444255
100102.318684
100087.168006
100076.618352
100065.384313
100054.454882
100043.74296
100033.742822
100024.348717
100015.425764
100006.193491
)
;
    }
    water_to_heater
    {
        type            calculated;
        value           nonuniform List<scalar> 
59
(
100285.866491
100284.271643
100284.401412
100283.526261
100283.898089
100282.404061
100282.849051
100281.37649
100281.864022
100280.435156
100280.930585
100280.392513
100280.850309
100279.523601
100279.958183
100278.621167
100279.039353
100277.705501
100278.129437
100277.594508
100278.122514
100276.780239
100277.367063
100276.022404
100276.645428
100275.28706
100275.95073
100275.533766
100276.447236
100274.708523
100276.400735
100274.363501
100275.649287
100273.45388
100272.821431
100269.636504
100270.404133
100268.175795
100271.31126
100269.24812
100273.692803
100271.816975
100291.274722
100315.081219
100241.165324
100238.432697
100060.600141
100057.943397
100003.232906
100001.245835
100001.899423
100001.5536
100001.593883
100001.126236
100001.159615
100000.701294
100000.72836
100000.270059
100000.282162
)
;
    }
    procBoundary0to1
    {
        type            processor;
        value           nonuniform List<scalar> 
41
(
100286.550039
100286.51696
100286.485949
100286.442121
100286.376963
100286.317569
100286.190898
100286.309099
100287.768073
100290.854339
100294.388325
100297.780888
100300.978227
100304.015366
100306.983426
100309.848036
100312.574862
100315.125688
100317.386146
100319.453035
100335.60621
100336.764041
100336.891962
100335.727916
100337.207738
100337.940827
100338.378316
100338.839303
100339.225573
100339.661696
100339.964337
100340.10741
100340.152798
100340.140834
100340.121123
100340.142851
100321.464688
100323.350909
100325.138889
100326.729553
100326.729553
)
;
    }
}


// ************************************************************************* //
