/*--------------------------------*- C++ -*----------------------------------*\
| =========                 |                                                 |
| \\      /  F ield         | OpenFOAM: The Open Source CFD Toolbox           |
|  \\    /   O peration     | Version:  2312                                  |
|   \\  /    A nd           | Website:  www.openfoam.com                      |
|    \\/     M anipulation  |                                                 |
\*---------------------------------------------------------------------------*/
FoamFile
{
    version     2.0;
    format      ascii;
    arch        "LSB;label=32;scalar=64";
    class       volScalarField;
    location    "0.25/water";
    object      alphat.gas;
}
// * * * * * * * * * * * * * * * * * * * * * * * * * * * * * * * * * * * * * //

dimensions      [1 -1 -1 0 0 0 0];

internalField   nonuniform List<scalar> 
750
(
1.52460288258e-07
1.3298464917e-07
1.17204013309e-07
1.04665276668e-07
9.70870524074e-08
9.83028042373e-08
9.93538912658e-08
9.68730784797e-08
9.88791342904e-08
9.76463486436e-08
9.72766453052e-08
9.85812821255e-08
1.05029386252e-07
1.13008799136e-07
1.19759771476e-07
1.22707869941e-07
1.20106339741e-07
1.12872069895e-07
1.02899752388e-07
9.01499875601e-08
2.03487805033e-07
1.62623814179e-07
1.33822835928e-07
1.14541836849e-07
1.04262586163e-07
1.03510024165e-07
1.06598533811e-07
1.07310585944e-07
1.06672186157e-07
1.0639647205e-07
1.03399527919e-07
9.21358056735e-08
8.04501487333e-08
7.21995870461e-08
6.80115383352e-08
6.83062273986e-08
7.19626504234e-08
7.6914157382e-08
8.14110669099e-08
8.42067342032e-08
1.70162324024e-07
1.3550048417e-07
1.11245812199e-07
9.5489685819e-08
8.79115933038e-08
8.78794206726e-08
9.1481175427e-08
9.37279725701e-08
9.37255425625e-08
9.21414916768e-08
8.8237812956e-08
8.04806168042e-08
6.98403711733e-08
6.00367726449e-08
5.39537099754e-08
5.25104268034e-08
5.55796421613e-08
6.26086878405e-08
7.19598382625e-08
7.95255434358e-08
1.57056370205e-07
1.24764543664e-07
1.01214984062e-07
8.48561790449e-08
7.57266087753e-08
7.34573692354e-08
7.52295077608e-08
7.68094533466e-08
7.61487762041e-08
7.30117409115e-08
6.71312489094e-08
5.71303747163e-08
4.6735277553e-08
4.14007771026e-08
4.27838362912e-08
5.14401300208e-08
6.67034316562e-08
8.39777786689e-08
9.63949820265e-08
9.52075258914e-08
1.70086066734e-07
1.33376918067e-07
1.06612714527e-07
8.75798541994e-08
7.57284699544e-08
6.9638210016e-08
6.65385994604e-08
6.33872839901e-08
5.88045559647e-08
5.28174808371e-08
4.51406060923e-08
3.7022448712e-08
3.24367002461e-08
3.31191215698e-08
4.00987680682e-08
5.13673519804e-08
6.30239056205e-08
7.16319354302e-08
7.51167055986e-08
7.00879648484e-08
1.63174207013e-07
1.26796263755e-07
1.00073984142e-07
8.16407768319e-08
6.93444521361e-08
6.05653809808e-08
5.33764135789e-08
4.61008780995e-08
3.81709928073e-08
3.05775754971e-08
2.46547196498e-08
2.29668886326e-08
2.8098577795e-08
3.79726855011e-08
4.77310058493e-08
5.46595300734e-08
5.87336502718e-08
6.07505872977e-08
6.12685840637e-08
5.81386799063e-08
1.52917527654e-07
1.17925959675e-07
9.22278264626e-08
7.38734054109e-08
5.99647813098e-08
4.82249840635e-08
3.81593960023e-08
2.97055066899e-08
2.34099551988e-08
2.1089070713e-08
2.39080817757e-08
3.17187897334e-08
4.05001301386e-08
4.66552106534e-08
5.05610338302e-08
5.29598509677e-08
5.42039213036e-08
5.47033954833e-08
5.47205741914e-08
5.30971931699e-08
1.45942305556e-07
1.11480319963e-07
8.63547941166e-08
6.78781911176e-08
5.27863631167e-08
3.96034063746e-08
2.9111174709e-08
2.24663520699e-08
2.03111737051e-08
2.33987264768e-08
3.07887508298e-08
3.82867309335e-08
4.3214900938e-08
4.63606957804e-08
4.87058220553e-08
5.05115531127e-08
5.18750860272e-08
5.29518276216e-08
5.38471729579e-08
5.38641107813e-08
1.40578728973e-07
1.07076440772e-07
8.24779486762e-08
6.39280270855e-08
4.84607946684e-08
3.56356725545e-08
2.6777928211e-08
2.26838054148e-08
2.32076679921e-08
2.792791808e-08
3.45585994933e-08
3.98700893099e-08
4.28725340294e-08
4.46454719606e-08
4.61238123935e-08
4.77669612244e-08
4.96787953414e-08
5.19132756923e-08
5.4417133304e-08
5.58912136443e-08
1.3347284239e-07
1.02375343704e-07
7.89647412116e-08
6.12433842796e-08
4.67575872924e-08
3.54190232904e-08
2.84330276474e-08
2.61665931066e-08
2.79215095195e-08
3.25662778409e-08
3.82331289633e-08
4.28264363755e-08
4.5381024094e-08
4.62664297235e-08
4.63118062144e-08
4.634155242e-08
4.72302767723e-08
4.94578071049e-08
5.2756321964e-08
5.43804243681e-08
1.01914162912e-07
8.14948757781e-08
6.42077086659e-08
5.06301584172e-08
3.99029960361e-08
3.18486770442e-08
2.73270951009e-08
2.65593170509e-08
2.89466191607e-08
3.33805460021e-08
3.87988898701e-08
4.42189801394e-08
4.87889651716e-08
5.19871410663e-08
5.36387069516e-08
5.39007845064e-08
5.15756993342e-08
4.89636324209e-08
4.80671972655e-08
4.62482891167e-08
9.83705795723e-08
7.99664223329e-08
6.29502656484e-08
4.86147408439e-08
3.68907082258e-08
2.86141507214e-08
2.50585257934e-08
2.56114085015e-08
2.85803863972e-08
3.2505766656e-08
3.67564013478e-08
4.11531746097e-08
4.56983953032e-08
5.04872094438e-08
5.54504244426e-08
6.03283176365e-08
6.37633265232e-08
6.60682887599e-08
6.39440209101e-08
5.49707128131e-08
7.08889161614e-08
5.78742342449e-08
4.73115715552e-08
3.87731146871e-08
3.19220955806e-08
2.6736886273e-08
2.37178578268e-08
2.27581151209e-08
2.3211203714e-08
2.45739516041e-08
2.65992910296e-08
2.91476170198e-08
3.20829926574e-08
3.5250044988e-08
3.83997537511e-08
4.11615397935e-08
4.32605636995e-08
4.5821677451e-08
4.9450890117e-08
6.63821201056e-08
5.41156802035e-08
4.47372483126e-08
3.72623518702e-08
3.12860824142e-08
2.67653466323e-08
2.40572262158e-08
2.3064388016e-08
2.31186981262e-08
2.37012464316e-08
2.47072544213e-08
2.61923585567e-08
2.81388319406e-08
3.04395908005e-08
3.29247907461e-08
3.53410340195e-08
3.73723602613e-08
3.85099056922e-08
3.92508381673e-08
7.53315255897e-08
6.0606863757e-08
4.98405470596e-08
4.14730870195e-08
3.47836296059e-08
2.95928821909e-08
2.60800759629e-08
2.40944936439e-08
2.30645045654e-08
2.25895465709e-08
2.26168912817e-08
2.32011531117e-08
2.43198298232e-08
2.5857479868e-08
2.76359455705e-08
2.94558810037e-08
3.11398700058e-08
3.25119337981e-08
3.36562426359e-08
8.94986977888e-08
7.1248486005e-08
5.84374458728e-08
4.92366567147e-08
4.25064660042e-08
3.74949250423e-08
3.37542184353e-08
3.09868163984e-08
2.8843404803e-08
2.70503190777e-08
2.56735975418e-08
2.48336746959e-08
2.45113400491e-08
2.46585700511e-08
2.52112310938e-08
2.6087193754e-08
2.72115040611e-08
2.8454436714e-08
2.96874057179e-08
1.21086635132e-07
9.62751094926e-08
7.86190889734e-08
6.58520456709e-08
5.6470941352e-08
4.97372114168e-08
4.51268952338e-08
4.18973468894e-08
3.91301230009e-08
3.62265769568e-08
3.32185786384e-08
3.06984584828e-08
2.89065336621e-08
2.77234923137e-08
2.70619401205e-08
2.68891193106e-08
2.72388848094e-08
2.81567173964e-08
2.96413067389e-08
7.67536006511e-08
6.23144811396e-08
5.1644512658e-08
4.41751949096e-08
4.10944755859e-08
4.73635860434e-08
6.32390963924e-08
7.63611784587e-08
7.96366578828e-08
7.50486732963e-08
7.09158690962e-08
6.86707938819e-08
6.76465914972e-08
6.75666430213e-08
6.82612984611e-08
6.96715647253e-08
7.15316914359e-08
7.28189195769e-08
7.23077841028e-08
8.01232553413e-08
6.38047522358e-08
5.23823609677e-08
4.4405744768e-08
4.11853366604e-08
5.01681858048e-08
7.89196584665e-08
1.20279670567e-07
1.55373393661e-07
1.75569961019e-07
1.70877844803e-07
1.59474804452e-07
1.51186423162e-07
1.44804580825e-07
1.3990074801e-07
1.35922730537e-07
1.30916453287e-07
1.22162827235e-07
1.1282917925e-07
9.77001548141e-08
7.90713393331e-08
6.62761390879e-08
5.69164264274e-08
4.98730862734e-08
4.51879529344e-08
4.44285604123e-08
5.12689455421e-08
6.78572910636e-08
8.8677268926e-08
1.06971516613e-07
1.1559678181e-07
1.25549377118e-07
1.34900175784e-07
1.36498920861e-07
1.42071883301e-07
1.49241881365e-07
1.53193055308e-07
1.5332057143e-07
9.86214726919e-08
8.14604450276e-08
6.9883109606e-08
6.24705574773e-08
5.79192546835e-08
5.48635131728e-08
5.2519619999e-08
5.23293262299e-08
5.97800505961e-08
8.34570718881e-08
1.18080601461e-07
1.53332923314e-07
1.88885201804e-07
2.02938504848e-07
2.08250770842e-07
2.39132821398e-07
2.84463036924e-07
3.21257234344e-07
5.81292789194e-07
9.14454568137e-08
7.63582487379e-08
6.49933599919e-08
5.74858826158e-08
5.3927077953e-08
5.70587621343e-08
7.15520355344e-08
9.90944411618e-08
1.37188916397e-07
1.81480753086e-07
2.2415749708e-07
2.59334814155e-07
2.71792588967e-07
4.26944589288e-07
1.22558576421e-06
1.4566107515e-06
1.45234033702e-06
1.34760594823e-06
1.18803174196e-06
8.73239253919e-08
6.90584201339e-08
5.85416316294e-08
6.08732786841e-08
8.85137159426e-08
1.40052444058e-07
1.98575450095e-07
2.64040733222e-07
3.38601753898e-07
4.26263616936e-07
4.84636588783e-07
4.75824546612e-07
4.7076699066e-07
4.70291909494e-07
4.65251169592e-07
4.54221290511e-07
4.42745645467e-07
4.95481550722e-07
3.76411416433e-07
1.61995311794e-07
8.78146170714e-08
6.90916876091e-08
6.01621085961e-08
7.00267228105e-08
1.12645134406e-07
1.79734493573e-07
2.56171487203e-07
3.28250722918e-07
4.167877927e-07
5.41165403609e-07
6.52924719545e-07
6.93351481682e-07
6.90148998252e-07
6.67751940376e-07
6.26069324561e-07
5.8738647889e-07
5.49761572875e-07
4.98532190758e-07
4.07946575883e-07
2.48148609246e-07
9.16374536372e-08
7.53810059399e-08
6.31718008058e-08
5.55692137299e-08
5.61655396774e-08
7.56159845394e-08
1.19127389047e-07
1.75431584829e-07
2.41138120298e-07
3.14721997148e-07
3.75233933899e-07
4.32614022607e-07
4.55591747311e-07
4.66556667396e-07
4.72797389913e-07
4.71035825115e-07
4.57841391952e-07
4.36300066849e-07
4.03128650184e-07
3.39089411137e-07
1.08965366037e-07
8.84885999744e-08
7.44700386708e-08
6.35190588462e-08
5.59416594674e-08
5.20007129136e-08
5.56022845941e-08
7.51415567131e-08
1.14489221276e-07
1.64189563789e-07
2.09983961965e-07
2.50001624426e-07
2.88678201452e-07
3.14110103668e-07
3.31353484116e-07
3.43081300628e-07
3.49638507212e-07
3.51149517916e-07
3.45601256772e-07
3.22829627997e-07
9.24129218106e-08
7.63287308653e-08
6.41748920037e-08
5.5640194253e-08
4.99948130281e-08
4.7816839088e-08
5.3341816418e-08
7.44030232157e-08
1.12235605065e-07
1.57964236918e-07
1.98052885866e-07
2.3036110577e-07
2.53357747182e-07
2.67942498751e-07
2.79612968434e-07
2.90597186316e-07
3.01190581902e-07
3.10440644639e-07
3.15368883908e-07
3.06917450445e-07
8.5244099124e-08
6.67891686043e-08
5.49136296615e-08
4.94564187332e-08
5.99424525471e-08
9.73748090073e-08
1.5641578048e-07
2.32614045779e-07
3.36605762306e-07
3.68814983063e-07
4.17570472577e-07
4.16835844044e-07
3.75110502462e-07
3.4739222788e-07
3.29207914137e-07
3.18698487489e-07
3.14665341633e-07
3.15014583497e-07
3.15203728018e-07
3.03996259707e-07
8.83545476379e-08
6.88373749183e-08
5.82491650627e-08
5.3182426215e-08
6.78158901666e-08
1.13215071478e-07
1.85957142679e-07
2.9333563259e-07
3.88132667522e-07
3.96672062432e-07
4.534399647e-07
4.680925437e-07
4.3712171531e-07
4.11080347691e-07
3.895628701e-07
3.72087953359e-07
3.58635351183e-07
3.48521077839e-07
3.38354877155e-07
3.15923706106e-07
1.02701639702e-07
8.21865664269e-08
6.77277325904e-08
5.71156982658e-08
5.12270588882e-08
5.62798801879e-08
8.26257524377e-08
1.29749474022e-07
1.97154471354e-07
2.60508019704e-07
3.13913755434e-07
3.51436452203e-07
3.7128069028e-07
3.83927658707e-07
3.90741888869e-07
3.91628321831e-07
3.87736235585e-07
3.79926931469e-07
3.66264339387e-07
3.34973481403e-07
1.022327646e-07
8.08483897291e-08
6.65192022612e-08
5.61531645438e-08
5.01489332584e-08
5.15168675347e-08
6.85751236967e-08
1.05630380219e-07
1.56777410415e-07
2.15286277708e-07
2.58403218144e-07
2.90389458486e-07
3.16932651132e-07
3.45127715738e-07
3.69505147698e-07
3.86747657141e-07
3.95841275039e-07
3.96309701567e-07
3.85464139573e-07
3.51804765814e-07
9.7676628331e-08
7.74141785315e-08
6.41460770614e-08
5.68661063245e-08
6.12545577274e-08
8.87742488045e-08
1.39456232596e-07
2.03454606005e-07
2.70539367528e-07
3.29298956241e-07
3.63205905488e-07
3.52954905469e-07
3.33899761015e-07
3.37184503909e-07
3.53447591578e-07
3.73260461966e-07
3.89743890739e-07
3.98311193164e-07
3.93764685367e-07
3.642389533e-07
1.22955853409e-07
8.51477777818e-08
8.74645651463e-08
1.09588522498e-07
1.88168891557e-07
3.02942502968e-07
4.20670555256e-07
5.31444114123e-07
6.28725394034e-07
6.14111748186e-07
6.4487061468e-07
5.40976429692e-07
4.44883442044e-07
3.85114993335e-07
3.61471629324e-07
3.64742007655e-07
3.79283789762e-07
3.91872985229e-07
3.92861785235e-07
3.69522699293e-07
1.28849915354e-07
1.00550733761e-07
9.84416857441e-08
1.33271567684e-07
2.24164627739e-07
3.54462608434e-07
4.7688961287e-07
6.20638470568e-07
6.4871492066e-07
7.00025151225e-07
7.40149753805e-07
6.54788231782e-07
5.5233401871e-07
4.65866673942e-07
4.11384953906e-07
3.9230980101e-07
3.93682022547e-07
3.9874720038e-07
3.9602764235e-07
3.73170597731e-07
1.077578971e-07
8.33355291421e-08
7.50381011406e-08
6.87582099686e-08
9.22311435576e-08
1.55054238849e-07
2.60244055406e-07
3.87127475823e-07
4.07927859619e-07
4.89809575366e-07
5.46898200453e-07
5.49696889939e-07
5.2074911664e-07
4.91777110079e-07
4.72551791211e-07
4.59257632117e-07
4.46944836616e-07
4.33588499564e-07
4.16182342014e-07
3.87263183932e-07
1.08705102174e-07
8.44652226581e-08
7.24270226195e-08
7.23578773702e-08
1.05887295059e-07
1.85171731922e-07
3.28895429396e-07
4.26470653659e-07
4.83735703355e-07
5.62817597111e-07
5.95722248115e-07
5.96562278557e-07
5.93932461858e-07
5.92947120959e-07
6.04424812941e-07
6.17850501002e-07
5.95152708784e-07
5.52766321779e-07
5.25710726393e-07
4.97056973462e-07
1.48490887037e-07
8.9873494651e-08
9.05994605427e-08
1.1350541928e-07
1.93100516109e-07
3.24268870428e-07
4.99180733768e-07
5.26108837313e-07
6.44164386339e-07
7.47707647306e-07
7.84240052415e-07
7.50420916468e-07
7.14282435358e-07
7.17954596766e-07
7.53837855236e-07
7.63932691799e-07
7.09120726392e-07
6.63261736104e-07
6.33982138045e-07
6.06586317099e-07
1.57931714249e-07
1.31933677522e-07
1.69999521647e-07
2.89380064058e-07
4.61005384024e-07
6.39444681991e-07
8.36480362805e-07
8.53550726164e-07
9.48557055855e-07
1.05649487041e-06
1.03916269492e-06
9.43417349287e-07
8.56073058423e-07
8.21798485273e-07
8.20646877012e-07
7.8801992324e-07
7.0439143088e-07
6.49601647179e-07
6.22487452874e-07
6.1060274668e-07
)
;

boundaryField
{
    emptyPatch
    {
        type            empty;
    }
    minY
    {
        type            zeroGradient;
    }
    maxY
    {
        type            calculated;
        value           nonuniform List<scalar> 
20
(
1.57834824668e-07
1.31848287892e-07
1.69882115503e-07
2.89196896617e-07
4.6071207019e-07
6.39445128301e-07
8.39533773344e-07
8.59966111454e-07
9.48853368014e-07
1.05513318797e-06
1.03782036002e-06
9.42198256478e-07
8.5496686257e-07
8.20736628548e-07
8.19586537198e-07
7.86968338008e-07
7.03453375209e-07
6.48762046494e-07
6.21720072639e-07
6.09898818345e-07
)
;
    }
    maxX
    {
        type            compressible::alphatPhaseChangeJayatillekeWallFunction;
        Prt             0.85;
        Cmu             0.09;
        kappa           0.41;
        E               9.8;
        dmdt            nonuniform List<scalar> 0();
        value           nonuniform List<scalar> 0();
    }
    water_to_heater
    {
        type            compressible::alphatWallBoilingWallFunction;
        phaseType       vapor;
        relax           constant 1;
        partitioningModel
        {
            type            Lavieville;
            alphaCrit       0.2;
        }
        otherPhase      liquid;
        dmdt            uniform 0;
        dDep            uniform 1e-05;
        qQuenching      uniform 0;
        alphatConv      uniform 0;
        value           nonuniform List<scalar> 
61
(
1.56066283758e-08
1.56066283758e-08
2.26459156058e-06
2.26459156058e-06
2.25830793409e-06
1.44463471319e-06
3.83250996327e-06
3.83250996327e-06
5.07638904389e-06
5.07638904389e-06
5.46461155297e-06
5.46461155297e-06
5.65263562312e-06
5.71452068162e-06
5.71451091649e-06
5.71451091649e-06
4.97949338017e-06
4.97949338017e-06
4.9795920406e-06
4.9795920406e-06
1.54753407051e-06
6.2497194839e-07
9.99951188897e-07
9.99951188897e-07
8.64553845175e-07
8.64553845175e-07
1.631576269e-07
1.631576269e-07
1.06360496841e-10
8.42962108902e-11
3.27954849008e-10
3.27954849008e-10
2.18743150546e-10
2.18743150546e-10
4.11624099658e-11
4.11624099658e-11
2.25724953092e-11
2.25656423395e-11
2.65061304235e-11
2.65061304235e-11
1.24356874414e-10
1.24356874414e-10
2.89019338101e-11
2.89019338101e-11
2.0324546412e-11
2.00550628211e-11
2.80470640969e-11
2.80470640969e-11
3.23489775197e-11
3.23489775197e-11
1.82454623997e-11
1.82454623997e-11
1.64797533501e-11
1.64673453257e-11
1.93497872085e-11
1.93497872085e-11
1.91693306166e-11
1.91693306166e-11
1.63827070794e-11
1.63827070794e-11
1.72981200858e-11
)
;
    }
    procBoundary3to0
    {
        type            processor;
        value           nonuniform List<scalar> 
20
(
8.37023268924e-08
6.99423197642e-08
6.19447302017e-08
6.25062525576e-08
6.80073484398e-08
7.16862815603e-08
6.94869798905e-08
6.6233729794e-08
6.89796235169e-08
8.15295906855e-08
1.00093438499e-07
1.15607582058e-07
1.27950139054e-07
1.37016351655e-07
1.42545080046e-07
1.43432907853e-07
1.36872924302e-07
1.22160861178e-07
1.05589398285e-07
9.27426156343e-08
)
;
    }
    procBoundary3to1
    {
        type            processor;
        value           uniform 6.16053140724e-08;
    }
    procBoundary3to2
    {
        type            processor;
        value           nonuniform List<scalar> 
39
(
7.95281263202e-08
8.28728621818e-08
5.64446918308e-08
5.42578945845e-08
5.11929939489e-08
5.27398454643e-08
5.75122515718e-08
6.33187457244e-08
6.61312180714e-08
6.31039512833e-08
5.11257329874e-08
5.47806386003e-08
5.11257329874e-08
4.07859628105e-08
3.51180549944e-08
3.1475331578e-08
3.20237681575e-08
7.17543791714e-08
1.0700614747e-07
1.5022140588e-07
8.82579992043e-07
9.85364426739e-07
9.85364426739e-07
1.37498359747e-08
2.32432366004e-08
3.60459998813e-08
5.05370607232e-08
6.97887524934e-08
7.97267329842e-08
8.39957379204e-08
8.92772701707e-08
9.49198670763e-08
1.02242097784e-07
1.13188305327e-07
1.31910604734e-07
1.6448402497e-07
2.7962077981e-07
3.26772971185e-07
3.30261599672e-07
)
;
    }
}


// ************************************************************************* //
