/*--------------------------------*- C++ -*----------------------------------*\
| =========                 |                                                 |
| \\      /  F ield         | OpenFOAM: The Open Source CFD Toolbox           |
|  \\    /   O peration     | Version:  2312                                  |
|   \\  /    A nd           | Website:  www.openfoam.com                      |
|    \\/     M anipulation  |                                                 |
\*---------------------------------------------------------------------------*/
FoamFile
{
    version     2.0;
    format      ascii;
    arch        "LSB;label=32;scalar=64";
    class       volScalarField;
    location    "0.28/water";
    object      alpha.gas_0;
}
// * * * * * * * * * * * * * * * * * * * * * * * * * * * * * * * * * * * * * //

dimensions      [0 0 0 0 0 0 0];

internalField   nonuniform List<scalar> 
750
(
0.855425150319
0.855406308826
0.857750797599
0.863527870147
0.872242499347
0.882802874301
0.893778581396
0.904086593113
0.913602901095
0.922062345411
0.928866192951
0.934300924409
0.935914890717
0.934045899355
0.92721899146
0.912743739432
0.89155860566
0.86735825167
0.862856128608
0.875141749362
0.880978176749
0.877769786915
0.876614715969
0.879040323343
0.886468905716
0.897451140434
0.909330241713
0.921336066993
0.933382767167
0.942425410866
0.947975174576
0.948782580444
0.948704112804
0.948801427967
0.948704112804
0.94624995377
0.936121068693
0.923428067537
0.919542750529
0.92651419311
0.898725872622
0.896782634806
0.896016948954
0.89796363144
0.905397104522
0.916673508461
0.928990808749
0.94071248885
0.948554982926
0.948704112804
0.948800032483
0.948704112804
0.94882685786
0.948704112804
0.948834771579
0.948704112804
0.948824270072
0.948704112804
0.948754857151
0.948704112804
0.898725317768
0.89789913193
0.898860970377
0.90296479228
0.912746799213
0.925739514759
0.939796345657
0.948723850383
0.948704112804
0.948765755673
0.948704112804
0.948792215333
0.948704112804
0.948795613452
0.948704112804
0.948797936523
0.948704112804
0.948799321669
0.948704112804
0.948804029605
0.89862413816
0.896932243256
0.897823709741
0.901985897073
0.912393198673
0.926555410161
0.941659695213
0.948704112804
0.948720189214
0.948704112804
0.948735805533
0.948704112804
0.948736065053
0.948704112804
0.948731352653
0.948704112804
0.948729057915
0.948704112804
0.94872841657
0.948704112804
0.898353813878
0.896451100268
0.896825970625
0.900153203739
0.910136945999
0.924559791355
0.939456672685
0.947491590071
0.948140763555
0.946985667866
0.944478318472
0.941351448906
0.939491188392
0.93914687078
0.93937058268
0.939380301813
0.938776354493
0.937649007038
0.937941127926
0.943194924835
0.89771308934
0.895710207506
0.894913725884
0.896075889656
0.902043189752
0.912039522576
0.921870886475
0.924920157206
0.919863385901
0.912132142171
0.904279622792
0.898908036918
0.898894360908
0.901528578251
0.904020471625
0.904936573847
0.903775036631
0.900326929594
0.896950935627
0.897824885058
0.866328415179
0.873330345191
0.854601484819
0.833633820712
0.814189914385
0.80074291193
0.79752285685
0.813765403844
0.831819231285
0.83976936603
0.843149971622
0.846303245297
0.849894794196
0.851834391715
0.85191670453
0.850631910381
0.847133623653
0.840418291974
0.831962149776
0.818379368717
0.467172709638
0.470544644713
0.454246450433
0.468874548546
0.442089444143
0.468018420491
0.458730986393
0.688573488932
0.798135337694
0.818061735982
0.828513390196
0.836614443552
0.831807139521
0.818934490093
0.806738867632
0.79849725182
0.792090474835
0.78455117204
0.774714588062
0.7552897617
0.480254577887
0.472825607642
0.468874548546
0.4574609814
0.468018420491
0.44234739521
0.46605877889
0.431982497701
0.46605877889
0.429052813063
0.466425189943
0.695975632019
0.767920779016
0.760617035906
0.745177929739
0.734886115046
0.73184474949
0.729352172363
0.722624736183
0.699968157964
0.695294177524
0.697933901659
0.669791614038
0.601796375986
0.515512061386
0.468018420491
0.46121935837
0.46605877889
0.45225736198
0.466089064209
0.448338399946
0.468018420491
0.489490953297
0.649701794058
0.68024288159
0.670575710812
0.66115592534
0.653681930953
0.638939310897
0.599726060013
0.75454252358
0.761966778578
0.739887101896
0.688710020985
0.608546002289
0.516581503097
0.468018420491
0.459311473665
0.468018420491
0.449722550038
0.468018420491
0.450889098385
0.470544644713
0.453609205251
0.566280212495
0.66590048669
0.639011738179
0.600646348127
0.559504394515
0.507038004326
0.787413516605
0.791329518679
0.777676824098
0.760172125646
0.742805212696
0.710785820459
0.642724506597
0.545826077362
0.472143785794
0.468018420491
0.460575533797
0.470544644713
0.452352048338
0.470893964995
0.449730598761
0.472515819046
0.497428092806
0.573462436916
0.534788886916
0.817067915923
0.817312979329
0.814773870121
0.811393641651
0.808200632648
0.806222613188
0.805000679697
0.800070580694
0.783107870095
0.744906105698
0.675983656065
0.578002248369
0.493562991764
0.4690163063
0.472515819046
0.470260375776
0.473634148754
0.466039272785
0.473634148754
0.82064666633
0.820032501998
0.819076543954
0.818523508673
0.818818965899
0.820615510468
0.824905964384
0.831550921451
0.839761498037
0.848921417744
0.855987102498
0.855485658546
0.840577977083
0.806233660012
0.752067665434
0.674231119959
0.587639489128
0.51937721968
0.486321467794
0.81871138486
0.816115530846
0.813929400215
0.813193179686
0.813533303791
0.814978370532
0.818357485949
0.82409173306
0.832217870436
0.842534536407
0.854688133697
0.868298204512
0.884472520016
0.900950548989
0.900884414333
0.899278485044
0.878791813059
0.823993989641
0.710759316051
0.81313099052
0.811099518072
0.809154605312
0.8083076306
0.808322241577
0.808825595832
0.810444910097
0.81365889121
0.818787079332
0.826018397618
0.835472250731
0.847561159144
0.862538754662
0.879841717888
0.896889588297
0.907982285295
0.908001320511
0.901227965174
0.845245820671
0.84500012985
0.841576116121
0.836386987314
0.831157369865
0.827247291274
0.824843503354
0.823973884325
0.824191361541
0.825173801796
0.827141277314
0.830084937924
0.835325198982
0.843713920355
0.854315723955
0.865117389017
0.875217496159
0.885048175805
0.891040452676
0.880273427557
0.886259660248
0.881300014783
0.877570738557
0.874840512826
0.873094907231
0.871459910829
0.869735313943
0.86800577895
0.866304859204
0.864831527249
0.864447775952
0.86491381907
0.865316921809
0.862614205505
0.853809178245
0.843316552349
0.839015680984
0.841803570823
0.843601522356
0.886267606686
0.885050186942
0.885052320886
0.885033465492
0.885023258094
0.885006494899
0.88501262209
0.884988596642
0.884977544537
0.884960584783
0.884968668084
0.884945327852
0.884946019287
0.883768361255
0.868091734611
0.848118682159
0.82264210581
0.805990966165
0.80564202663
0.85782309551
0.856778601719
0.85792950314
0.860640295545
0.864500582693
0.868482506434
0.871948766383
0.874506577548
0.875913378406
0.876287129038
0.876013031112
0.875001900469
0.87254249114
0.866350805535
0.853672522334
0.836159334503
0.813142253628
0.805138285355
0.805706524473
0.852415151501
0.849169640695
0.845681234245
0.843833750695
0.843835066293
0.844613890256
0.845750157871
0.846320330491
0.845702060831
0.843201939605
0.838890197094
0.833290755609
0.826700207261
0.819447984839
0.812296783059
0.806249705731
0.804020798862
0.804458969411
0.815283857532
0.841525755502
0.838445275369
0.836059800065
0.835062119338
0.835096981694
0.83527920205
0.835048618246
0.83349321591
0.829783384644
0.82354406449
0.814766193211
0.803614673497
0.790159902992
0.774105772741
0.755720521492
0.739026488201
0.732607503601
0.735937630359
0.760565416917
0.819616401419
0.867290999474
0.862407254262
0.859759812946
0.858750970421
0.859722316351
0.861449585453
0.863238250565
0.864314826513
0.864276381241
0.863167516043
0.86101286475
0.857820538456
0.853367046306
0.846024898587
0.829270544397
0.785778449466
0.69735799489
0.628817765559
0.628482839278
0.6621480727
0.867262953951
0.866138046316
0.866104185909
0.86605208101
0.866093200757
0.865993701173
0.86595938975
0.865906385369
0.865929585479
0.865847225259
0.865812817062
0.865759686634
0.865787017827
0.865713070165
0.8561717787
0.815033569927
0.755314028086
0.693612425869
0.651316335585
0.671553800074
0.847255903957
0.845987344215
0.846018453177
0.846626275989
0.848355282916
0.850672109216
0.852847442817
0.854545275626
0.855785657032
0.856648297772
0.857097452296
0.856805970617
0.854543246543
0.848147264603
0.835035437233
0.813510448162
0.784073179539
0.75334825613
0.739046917586
0.757708461882
0.84396639035
0.841343263008
0.838795798426
0.83732814226
0.836958336908
0.836756868729
0.835962184454
0.833522549461
0.829313820762
0.825507112202
0.82413694529
0.824361364292
0.824290385577
0.822922074577
0.820187858711
0.81708329201
0.813112991898
0.806533897932
0.797648441917
0.791138346824
0.838927208754
0.835822738602
0.83205115764
0.827777641082
0.822727864336
0.815030607528
0.801124003127
0.775158250774
0.730898351154
0.668287953605
0.607211357052
0.580243167462
0.594996425144
0.648725020835
0.730117081149
0.789095678145
0.804544281144
0.800749084304
0.782807140848
0.757319557143
0.835765132366
0.832196398163
0.826395823372
0.818954404403
0.809770461264
0.797208012877
0.777750769389
0.744585729501
0.686846965077
0.594733173368
0.483199785813
0.40907452743
0.409863348447
0.444273978145
0.543438751025
0.676041852441
0.749622551214
0.75270571652
0.72552215402
0.684535168396
0.745494914523
0.737537575279
0.718999113094
0.683883587201
0.628620310016
0.553394075767
0.468694301667
0.409104019161
0.407076369185
0.409104019161
0.40504247883
0.409104019161
0.577851273402
0.804657109817
0.852900718953
0.84812897508
0.825555433537
0.78575746502
0.741725178209
0.710204100726
0.817286555097
0.816691517858
0.816431607721
0.818244525987
0.823401857279
0.829556251023
0.833260394838
0.834550504994
0.835645507614
0.839751471369
0.852230800317
0.875918558211
0.90210774798
0.914118687944
0.915103764395
0.908533597232
0.888775354251
0.853954605393
0.810841854559
0.774151611461
0.847077721994
0.845213877997
0.844265569929
0.844391489387
0.846189812397
0.851021631406
0.85883680236
0.868023927791
0.876676702321
0.884070638565
0.890944530542
0.8986513722
0.907774734147
0.916377397777
0.920772933019
0.920563814315
0.917549481759
0.90967847346
0.896032779955
0.876450988867
0.798580978773
0.796393183877
0.794263194748
0.793409614529
0.793441495659
0.794548461314
0.797817795926
0.80426524706
0.814918468804
0.830667179413
0.85163705138
0.876218256876
0.900558551591
0.919702140736
0.930481422238
0.933829072178
0.933561339786
0.932725210724
0.934019784945
0.940450851681
0.804885050615
0.803343990718
0.802639415812
0.802836045874
0.804284406643
0.80793820348
0.81436359385
0.823915592686
0.837106842947
0.854581506722
0.876264646074
0.900253835989
0.922656519159
0.939393621792
0.948478421261
0.951115437181
0.950500118635
0.948265728068
0.945352367146
0.944983248459
0.879463418744
0.871856661646
0.866798258878
0.865583905356
0.867963062089
0.874074394762
0.883246335001
0.894414350085
0.906939930872
0.919553673034
0.932253004725
0.945602021653
0.956052475334
0.959736594075
0.959482767135
0.958136390853
0.955719388689
0.953021467756
0.950304756106
0.936317697724
0.908779624854
0.896361980591
0.899859734648
0.904556068121
0.912068837258
0.921232479723
0.931105536449
0.942127294297
0.956411059289
0.962952998568
0.962979331052
0.963050595144
0.963052211196
0.963046692887
0.962952536884
0.962316279884
0.961200706291
0.959836080466
0.943765533373
0.718423892769
0.904908385762
0.892191184609
0.896276679856
0.902475493591
0.912191224696
0.923654220169
0.935333105679
0.946984978343
0.962043963791
0.962979331052
0.963104056682
0.963052211196
0.963209503472
0.963052211196
0.963199315982
0.962980140254
0.963114102471
0.962915145786
0.947033893849
0.403935927951
0.887451065193
0.882479354835
0.885072848926
0.891008328551
0.901184173277
0.91384904309
0.927202722323
0.940019417646
0.952163344597
0.962641712093
0.963052211196
0.963104056682
0.963104056682
0.963123260356
0.963052211196
0.962945703418
0.962090408863
0.961453941416
0.95129298769
0.576286600155
)
;

boundaryField
{
    emptyPatch
    {
        type            empty;
    }
    minY
    {
        type            fixedValue;
        value           nonuniform List<scalar> 0();
    }
    maxY
    {
        type            inletOutlet;
        phi             phi.gas;
        inletValue      uniform 1;
        value           nonuniform List<scalar> 
20
(
0.887451065193
0.882479354835
0.885072848926
0.891008328551
0.901184173277
0.91384904309
0.927202722323
0.940019417646
0.952163344597
0.962641712093
0.963052211196
0.963104056682
0.963104056682
0.963123260356
0.963052211196
0.962945703418
0.962090408863
0.961453941416
0.95129298769
0.576286600155
)
;
    }
    maxX
    {
        type            zeroGradient;
    }
    water_to_heater
    {
        type            zeroGradient;
    }
    procBoundary3to0
    {
        type            processor;
        value           nonuniform List<scalar> 
20
(
0.863927493997
0.862288766118
0.862299898746
0.864417960962
0.870220570427
0.878784278407
0.887951000122
0.895991562608
0.902195773492
0.906812656275
0.910147056876
0.912226729146
0.911587169881
0.906406809703
0.893967872031
0.873743344721
0.850400844176
0.832985679059
0.832906776001
0.846422253453
)
;
    }
    procBoundary3to1
    {
        type            processor;
        value           uniform 0.948766533059;
    }
    procBoundary3to2
    {
        type            processor;
        value           nonuniform List<scalar> 
39
(
0.948704112804
0.948761384686
0.948704112804
0.941865940762
0.902051690077
0.822412176576
0.731855304371
0.647357130355
0.545388708313
0.40681989248
0.470060428546
0.345084716211
0.470060428546
0.473181005005
0.483439953493
0.578354575764
0.714625346034
0.849292841806
0.84302965307
0.814472987613
0.828981410844
0.828949963625
0.828949963625
0.826054029208
0.811069394713
0.817990651308
0.818050172435
0.794347754333
0.712662654679
0.64056791334
0.65748705381
0.675616158893
0.70978940978
0.741072330544
0.714525671136
0.505688298706
0.144318832318
0.00825531838456
0.0330286193149
)
;
    }
}


// ************************************************************************* //
