/*--------------------------------*- C++ -*----------------------------------*\
| =========                 |                                                 |
| \\      /  F ield         | OpenFOAM: The Open Source CFD Toolbox           |
|  \\    /   O peration     | Version:  2312                                  |
|   \\  /    A nd           | Website:  www.openfoam.com                      |
|    \\/     M anipulation  |                                                 |
\*---------------------------------------------------------------------------*/
FoamFile
{
    version     2.0;
    format      ascii;
    arch        "LSB;label=32;scalar=64";
    class       volScalarField;
    location    "0.39/water";
    object      alpha.gas;
}
// * * * * * * * * * * * * * * * * * * * * * * * * * * * * * * * * * * * * * //

dimensions      [0 0 0 0 0 0 0];

internalField   nonuniform List<scalar> 
6000
(
0.171495032444
0.102404610242
0.0285893904544
0.00708042233299
0.00133471564367
0.000210648985471
2.732445438e-05
2.04671775297e-06
3.92863725251e-08
3.05623726336e-10
1.36625795462e-12
5.23464547594e-15
1e-15
1e-15
1e-15
1e-15
1e-15
1e-15
1e-15
1e-15
0.609264511168
0.259126603992
0.106766079074
0.0360319461311
0.0113665836955
0.00305883778795
0.000697234241701
0.000123302994099
1.21025133298e-05
2.41138066511e-07
6.51083351689e-10
1.02914166296e-12
2.10427202419e-15
1e-15
1e-15
1e-15
1e-15
1e-15
1e-15
1e-15
0.613294019074
0.34539148486
0.169998770046
0.0721545052448
0.0276602076481
0.00924003770972
0.00259388471564
0.000581745735258
8.5532344009e-05
4.40954142189e-06
1.58997859554e-08
2.00204207053e-11
2.17932830846e-14
1e-15
1e-15
1e-15
1e-15
1e-15
1e-15
1e-15
0.613295062351
0.424112237533
0.248562296854
0.126854907989
0.0568604577249
0.0218268214588
0.00696645597681
0.0017876801982
0.000328691826208
3.01464775801e-05
4.12397397532e-07
4.38886322953e-10
3.19334897627e-13
1.15765564091e-15
1e-15
1e-15
1e-15
1e-15
1e-15
1e-15
0.600291299442
0.472032288504
0.32885972637
0.201193082105
0.106946827424
0.0477446062876
0.0172774216162
0.00489435273322
0.0010184551876
0.000125341706646
4.62985532565e-06
7.2818330313e-09
4.59398814287e-12
3.38463133361e-15
1e-15
1e-15
1e-15
1e-15
1e-15
1e-15
0.576318396938
0.488734644055
0.388411328592
0.278604856506
0.17585586192
0.0939358912793
0.0404101814146
0.0132025943517
0.0030686338011
0.000444525255415
2.72561709655e-05
1.74782738667e-07
9.68794007689e-11
3.927476e-14
1.00825190958e-15
1e-15
1e-15
1e-15
1e-15
1e-15
0.554123861646
0.485719731966
0.418944084535
0.338433132096
0.246967491638
0.156186850848
0.0813801867769
0.0324610791235
0.00900802340806
0.00153225503
0.000124217646329
2.32700092967e-06
1.36875087905e-09
4.15375294614e-13
1.09785259365e-15
1.00028837779e-15
1e-15
1e-15
1e-15
1e-15
0.541296499032
0.477512342902
0.428361477654
0.37387611497
0.302340583659
0.218020660586
0.134173313496
0.0658653551293
0.023069370571
0.00492540193379
0.000512235025671
1.69465324458e-05
2.56647794614e-08
4.62323934032e-12
1.63915741274e-15
1.00201326658e-15
1.00117354462e-15
1.00052179495e-15
1e-15
1e-15
0.526342468812
0.468251380726
0.437252878639
0.399430807056
0.342870260121
0.268617970651
0.186757712423
0.109533126254
0.0486205202555
0.0136580015698
0.00191073321085
9.59103090098e-05
7.48284684248e-07
3.45408219114e-11
3.72240366534e-15
1.00208276019e-15
1.00113885246e-15
1.00063731261e-15
1.00002419415e-15
1e-15
0.512802932444
0.468135474439
0.45141080822
0.42411963559
0.375400975512
0.308325982281
0.233237411659
0.156736504863
0.0854994452022
0.0317255038784
0.00621694593931
0.000479513768509
9.469168773e-06
3.62825894204e-10
4.85434269078e-14
1.00720903364e-15
1e-15
1e-15
1e-15
1e-15
0.519881869962
0.484064957029
0.473059638954
0.449810510841
0.404728150254
0.343262269051
0.27519125532
0.204038577549
0.131089808007
0.0627503782588
0.0175052031234
0.00214339185706
8.40086909109e-05
4.46147684371e-07
4.34840108275e-12
1.47324248446e-15
1e-15
1e-15
1e-15
1e-15
0.570377882418
0.518696047655
0.495317407436
0.472492678022
0.433443869083
0.378634419783
0.316271070653
0.25097608293
0.181695657693
0.107860104069
0.0424129211257
0.00831440456034
0.000608753820647
1.12924017347e-05
1.9853231095e-09
1.00767090434e-13
1.00499238147e-15
1e-15
1e-15
1e-15
0.59513865343
0.535882359107
0.50598095437
0.485817467056
0.455255762594
0.40946261282
0.353656642243
0.293490751035
0.230593785443
0.161278269501
0.0854878791588
0.0261885767382
0.00338715337946
0.000132795597968
8.31731092356e-07
2.39393912055e-11
5.05485016896e-15
1e-15
1e-15
1e-15
0.59882879019
0.536853173368
0.513807836954
0.492933233923
0.463426274817
0.422194850352
0.374849041655
0.322967503797
0.269690861081
0.212171383388
0.141020612924
0.0628238097553
0.0134470051592
0.000982884534637
1.69329644938e-05
5.82493352032e-09
6.94524446447e-13
1.2007611918e-15
1e-15
1e-15
0.595313843271
0.534915642383
0.518829358521
0.496615680943
0.463876054703
0.421416664895
0.375613638645
0.334311036305
0.294019163139
0.252043109912
0.195462988624
0.114137299637
0.0369339779575
0.00455998231969
0.000148519211557
7.17504515138e-07
2.93553421115e-11
1.30258919191e-14
1.00981258446e-15
1.00595255207e-15
0.599224969246
0.528327730714
0.518091954718
0.495928820705
0.460875900713
0.415685411955
0.370527540783
0.332444970562
0.304533098014
0.278164035614
0.237514491737
0.16454309269
0.0719858038265
0.0136941909029
0.000750550911552
8.00338806286e-06
1.90245017678e-09
5.40394652321e-13
1.20775613891e-15
1.01404227899e-15
0.595313843271
0.517314276813
0.51013287739
0.487536816694
0.448974719665
0.400719190747
0.356492105761
0.325037735748
0.307434401137
0.292978858938
0.263958307829
0.201109950472
0.107040889706
0.0282374763679
0.00234320097537
4.05132284881e-05
6.57087541189e-08
9.34427295875e-12
4.4016624235e-15
1.02007077391e-15
0.598670876613
0.503090798175
0.490065781368
0.464028789138
0.423485835394
0.375168071
0.335155507744
0.314092625259
0.30781937459
0.301337958082
0.279280703706
0.223780542924
0.133641786846
0.0438991370875
0.00497548900546
0.000122668041344
4.16126873813e-07
7.34486472661e-11
2.61985777732e-14
1.03088572022e-15
0.59513865343
0.488953222834
0.467135145606
0.433172885704
0.391041963259
0.346768506512
0.316484534548
0.309282817699
0.3091163451
0.308048976185
0.290967150078
0.240979819774
0.154087863317
0.0583826257153
0.0083745885071
0.000277357879713
1.49567663607e-06
4.74954131145e-10
9.90616283795e-14
1.03189771424e-15
0.595592126923
0.478061850526
0.451371486012
0.413350654494
0.371433205223
0.333179216804
0.312289167505
0.310193901947
0.314523134782
0.317748278122
0.30591195782
0.261872867178
0.177493605293
0.0757113299659
0.0135025711787
0.000620103068431
5.21377499032e-06
1.07700988291e-09
6.25991424711e-14
1.02103290852e-15
0.593353442417
0.468847246602
0.444567576335
0.410965209011
0.370798746482
0.334318719974
0.316429709504
0.318851031249
0.328154662147
0.335056259974
0.328398968901
0.293371880464
0.216020365699
0.107083941756
0.0248866688464
0.001731545151
2.50850123041e-05
1.105862586e-08
7.62346684226e-14
1.03781642385e-15
0.574402268191
0.462058804222
0.44553693357
0.418088424306
0.381147855664
0.347623211998
0.334153834903
0.339384749624
0.348714940968
0.352340271243
0.347646753008
0.330609585896
0.277445592766
0.169599982925
0.0545621870647
0.00605385969861
0.000160193579467
6.00339199999e-07
7.26121817088e-12
1.56408939192e-15
0.552770774895
0.469838714412
0.465107094222
0.449824769386
0.416056344009
0.381286887404
0.36584740271
0.364701461657
0.363592333599
0.3548154028
0.348356522172
0.347382364706
0.335068196117
0.256340762079
0.118420947073
0.0216034192181
0.00105409663427
1.04069131914e-05
2.64215449721e-09
3.80933782524e-14
0.551526172569
0.511498167506
0.521556392485
0.512286146455
0.473409211769
0.427751079875
0.39984418228
0.383751001534
0.365948973416
0.350004925838
0.342778699138
0.346041215822
0.345890130886
0.322251459699
0.208053059623
0.06175521222
0.00549793426296
0.000112575393448
2.59924536559e-07
1.3896466551e-12
0.577481839796
0.576958865524
0.589556711783
0.578187969394
0.532999422067
0.47421118122
0.429070409972
0.396125085448
0.363986186108
0.335967155424
0.325501717042
0.335773383847
0.345313201636
0.344861853159
0.277118266777
0.124111723935
0.0196290855129
0.000785767658257
5.99415489138e-06
8.38444841124e-11
0.627651255538
0.619973218477
0.626580202062
0.617737382919
0.57854037184
0.514310943082
0.453897143057
0.404423486589
0.3583150005
0.31639653701
0.303183125077
0.316285462762
0.338164916245
0.344558295126
0.307501102704
0.181683645731
0.0463893715374
0.00331131957716
4.9223448951e-05
1.90713160055e-08
0.65132149154
0.630940949352
0.632611999356
0.631072795257
0.603330030371
0.541860979179
0.472033412501
0.408205523853
0.349671197892
0.30151121283
0.297966316045
0.299499580027
0.320105578968
0.336688667182
0.314332405148
0.219430141179
0.0790215153452
0.00905488557016
0.000225037750941
7.32429718827e-07
0.655072412447
0.632932748036
0.632866545498
0.632599374082
0.610657689158
0.553176773682
0.479349434304
0.407160181521
0.338461307533
0.298013689221
0.298038496318
0.297794820637
0.300777434405
0.319453553215
0.312153365624
0.245370421532
0.111189471677
0.0182613166688
0.00069718225182
4.71496717275e-06
0.65142491867
0.632892369603
0.632599374082
0.632599701533
0.612206657758
0.555037267699
0.479091618436
0.399830751423
0.323680321745
0.298038496318
0.297590555468
0.298038496318
0.297640055672
0.300096849703
0.310464938011
0.267948177157
0.143528392234
0.031144650859
0.00172793972959
1.86284578294e-05
0.655848711554
0.629855479146
0.632599701533
0.632297230634
0.611168409447
0.552064941993
0.472051553978
0.384496483543
0.308534459177
0.297754391392
0.298038496318
0.29712788955
0.298038496318
0.297555369524
0.313600155137
0.293742970056
0.180194449823
0.0494546396611
0.00388113116284
6.18899273637e-05
0.652187059058
0.623342390065
0.632297230634
0.63120035719
0.603547823108
0.5391659664
0.453593950627
0.3625181361
0.299305393586
0.298038496318
0.29716239956
0.298038496318
0.296782720521
0.298038496318
0.324224005484
0.322551898679
0.221413008792
0.0757520479046
0.00834895675364
0.000193276461102
0.656445754142
0.61322419223
0.627351985321
0.621336303072
0.585661958028
0.515425705639
0.425961584279
0.336468314731
0.298038496318
0.297480628557
0.298038496318
0.296601813028
0.298038496318
0.296682976261
0.336503338108
0.348430386967
0.260682526166
0.10931867103
0.0165067361546
0.000546210100836
0.652187059058
0.599760085811
0.61164873476
0.60033253138
0.558140955004
0.483508777075
0.393444454722
0.311808755371
0.297755831666
0.298038496318
0.296729349274
0.298038496318
0.296130028554
0.298038496318
0.351120079582
0.360599244285
0.291289622191
0.143398385466
0.0283600465482
0.00132461064826
0.656365106648
0.58284521442
0.591293668498
0.572611158753
0.523003233416
0.445106259715
0.358213600289
0.298663254864
0.298038496318
0.29701656847
0.298038496318
0.296133652505
0.298038496318
0.302416130605
0.360542574962
0.360316104519
0.308890435919
0.170856683147
0.0423291658765
0.00273739727973
0.651835295717
0.564394867964
0.568028619687
0.539513536942
0.481084470149
0.40194643215
0.322181052659
0.298038496318
0.297264864169
0.298038496318
0.296285411912
0.298038496318
0.295955857685
0.327752776608
0.360316104519
0.360567745458
0.317067490873
0.191300563128
0.0576505522397
0.00505098837445
0.654887011036
0.54524970904
0.538862180452
0.499599550019
0.434764580829
0.359425802979
0.299437999475
0.297571420341
0.298038496318
0.296453410059
0.298038496318
0.295954737845
0.298038496318
0.348469319022
0.360652685351
0.360338736893
0.322786181366
0.212104846363
0.0764300463068
0.00877454741823
0.651376132551
0.522949764367
0.501716962162
0.455211528207
0.390806520884
0.325298861176
0.297795846215
0.298038496318
0.296581721499
0.298038496318
0.295954737845
0.298038496318
0.307791611544
0.360022127544
0.360338736893
0.360393219294
0.333795899832
0.242462040391
0.102670882422
0.0148364810322
0.652419961997
0.495052338525
0.45895866148
0.412045395558
0.356624698969
0.305661739707
0.298038496318
0.29673465749
0.298038496318
0.295987640321
0.298038496318
0.296044130561
0.32860848511
0.35782501616
0.358684436741
0.36036181043
0.355543125808
0.284352343347
0.139495465854
0.0252415418025
0.650083012792
0.465069376421
0.430950580468
0.390293650835
0.343600734765
0.302125556633
0.297278834045
0.298038496318
0.296077311441
0.298038496318
0.296145480686
0.298562347297
0.327677227853
0.340841467686
0.347419036206
0.361293172792
0.375311840502
0.332166290474
0.192222366084
0.044320930327
0.616084989333
0.442008278427
0.427975133946
0.392683347411
0.347066493923
0.308217670576
0.298038496318
0.301799561754
0.311948765955
0.311987466458
0.300068500331
0.298084689087
0.302941216386
0.31084974623
0.330337066176
0.363804093935
0.378937296377
0.372312633538
0.252351223062
0.076932934427
0.566374442262
0.442257454042
0.443291446552
0.421025271782
0.377842023206
0.339706708136
0.329624764973
0.338710205955
0.340727747798
0.319041284345
0.291773381562
0.27720044081
0.275737214289
0.286030325551
0.315930830154
0.363378728924
0.378989600029
0.379037754017
0.299838439258
0.12390816205
0.550326872472
0.473474532787
0.496331598706
0.497376968418
0.459375450626
0.410347176534
0.387599309473
0.376945021917
0.35348048806
0.315286466478
0.276459402975
0.258904403803
0.259814791458
0.270508549293
0.301753313717
0.356888223226
0.379035709459
0.379089919469
0.332952129946
0.17792917826
0.563168170053
0.534799201492
0.570112243059
0.588288796217
0.562783284814
0.508753984533
0.459236833798
0.417712563438
0.370965187566
0.318939149683
0.273679111725
0.250019549996
0.250243079366
0.259220688771
0.284363291926
0.339878213267
0.37751940992
0.37915003263
0.355522318168
0.22991555502
0.596028997692
0.590274724938
0.620392519418
0.638506705616
0.630285411989
0.596113685433
0.539109943295
0.475292774517
0.408972522588
0.338498497612
0.27766418
0.245219968598
0.243449097458
0.250676618371
0.26772025035
0.315826224677
0.370908704095
0.379210142969
0.37104703317
0.274952958411
0.633333099656
0.616864096493
0.639862431845
0.653834013194
0.653905305128
0.641060717084
0.600548653728
0.534278380342
0.456093606809
0.369111398809
0.288753835253
0.243078157895
0.238068922745
0.24518913578
0.258167301451
0.293720114424
0.355008722893
0.379270250486
0.382633092787
0.312531794682
0.636862848139
0.621563607813
0.645098495378
0.65749977263
0.658407251279
0.654945155205
0.628850493582
0.569260629086
0.486692345828
0.390218591786
0.298015205702
0.242328141723
0.238011192023
0.241407771307
0.254823570804
0.279335572306
0.33210610621
0.375708363615
0.392898923468
0.343541929734
0.635181661593
0.621734222975
0.645204006024
0.658222447281
0.658602398329
0.658124604751
0.637324846978
0.58156225868
0.497128442574
0.395889964142
0.29927429113
0.241315141524
0.237899347935
0.239617343026
0.254580634414
0.272198805512
0.309543818824
0.365176708452
0.40115389915
0.368449397459
0.636942779136
0.621855125604
0.64348121971
0.658040178188
0.658459307217
0.65848747049
0.638778590668
0.583132854129
0.497231837524
0.393725146718
0.294900107178
0.239518498705
0.238011192023
0.23963716046
0.256788879595
0.269442217733
0.290820886468
0.348134236237
0.401177162354
0.386434552605
0.635181661593
0.621750831864
0.640609517233
0.657857237988
0.658661027783
0.658459307217
0.637766448508
0.579691167223
0.489678111698
0.381329254355
0.281997773309
0.238117303627
0.237855608114
0.241754802821
0.263164514953
0.26792420518
0.2756675426
0.327468318697
0.400153807063
0.397920672868
0.636066107394
0.622090929717
0.635856009579
0.657125215729
0.658459307217
0.658236010306
0.631543513195
0.566142388157
0.469608869543
0.358406813469
0.265132089905
0.237966498857
0.238011192023
0.247369399049
0.271245016501
0.265993834574
0.262384852336
0.308786743341
0.396698729829
0.404514172789
0.635181661593
0.621279236114
0.629073314629
0.654260776088
0.658556564423
0.654211304645
0.616661606418
0.54255890539
0.441357515716
0.331657287937
0.250643037815
0.238011192023
0.237852758641
0.260858677252
0.278974839242
0.261083220178
0.247791583919
0.293749588453
0.391405084263
0.408769784039
0.635165571352
0.622322920787
0.622239275709
0.647962241171
0.656917105317
0.641835192882
0.592437459895
0.512334450037
0.409381400181
0.304627562655
0.241572588794
0.237893803854
0.243182693686
0.283892159223
0.285055898
0.25059491685
0.229793507861
0.279554349048
0.385118792102
0.418001889481
0.629926599003
0.620657665922
0.622587007337
0.636356611784
0.646244400444
0.61700290118
0.557727932278
0.474758899026
0.373024362071
0.277778812557
0.238200447227
0.238011192023
0.264571780955
0.303467375395
0.286036419371
0.237925696633
0.228261719541
0.266503768684
0.382045282574
0.421748680682
0.622633622851
0.622587007337
0.621304694231
0.625294432274
0.624099614161
0.578932431328
0.511383835292
0.427516312993
0.331621428452
0.25431902835
0.238120927996
0.247535934905
0.295932098019
0.30566200084
0.281005131454
0.230453126589
0.228405532139
0.255008527945
0.378795024593
0.42216458128
0.622819331383
0.620466977525
0.622819331383
0.623755954464
0.6018698528
0.53793748389
0.460502916281
0.375696353138
0.291551665508
0.23972778153
0.238131950373
0.267622965218
0.306814551529
0.305695174952
0.269682609759
0.228405532139
0.228010383256
0.246710678548
0.376261748826
0.421748680682
0.620466977525
0.622819331383
0.620585422555
0.63099157621
0.593628128251
0.515131350792
0.426283242784
0.338177764121
0.264706480071
0.232511295678
0.238235225866
0.276346364067
0.306919447276
0.300812092653
0.255710969247
0.228324365323
0.228405532139
0.242948776364
0.374544488609
0.422171759334
0.635981256603
0.642179391299
0.637185848777
0.644209726648
0.594926277158
0.513814443527
0.420014751903
0.327231988343
0.252810167039
0.226764188194
0.236167731153
0.274219576161
0.302557886371
0.288819815593
0.244205505809
0.228405532139
0.227759225317
0.243600104777
0.372323192795
0.421748680682
0.724640049575
0.701809560461
0.672722910063
0.652753197757
0.602283727256
0.520790669978
0.424061108473
0.327737549407
0.247908102335
0.217912831576
0.22781792692
0.262914228075
0.286389778144
0.272255568279
0.237156553083
0.228192525835
0.228405532139
0.248363635555
0.366791284176
0.422038535955
0.779572102696
0.722285601528
0.687063949189
0.656893113673
0.608087812784
0.527744400505
0.428317697787
0.327459930148
0.242141000249
0.208438066
0.212051869472
0.238051427061
0.260073692283
0.253229158996
0.233826245904
0.228405532139
0.22777553508
0.260052723379
0.356680851476
0.419757093121
0.780389978905
0.720141191629
0.685108473108
0.652166473016
0.600287333004
0.51854293553
0.417373202766
0.313077314719
0.227622889996
0.20789049311
0.207683498129
0.209669715579
0.224487601052
0.232485445503
0.230568460331
0.229053461057
0.233481181393
0.268833230353
0.34043321239
0.409967382447
0.773063720096
0.71040268815
0.673585486673
0.631944673574
0.568765828873
0.479062887016
0.373374896407
0.270543139728
0.210318185572
0.207678551913
0.20789049311
0.207446646193
0.20789049311
0.209811927068
0.224090577318
0.235327605041
0.244390083336
0.266493100174
0.320966997296
0.396211685542
0.752178449322
0.698432977618
0.652541218266
0.59769235654
0.518286573733
0.415353333823
0.305068406853
0.222531401429
0.207758975457
0.20789049311
0.20720354096
0.20789049311
0.207169878464
0.20789049311
0.215134070122
0.234964242007
0.243746622734
0.256714816496
0.303341384838
0.384221794966
0.735654392038
0.688295186885
0.626815692746
0.555444709182
0.460141097201
0.346667930974
0.244024075038
0.20795515901
0.20789049311
0.207271458298
0.20789049311
0.206854650946
0.20789049311
0.207043846006
0.20789049311
0.228265602528
0.236355626561
0.243676029231
0.290738492813
0.375965735372
0.732844618934
0.676044297169
0.597880888863
0.508044594448
0.398861270572
0.2840227001
0.213644416123
0.20789049311
0.207348057842
0.20789049311
0.206779059897
0.20789049311
0.206714968292
0.20789049311
0.207182833582
0.215814859463
0.224425194798
0.233139151093
0.282758799471
0.369023983261
0.741004941055
0.65408867972
0.557400946807
0.450229145856
0.332877357353
0.234822608455
0.20789049311
0.207532468136
0.20789049311
0.206768764374
0.20789049311
0.206539869103
0.20789049311
0.20674340565
0.20789049311
0.207481319683
0.212958180287
0.225289992312
0.274529114153
0.359914878036
0.759841540647
0.608103569051
0.492800846228
0.373858933571
0.264139506509
0.210643125643
0.207667437191
0.20789049311
0.206751344925
0.20789049311
0.20636577414
0.20789049311
0.206508226017
0.20789049311
0.206937063424
0.20789049311
0.207620708492
0.217496469571
0.261190076426
0.345961924364
0.763890516646
0.523026605461
0.396921760019
0.281384132898
0.216005055656
0.207728773911
0.20789049311
0.206698665704
0.20789049311
0.206108190998
0.20789049311
0.206274256123
0.20789049311
0.206724613476
0.20789049311
0.207233009885
0.207758466015
0.210306370043
0.241444507104
0.3231613158
0.763266677559
0.417476155042
0.285315050692
0.21418930852
0.207716844843
0.20789049311
0.206518832679
0.20789049311
0.205713505196
0.20789049311
0.205960047294
0.20789049311
0.206534916087
0.20789049311
0.207067259884
0.207758466015
0.207447807954
0.207620720363
0.220029721512
0.288596492489
0.709754210107
0.350674677125
0.234542540504
0.207541054818
0.20789049311
0.20612927006
0.20789049311
0.205273588937
0.20789049311
0.20553173749
0.20789049311
0.206329419508
0.20789049311
0.206973690494
0.20789049311
0.210518834992
0.210800883018
0.207344502525
0.207774774829
0.246820469274
0.603628909924
0.34721896524
0.247282629742
0.213866554611
0.206854086771
0.20789049311
0.205273588937
0.20789049311
0.20531613504
0.20789049311
0.206256257328
0.20789049311
0.207008165003
0.20789049311
0.211062297562
0.214109035431
0.211575230556
0.207348244371
0.207133671529
0.2137777072
0.557922776392
0.417871099201
0.354778485133
0.314156345712
0.286287282176
0.269556993099
0.259543575166
0.246919558477
0.234198237856
0.221790687191
0.214121977568
0.209026539425
0.20789049311
0.210650293314
0.214109035431
0.21406281229
0.212532392994
0.207936183224
0.207157414221
0.207123095001
0.611723464593
0.612431331341
0.594832568669
0.565105630398
0.531377976438
0.504166910655
0.47506743082
0.43033272133
0.367734965605
0.305562341844
0.258510485915
0.229696755384
0.215501266489
0.213253401269
0.213323855919
0.214051776484
0.21296841633
0.2097811581
0.207123095001
0.207143426481
0.741591554
0.770728435622
0.759616301459
0.748597902906
0.736664958281
0.72341367882
0.701871647064
0.657743449999
0.579600698007
0.474232292125
0.369820583061
0.288245785662
0.23661480032
0.214338195003
0.209918539773
0.21148864644
0.212313760878
0.211093603429
0.208038435074
0.207120091195
0.827480042941
0.810987304717
0.797547411558
0.795954024603
0.795412614407
0.792470607924
0.783334415472
0.757833102415
0.705106214392
0.61824818677
0.505664114527
0.388201494958
0.287638475101
0.224967782726
0.208929183437
0.208563326823
0.210048643349
0.210740535059
0.209759920317
0.207927287618
0.831986789184
0.814079985608
0.804413510574
0.804309811717
0.80431326673
0.80372621388
0.797200748897
0.776524837992
0.734606341169
0.667707190814
0.575999694235
0.465487767781
0.349255216216
0.251509662136
0.210465448424
0.207679682236
0.207974375489
0.209079617191
0.209570488173
0.209106967724
0.833022849049
0.813179202412
0.804436425697
0.804330656828
0.804216443007
0.804210152847
0.797806136148
0.777074108002
0.736043454227
0.672831526295
0.588827645671
0.487062512866
0.374262831442
0.268286252465
0.212202432308
0.207684741779
0.207635509725
0.207681625397
0.208261857842
0.208668678235
0.831986789184
0.805744314815
0.797167905525
0.79756166399
0.799746611703
0.799256881358
0.791715843849
0.769579292323
0.728237582742
0.666525120029
0.584676845757
0.484710758245
0.372839035045
0.267109668647
0.211406695828
0.207609394785
0.207681625397
0.20756021939
0.207681625397
0.207646524039
0.832548291044
0.789494302028
0.774490536369
0.774305373856
0.779442834687
0.778694843989
0.7684519721
0.742146603532
0.698310000491
0.637578597591
0.558424258165
0.460590998486
0.350215785952
0.250038161852
0.208305265697
0.207684741779
0.207463999857
0.207681625397
0.20746884804
0.207681625397
0.831986789184
0.765670400414
0.733373338736
0.729309837935
0.736878542526
0.735548682212
0.720706668672
0.687747378102
0.638988609981
0.575705459797
0.49534494062
0.397407175934
0.29259179208
0.219010002386
0.207686188158
0.207440696076
0.207684741779
0.207302385315
0.207681625397
0.207386615744
0.824528852386
0.722691460913
0.671163857318
0.661945144418
0.670066708424
0.666639439459
0.645451279406
0.604981001578
0.549504702657
0.480078006401
0.395460231474
0.301344468359
0.226639798502
0.207689815733
0.207490045078
0.207686188158
0.207217265932
0.207684741779
0.207739822197
0.21925064686
0.816927599139
0.640187693937
0.590473790086
0.575037041963
0.578292037454
0.570127295404
0.541420488198
0.493179162784
0.430630247936
0.356610109277
0.278423261191
0.221479452183
0.207696954383
0.207511722682
0.207689815733
0.207217265932
0.207686188158
0.210421927992
0.22667079947
0.228743883852
0.791697671509
0.589506972089
0.510359447372
0.472714988208
0.462448353347
0.445724606865
0.409329620329
0.355826905033
0.294475394476
0.239944959693
0.21125771738
0.207702424757
0.207411572143
0.207696954383
0.207217265932
0.207689815733
0.216187169163
0.23296414101
0.233854037477
0.229341162082
0.739482907728
0.575303354261
0.454197608919
0.377264482636
0.339544185658
0.309288683177
0.269107024584
0.232494970199
0.211601665648
0.207628237933
0.207710552913
0.207175177162
0.207702424757
0.207039817542
0.209418384015
0.225826831699
0.236486963862
0.236612246388
0.233988785615
0.223817472751
0.66111868613
0.550500657578
0.447167320476
0.344559560792
0.266425885127
0.219308761736
0.20792884635
0.207734342713
0.207105056774
0.207723124968
0.206618046649
0.207710552913
0.206604710066
0.216408752624
0.239615156638
0.2401315811
0.237864708705
0.234049566537
0.225955963737
0.213477704467
0.574184976072
0.517350613848
0.448502431487
0.347509494305
0.259966610872
0.207695977515
0.207748339075
0.206656965476
0.207734342713
0.20598908903
0.207723124968
0.206114867095
0.228958735519
0.25979502719
0.253778214955
0.239736667903
0.230256951878
0.222204994998
0.213143731575
0.207247679964
0.523905606832
0.517778271248
0.470354940354
0.372579018218
0.276612238289
0.217629872435
0.20699979356
0.207748339075
0.206187311708
0.20800703314
0.229055187905
0.26036439488
0.287796657491
0.275750793724
0.247839892816
0.226997802115
0.21575834951
0.210171860152
0.207281208143
0.207184394826
0.546980437533
0.57055394266
0.545285034533
0.466552099753
0.370842781729
0.300953164168
0.269095713873
0.261481926926
0.269508196686
0.29860582805
0.331862287125
0.345444072882
0.319112813249
0.272755413296
0.234227550331
0.214090944402
0.20809546493
0.207239136949
0.207202875353
0.207227289007
0.645875603305
0.682875606367
0.66656503657
0.625234501617
0.566677670142
0.512280865003
0.478281199697
0.466583202499
0.458657187337
0.457534501493
0.444390827581
0.401909743323
0.337466521417
0.272983783677
0.227021198338
0.208703908141
0.207255467065
0.207211403924
0.207239136949
0.207131660893
0.768200825573
0.773485216773
0.753381174449
0.739623270174
0.72550136742
0.705012623843
0.682845492258
0.666021700219
0.627979375109
0.574067777321
0.511463323863
0.440623189577
0.360857672473
0.281602652188
0.225933848383
0.207317223895
0.20722006585
0.207255467065
0.207157715067
0.220224964472
0.826980328509
0.797908403594
0.77995082898
0.779303821426
0.781503281924
0.777604215182
0.756831661626
0.733563764545
0.688981790279
0.620597450117
0.542529441258
0.463253514035
0.378840413535
0.291151458532
0.225216394569
0.207260879559
0.207270497428
0.207119799147
0.212888809865
0.251069390437
0.826313732631
0.799145012756
0.786447131624
0.786675619178
0.786932149734
0.786553102948
0.773056358894
0.744288068022
0.698017430183
0.629272920155
0.549692347508
0.467859674172
0.381519561509
0.291327466586
0.221552190608
0.207287909316
0.207112187849
0.207270497428
0.230632537975
0.281131803188
0.827717675103
0.797481373611
0.786868498075
0.786843210934
0.786715357968
0.786995865461
0.777730047869
0.745016454485
0.694357207992
0.62360439961
0.543971596484
0.460874518997
0.372032401297
0.279505082502
0.212757218508
0.207193283427
0.207287909316
0.20710436087
0.251642474849
0.301803348233
0.826313732631
0.787658116253
0.781998789357
0.78627952383
0.786961103664
0.786553102948
0.778830986781
0.74076361244
0.67520691307
0.595858832451
0.514475472416
0.429119727837
0.336184461588
0.24628982038
0.207311461381
0.207305326282
0.207022113209
0.208456925354
0.268902404873
0.311534538734
0.827251336378
0.763263943606
0.764526055003
0.778866624916
0.786553102948
0.786690289195
0.777027366557
0.728138517726
0.643020061798
0.548749974978
0.460189286506
0.370005149911
0.275482113897
0.212361339863
0.207321520313
0.207038130438
0.207305326282
0.213681487154
0.280284451443
0.313967741378
0.826313732631
0.72639216597
0.734713581225
0.759601404616
0.781406152349
0.78278120914
0.767282742036
0.708503314854
0.609798900205
0.501005603677
0.399678401075
0.300407902443
0.220514193742
0.207339451383
0.206988409416
0.207321520313
0.206788422967
0.219652275667
0.287638833824
0.314176056457
0.826328493555
0.69240367797
0.702417048531
0.729476588967
0.759304612558
0.761947236573
0.741930683597
0.678925190971
0.575364382594
0.458498301098
0.345118601054
0.241756481823
0.207358167269
0.207023569019
0.207339451383
0.206596420686
0.207321520313
0.224625423874
0.293705258017
0.313799975882
0.82622356628
0.655759454196
0.673078344831
0.691640592774
0.714393267211
0.714495584099
0.691848253886
0.629436673869
0.529661096688
0.412780113641
0.294504917826
0.21168087359
0.207139812716
0.207358167269
0.206483135358
0.207339451383
0.206398983163
0.233153230209
0.299924115182
0.311432707068
0.816961442324
0.622247142986
0.646143035488
0.648277570183
0.649608254905
0.637687048276
0.609308585286
0.55134624406
0.462779380163
0.353872063826
0.243594595467
0.207273105024
0.207374961
0.206490753828
0.207358167269
0.206049842064
0.207339451383