/*--------------------------------*- C++ -*----------------------------------*\
| =========                 |                                                 |
| \\      /  F ield         | OpenFOAM: The Open Source CFD Toolbox           |
|  \\    /   O peration     | Version:  2312                                  |
|   \\  /    A nd           | Website:  www.openfoam.com                      |
|    \\/     M anipulation  |                                                 |
\*---------------------------------------------------------------------------*/
FoamFile
{
    version     2.0;
    format      ascii;
    arch        "LSB;label=32;scalar=64";
    class       volScalarField;
    location    "0.39/water";
    object      nut.gas;
}
// * * * * * * * * * * * * * * * * * * * * * * * * * * * * * * * * * * * * * //

dimensions      [0 2 -1 0 0 0 0];

internalField   nonuniform List<scalar> 
6000
(
3.19692522347e-07
1.22779503561e-07
5.06501267243e-08
3.43685503936e-08
1.31043042963e-07
9.64831349546e-07
4.06247174966e-06
9.12112810469e-06
1.37452555327e-05
1.6685744994e-05
1.82302602389e-05
1.89506781302e-05
1.92527077451e-05
1.9361397133e-05
1.93882904812e-05
1.93845873416e-05
1.93721590992e-05
1.93594908324e-05
1.9349340663e-05
1.9342234595e-05
1.64099929903e-06
9.9107959809e-07
4.77515141865e-07
2.47569767687e-07
1.0256545046e-07
7.67234797518e-08
1.66626531692e-07
9.75355433181e-07
4.18528948591e-06
9.51137746243e-06
1.41335973802e-05
1.6958808616e-05
1.83977207683e-05
1.90457931049e-05
1.93022814931e-05
1.9383079076e-05
1.93929618188e-05
1.93789433055e-05
1.93604944316e-05
1.93448198091e-05
2.27901329449e-06
1.65057362873e-06
1.02109696624e-06
5.51148205357e-07
3.00563078557e-07
1.42100507062e-07
1.03044579878e-07
2.44136363933e-07
1.30197331005e-06
4.66419360732e-06
9.64713281552e-06
1.39946922298e-05
1.68019103525e-05
1.83217872185e-05
1.90443852399e-05
1.93438271483e-05
1.94423609713e-05
1.9455928911e-05
1.94396971005e-05
1.94177493235e-05
2.69490773386e-06
2.0539430222e-06
1.40084941028e-06
8.58265278829e-07
5.4827914971e-07
2.59776765543e-07
1.39526419387e-07
1.340974355e-07
4.93189079403e-07
2.28979371729e-06
6.27730534077e-06
1.09946206088e-05
1.47747005193e-05
1.71877747268e-05
1.85127325623e-05
1.91533482892e-05
1.94204377086e-05
1.95056766535e-05
1.9513024695e-05
1.94936613968e-05
2.98188253421e-06
2.34567400223e-06
1.6757649229e-06
1.11405364304e-06
6.67201058732e-07
4.40587321879e-07
1.91045161881e-07
1.24912294442e-07
2.3715671268e-07
1.16215503085e-06
4.04903818922e-06
8.45823283304e-06
1.27042979826e-05
1.58247693104e-05
1.77573573897e-05
1.88072269325e-05
1.93093894732e-05
1.95123923246e-05
1.95700004109e-05
1.95665810518e-05
3.12630292934e-06
2.53428880493e-06
1.8778665696e-06
1.31239524201e-06
8.54395185221e-07
4.87900223315e-07
2.99593220013e-07
1.28101569107e-07
1.43358841731e-07
6.00204160408e-07
2.59548650529e-06
6.4484458246e-06
1.0794976529e-05
1.43911163072e-05
1.68533026904e-05
1.83231679928e-05
1.91004310604e-05
1.94594378452e-05
1.95940515334e-05
1.96221407405e-05
3.15531157771e-06
2.6248723768e-06
2.01106487971e-06
1.46225980092e-06
1.00339201827e-06
6.26724874758e-07
3.28715138505e-07
1.73726047485e-07
9.6432620578e-08
3.04263890998e-07
1.62995259542e-06
4.87940710043e-06
9.11027926964e-06
1.29861615756e-05
1.58721500022e-05
1.77346266244e-05
1.88013270766e-05
1.93427667316e-05
1.95778151942e-05
1.96532617984e-05
3.13518789366e-06
2.65867572412e-06
2.09360186471e-06
1.56979698728e-06
1.11583211273e-06
7.36952747236e-07
4.28636575738e-07
2.13092510182e-07
9.29461389984e-08
1.39757502652e-07
9.52192788908e-07
3.62606794162e-06
7.62846908029e-06
1.16474066947e-05
1.48612846294e-05
1.70738768687e-05
1.84266750274e-05
1.91657732705e-05
1.95197216809e-05
1.96569442734e-05
3.14902574785e-06
2.70917042007e-06
2.16766088384e-06
1.65179953711e-06
1.19845760948e-06
8.22231489264e-07
5.16266902848e-07
2.66274402837e-07
1.28724400566e-07
7.15817166475e-08
4.48748389211e-07
2.53449096415e-06
6.2594511844e-06
1.03527009095e-05
1.38362909839e-05
1.63637852593e-05
1.79928142214e-05
1.89362506069e-05
1.9422346705e-05
1.96336793977e-05
3.23897580871e-06
2.81153350846e-06
2.25360932707e-06
1.71728017247e-06
1.25730739672e-06
8.87946083614e-07
5.90958337725e-07
3.39253042656e-07
1.41153334728e-07
6.56662192125e-08
1.51573034821e-07
1.45727594951e-06
4.81457562595e-06
8.98770198902e-06
1.27584731475e-05
1.56030385054e-05
1.75087634331e-05
1.86631767044e-05
1.92915581953e-05
1.95864165828e-05
3.4004764353e-06
2.93554482724e-06
2.31848240742e-06
1.74986645471e-06
1.29277984773e-06
9.39045259315e-07
6.560215842e-07
4.10187444686e-07
1.95785858085e-07
7.3700796387e-08
5.87819421211e-08
5.39736525124e-07
3.18541830087e-06
7.42823472858e-06
1.15700723573e-05
1.47813270576e-05
1.69818982984e-05
1.83558703403e-05
1.91339256562e-05
1.95186512532e-05
3.48462505942e-06
2.92329952581e-06
2.288768882e-06
1.74314910827e-06
1.31317864713e-06
9.80307076974e-07
7.13554612504e-07
4.79163527866e-07
2.59943240446e-07
9.28339401996e-08
4.8400557957e-08
1.25688363425e-07
1.55465006004e-06
5.58503637538e-06
1.01833364623e-05
1.38640976391e-05
1.64059030781e-05
1.80170722892e-05
1.89528941441e-05
1.94322222435e-05
3.48938095084e-06
2.90923997653e-06
2.27702130283e-06
1.74405926825e-06
1.33131190673e-06
1.01483181112e-06
7.63386508439e-07
5.4288812224e-07
3.25755128262e-07
1.30583042991e-07
4.1356037681e-08
4.87191957201e-08
4.33863788701e-07
3.52257177251e-06
8.51887707604e-06
1.27983047103e-05
1.57583997347e-05
1.76389990135e-05
1.87460071963e-05
1.93258764546e-05
3.49551014442e-06
2.91196492117e-06
2.2754346378e-06
1.74612675929e-06
1.34446540779e-06
1.04194672376e-06
8.0486397072e-07
5.98139814855e-07
3.8591624122e-07
1.69680915946e-07
5.0277335533e-08
3.38531315428e-08
9.85411555321e-08
1.61603928466e-06
6.59946001299e-06
1.15400842954e-05
1.50056573737e-05
1.72032570163e-05
1.85047008174e-05
1.9195418026e-05
3.49283029494e-06
2.90999692748e-06
2.27283749991e-06
1.74526149682e-06
1.35130827963e-06
1.06089290606e-06
8.37853218003e-07
6.44046449509e-07
4.3645056187e-07
2.03875322169e-07
5.85994593987e-08
2.83983373499e-08
5.32221537958e-08
4.54076549802e-07
4.54168916822e-06
1.00747940402e-05
1.41085961322e-05
1.6683312858e-05
1.82158574239e-05
1.90348214719e-05
3.47408788552e-06
2.90517186553e-06
2.27046813505e-06
1.74213790415e-06
1.35289640277e-06
1.07356931034e-06
8.64301276773e-07
6.819426637e-07
4.76781052492e-07
2.30164463665e-07
6.47714995565e-08
2.76500501623e-08
3.28034613867e-08
1.41150708491e-07
2.64457875164e-06
8.46378638176e-06
1.30288013638e-05
1.60463379848e-05
1.78629021662e-05
1.88369006815e-05
3.465025859e-06
2.90342607318e-06
2.26935314428e-06
1.73906817641e-06
1.35353537347e-06
1.08452588e-06
8.88107891468e-07
7.14727501093e-07
5.08135783645e-07
2.48903939218e-07
6.92888261437e-08
2.69360751331e-08
2.68851201123e-08
8.17810455981e-08
1.25296085568e-06
6.68981940234e-06
1.17089988252e-05
1.52529583868e-05
1.74256582337e-05
1.85929750557e-05
3.46056053145e-06
2.90777679306e-06
2.27208122299e-06
1.74146108031e-06
1.36026294348e-06
1.1000158824e-06
9.13490251572e-07
7.44577889086e-07
5.32162480132e-07
2.62779927844e-07
7.39830027338e-08
2.68024478641e-08
2.3910549286e-08
5.35383348296e-08
5.18251581681e-07
4.78729869161e-06
1.01145130416e-05
1.42641112169e-05
1.68803628092e-05
1.8292078991e-05
3.48890051117e-06
2.92413942929e-06
2.28222568482e-06
1.75369536869e-06
1.37789459163e-06
1.12411159935e-06
9.42580814127e-07
7.72473572308e-07
5.51628704325e-07
2.76701215428e-07
8.14814504516e-08
2.81810013664e-08
2.24659451755e-08
3.51637887711e-08
2.08636616792e-07
2.97417008731e-06
8.2417919226e-06
1.30356891295e-05
1.61974334456e-05
1.79197682981e-05
3.5241728891e-06
2.94433486494e-06
2.30249857276e-06
1.78136062236e-06
1.41125448082e-06
1.1583454704e-06
9.7462941604e-07
7.983846419e-07
5.69729538401e-07
2.95088916481e-07
9.55715507963e-08
3.13109920598e-08
2.22570439524e-08
2.55293128931e-08
8.98736505605e-08
1.56038011148e-06
6.18991104862e-06
1.15369627248e-05
1.53447268462e-05
1.74582211645e-05
3.52446588444e-06
2.95359360037e-06
2.34445012707e-06
1.84228275006e-06
1.46973609828e-06
1.2036508006e-06
1.00767190763e-06
8.19990627157e-07
5.86268401407e-07
3.22146297105e-07
1.17319362229e-07
3.60373743175e-08
2.27920295595e-08
2.40106547488e-08
5.08843544702e-08
6.85361128808e-07
4.19700093564e-06
9.78740027005e-06
1.43006021375e-05
1.6890178771e-05
3.54568125446e-06
3.02927706804e-06
2.46098537128e-06
1.95741394539e-06
1.55330013629e-06
1.25421071176e-06
1.03509896805e-06
8.31435357498e-07
6.02072537707e-07
3.57517687673e-07
1.45652295032e-07
4.23535898546e-08
2.35867225875e-08
2.42201973407e-08
3.91260739776e-08
2.21688923458e-07
2.50058113517e-06
7.872374882e-06
1.30641676594e-05
1.62034229156e-05
3.69631384818e-06
3.23035172429e-06
2.65388402137e-06
2.09739720848e-06
1.6345657801e-06
1.29391446909e-06
1.0485506908e-06
8.36972422953e-07
6.23231433832e-07
3.98495805617e-07
1.79442509879e-07
5.03779139914e-08
2.4184690887e-08
2.44164831292e-08
3.01369119863e-08
7.99542653046e-08
1.2176889637e-06
5.94411397753e-06
1.16543850935e-05
1.53913918096e-05
4.00583872373e-06
3.53106411679e-06
2.85908258049e-06
2.2047896293e-06
1.68507463271e-06
1.31749808378e-06
1.05613494897e-06
8.4607269172e-07
6.51910871891e-07
4.46038945072e-07
2.19564732104e-07
6.05966839082e-08
2.47122603639e-08
2.40358349282e-08
2.95481541565e-08
5.19109318293e-08
3.84210297339e-07
4.11941352419e-06
1.01066409647e-05
1.44528835647e-05
4.36223032779e-06
3.77872374123e-06
2.96774336556e-06
2.24586895784e-06
1.71145648057e-06
1.33487175315e-06
1.06553250776e-06
8.60703572579e-07
6.85860838495e-07
4.98635713781e-07
2.66363178264e-07
7.39410717238e-08
2.5520834398e-08
2.33240948545e-08
2.82062094771e-08
3.92451145644e-08
1.32524830569e-07
2.38312306937e-06
8.46618692925e-06
1.33899091272e-05
4.49252461401e-06
3.81722191375e-06
2.97873436306e-06
2.25614626242e-06
1.72395764362e-06
1.34690087416e-06
1.07558212308e-06
8.76655581168e-07
7.19325211332e-07
5.51353617139e-07
3.17034943965e-07
9.11301555675e-08
2.69706225307e-08
2.28147765799e-08
2.66578016e-08
3.46358582847e-08
8.78681547447e-08
9.79432062717e-07
6.74866611815e-06
1.22013765913e-05
4.51390399733e-06
3.82508775645e-06
2.99329057421e-06
2.27290325853e-06
1.73703789091e-06
1.35598379896e-06
1.08331647213e-06
8.90052841286e-07
7.47795816271e-07
5.97658758485e-07
3.66462984009e-07
1.12916166273e-07
2.95973925305e-08
2.27294714468e-08
2.55146971072e-08
3.09117457243e-08
5.00246198896e-08
3.44819964049e-07
4.96518645478e-06
1.08885557931e-05
4.52478954146e-06
3.83658460049e-06
3.00828019244e-06
2.28982581701e-06
1.75129242117e-06
1.36639263778e-06
1.09225597769e-06
9.02991055037e-07
7.72359686437e-07
6.34709476258e-07
4.06763768339e-07
1.3737938392e-07
3.39975646793e-08
2.30931194384e-08
2.50337931056e-08
2.84885593553e-08
3.89500304201e-08
1.61183326422e-07
3.22541264813e-06
9.45021213793e-06
4.53950257764e-06
3.84386136534e-06
3.0153929921e-06
2.2987566288e-06
1.75968875044e-06
1.37442531173e-06
1.10132520239e-06
9.16856373395e-07
7.95247477121e-07
6.64190753906e-07
4.37860706551e-07
1.59396711707e-07
3.94520267652e-08
2.390396326e-08
2.51048896725e-08
2.72725867133e-08
3.29082412631e-08
9.95389368173e-08
1.75090274153e-06
7.88041105003e-06
4.53969409976e-06
3.85220012668e-06
3.02292295664e-06
2.30164969636e-06
1.76118248802e-06
1.3783889046e-06
1.10953493603e-06
9.3194901233e-07
8.16922106345e-07
6.86906100062e-07
4.59008539476e-07
1.75552962888e-07
4.43195524848e-08
2.48988971731e-08
2.54338622784e-08
2.69017094374e-08
2.98759025787e-08
6.75641302263e-08
7.73432116966e-07
6.22642762616e-06
4.5457127303e-06
3.86131445073e-06
3.03077574656e-06
2.30059664516e-06
1.75825327431e-06
1.37911577698e-06
1.11672668825e-06
9.47439649845e-07
8.3618243054e-07
7.02215373443e-07
4.68820681152e-07
1.83118849245e-07
4.71559949709e-08
2.56431857278e-08
2.57718517096e-08
2.69612551875e-08
2.85102611556e-08
4.08404459755e-08
3.05551349367e-07
4.58139805418e-06
4.53406377971e-06
3.86614617564e-06
3.03574342585e-06
2.2984875765e-06
1.75413240624e-06
1.37780689187e-06
1.122518016e-06
9.61783262185e-07
8.51290535645e-07
7.09136856729e-07
4.66550834977e-07
1.81670952806e-07
4.75406440703e-08
2.59597186182e-08
2.6004115335e-08
2.70990103153e-08
2.78901423421e-08
3.41050129641e-08
1.41963116582e-07
3.02641372192e-06
4.52621133545e-06
3.8592269457e-06
3.03141233445e-06
2.29325755404e-06
1.74817501576e-06
1.37447541587e-06
1.1267769168e-06
9.73846996371e-07
8.60921380346e-07
7.06805856822e-07
4.52760418106e-07
1.73176505262e-07
4.61579368271e-08
2.59502575998e-08
2.61231771895e-08
2.71765604035e-08
2.75159769462e-08
3.07704207282e-08
8.76537329234e-08
1.72612300322e-06
4.51626401031e-06
3.84809623835e-06
3.01874859252e-06
2.28019588651e-06
1.73689859006e-06
1.3682484543e-06
1.12986435934e-06
9.82998109711e-07
8.64351343079e-07
6.94893203745e-07
4.2987784539e-07
1.61163797412e-07
4.41832788322e-08
2.58016194799e-08
2.61593953339e-08
2.71909523551e-08
2.72488404097e-08
2.87818309386e-08
6.34088691416e-08
8.69063381458e-07
4.52591197129e-06
3.83883173141e-06
3.00132795275e-06
2.26065433972e-06
1.72148218996e-06
1.36098893019e-06
1.133330007e-06
9.89473627386e-07
8.61770374534e-07
6.74041353105e-07
4.01993837041e-07
1.49383101776e-07
4.26811811947e-08
2.56967282611e-08
2.61842989729e-08
2.72094542983e-08
2.7114712903e-08
2.76595716504e-08
4.55462968086e-08
4.1319717126e-07
4.51367423648e-06
3.81322191217e-06
2.96957620488e-06
2.2330441944e-06
1.70477592855e-06
1.35743115457e-06
1.13976404479e-06
9.94727349147e-07
8.53824971926e-07
6.46642525134e-07
3.74462097422e-07
1.40984602496e-07
4.24345220251e-08
2.57940017892e-08
2.62441140717e-08
2.72907402078e-08
2.7133379842e-08
2.71605668516e-08
3.29745122829e-08
1.97401470538e-07
4.47995268146e-06
3.75400029189e-06
2.91139525077e-06
2.1965345575e-06
1.69317155757e-06
1.36444389906e-06
1.15329268846e-06
1.00128464973e-06
8.40993025073e-07
6.16963766538e-07
3.52515807586e-07
1.37892123333e-07
4.39342070105e-08
2.62422552116e-08
2.63608917071e-08
2.7437891176e-08
2.72152801056e-08
2.70690166095e-08
3.00937132908e-08
1.04196203981e-07
4.39153418918e-06
3.644201968e-06
2.82953804085e-06
2.16537694844e-06
1.70166828856e-06
1.39125643699e-06
1.17870077413e-06
1.00936532708e-06
8.23588818614e-07
5.90500232067e-07
3.40287290656e-07
1.41283823789e-07
4.77428831919e-08
2.72090660265e-08
2.65494849873e-08
2.75673366749e-08
2.71951194352e-08
2.72103260291e-08
2.94004338588e-08
6.81714362821e-08
4.2369876542e-06
3.50094896659e-06
2.77023056813e-06
2.17928217457e-06
1.75174044631e-06
1.44636078215e-06
1.21619253498e-06
1.01465578566e-06
8.04389005425e-07
5.7450933255e-07
3.42488746226e-07
1.53658584964e-07
5.48650169307e-08
2.88185225219e-08
2.68186068712e-08
2.75660980229e-08
2.70263692092e-08
2.72465940268e-08
2.92806156498e-08
5.5492296183e-08
4.12343944684e-06
3.47568535043e-06
2.83002145013e-06
2.28294429751e-06
1.85781758333e-06
1.52906110268e-06
1.25609746108e-06
1.01450423885e-06
7.93107395514e-07
5.78233353399e-07
3.63776579724e-07
1.77080607815e-07
6.57423799195e-08
3.1197749772e-08
2.71482982967e-08
2.74185280073e-08
2.67534391149e-08
2.69515138297e-08
2.9133924806e-08
3.82459509256e-08
4.16570042193e-06
3.61660940258e-06
3.00919958497e-06
2.45962787385e-06
2.00092248254e-06
1.62386703281e-06
1.29635952805e-06
1.0203306205e-06
7.98704663033e-07
6.04398580024e-07
4.05554716544e-07
2.13746080371e-07
8.18661628853e-08
3.46667923166e-08
2.75871426867e-08
2.72239395272e-08
2.64585709892e-08
2.64507844656e-08
2.86919252552e-08
3.56930347117e-08
4.30817343731e-06
3.8104373169e-06
3.20890697278e-06
2.64274285548e-06
2.15553952124e-06
1.7335423317e-06
1.35495000715e-06
1.04821327533e-06
8.25707632652e-07
6.49602428426e-07
4.6551166409e-07
2.66043930753e-07
1.06020865764e-07
3.99339464799e-08
2.83238138649e-08
2.71401021628e-08
2.62556023001e-08
2.59398626889e-08
2.79001036119e-08
3.40270276111e-08
4.50739127756e-06
4.00012607837e-06
3.3505491419e-06
2.77188965644e-06
2.29917576583e-06
1.86094060037e-06
1.44480311458e-06
1.1048461125e-06
8.68902399949e-07
7.02508977686e-07
5.34928752627e-07
3.32487817266e-07
1.40661465164e-07
4.80303747035e-08
2.95769550306e-08
2.73100716638e-08
2.62033248703e-08
2.55291385805e-08
2.69733931282e-08
3.2231014588e-08
4.68202769364e-06
4.10180772927e-06
3.39671689131e-06
2.82778131501e-06
2.39978578694e-06
1.98723423011e-06
1.55358482458e-06
1.1794140227e-06
9.17800018297e-07
7.50858481026e-07
6.00329744125e-07
4.04178169639e-07
1.84749923721e-07
5.96339247451e-08
3.15044656344e-08
2.7764297924e-08
2.63137303813e-08
2.52870960236e-08
2.61022087629e-08
3.03258612535e-08
4.71617116568e-06
4.10157903306e-06
3.39797171544e-06
2.84898019124e-06
2.45835387292e-06
2.0787318504e-06
1.65399459408e-06
1.25231962136e-06
9.62049690564e-07
7.87681149724e-07
6.51028189947e-07
4.68071006988e-07
2.32116752238e-07
7.4410333043e-08
3.41297757069e-08
2.83871598336e-08
2.65706326978e-08
2.52126623218e-08
2.53737351202e-08
2.85556009089e-08
4.75102389126e-06
4.14190872642e-06
3.42573892475e-06
2.87282906753e-06
2.49878000581e-06
2.13626667068e-06
1.71704679139e-06
1.30488734068e-06
9.94943523349e-07
8.12192730713e-07
6.84236162065e-07
5.1522336135e-07
2.74828094688e-07
9.1085184206e-08
3.73597159113e-08
2.9030771669e-08
2.69095285443e-08
2.52543044255e-08
2.48163194871e-08
2.69137335166e-08
4.76368846042e-06
4.17641048439e-06
3.46050716394e-06
2.90118529334e-06
2.52918885277e-06
2.16965036275e-06
1.74940302027e-06
1.33238439856e-06
1.0158649778e-06
8.29174434051e-07
7.04978346119e-07
5.4424336549e-07
3.05494210126e-07
1.07224405586e-07
4.11418245914e-08
2.96415784472e-08
2.72491704156e-08
2.53580296452e-08
2.43995484086e-08
2.54661504747e-08
4.76044079065e-06
4.20092356242e-06
3.48949179096e-06
2.92717962706e-06
2.55010902166e-06
2.18319591026e-06
1.75693786001e-06
1.34033749198e-06
1.02825610812e-06
8.43427471927e-07
7.20271038639e-07
5.61448812159e-07
3.23295149591e-07
1.18680462392e-07
4.45023619493e-08
3.02179588564e-08
2.75458302296e-08
2.54757728587e-08
2.40788411234e-08
2.42534440217e-08
4.78586164427e-06
4.23316501905e-06
3.51683338938e-06
2.9485706125e-06
2.5605639218e-06
2.17905114904e-06
1.74447453181e-06
1.33493462684e-06
1.03618325864e-06
8.57498738686e-07
7.33268292353e-07
5.70716418262e-07
3.31017786843e-07
1.24948639072e-07
4.67754725594e-08
3.06300913904e-08
2.77546591097e-08
2.55750779505e-08
2.38226054423e-08
2.32767031322e-08
4.83614778688e-06
4.28485385541e-06
3.55509744221e-06
2.97216418028e-06
2.56340438562e-06
2.15957940882e-06
1.71863762879e-06
1.32472608975e-06
1.04495890943e-06
8.73200454128e-07
7.44602207761e-07
5.73576075891e-07
3.30987497146e-07
1.26805087676e-07
4.7957702005e-08
3.08745678096e-08
2.78470034836e-08
2.56417555895e-08
2.36137819566e-08
2.25146831168e-08
4.90967869112e-06
4.3545265305e-06
3.61036812382e-06
3.00479564429e-06
2.56237628051e-06
2.12978442198e-06
1.68916132093e-06
1.318122007e-06
1.05824569806e-06
8.90717729356e-07
7.53433589991e-07
5.70545895068e-07
3.24978529288e-07
1.25313285964e-07
4.83396444537e-08
3.1007580244e-08
2.78350809111e-08
2.56634332612e-08
2.34519200939e-08
2.19428762548e-08
5.00379729654e-06
4.4581215316e-06
3.69926276497e-06
3.05506000519e-06
2.56290314773e-06
2.0987069821e-06
1.66633898598e-06
1.32101261884e-06
1.07761507678e-06
9.09070037376e-07
7.58373323988e-07
5.61982107887e-07
3.14137788209e-07
1.21536171026e-07
4.83496688328e-08
3.11040877178e-08
2.77301775316e-08
2.56340310627e-08
2.33540903871e-08
2.15187986547e-08
5.16574518193e-06
4.62761739783e-06
3.83313849139e-06
3.13101472026e-06
2.57434296558e-06
2.07946710431e-06
1.66021026425e-06
1.3379928271e-06
1.10366036898e-06
9.26640390941e-07
7.58156298488e-07
5.48304003803e-07
2.99390264651e-07
1.16766764394e-07
4.83599315791e-08
3.11867659053e-08
2.75204378661e-08
2.55417337853e-08
2.3293515544e-08
2.11606098269e-08
5.43777166904e-06
4.88335132293e-06
4.03891648755e-06
3.24724825798e-06
2.60243698637e-06
2.08274220138e-06
1.67852960297e-06
1.37232907133e-06
1.1359430682e-06
9.41844523811e-07
7.53115039856e-07
5.30907637269e-07
2.83180938848e-07
1.12648802204e-07
4.84843182573e-08
3.11397943837e-08
2.71531068359e-08
2.53895874355e-08
2.31982280897e-08
2.08276449327e-08
5.81792491771e-06
5.2829581871e-06
4.38051383384e-06
3.43889182201e-06
2.66097026762e-06
2.10846591228e-06
1.72032253235e-06
1.42033615892e-06
1.1706731924e-06
9.5417942958e-07
7.46451003546e-07
5.13881405378e-07
2.70045270312e-07
1.10235866598e-07
4.86821037397e-08
3.08888851025e-08
2.66443313956e-08
2.51546444326e-08
2.30342988889e-08
2.05183362343e-08
6.46282289075e-06
5.9730825161e-06
4.91148602839e-06
3.70342578494e-06
2.7572244977e-06
2.16108904914e-06
1.77428301162e-06
1.46951169085e-06
1.20134800446e-06
9.65740577438e-07
7.44059517115e-07
5.0360429319e-07
2.63038376807e-07
1.09544054391e-07
4.88455521613e-08
3.04229944346e-08
2.60073958854e-08
2.480272306e-08
2.28030591904e-08
2.02413120568e-08
7.49867394459e-06
6.85838364418e-06
5.42136528438e-06
3.95040754543e-06
2.89265913462e-06
2.24748457327e-06
1.82999810033e-06
1.50380293448e-06
1.22265965637e-06
9.78789748711e-07
7.49700545758e-07
5.02319974089e-07
2.61272186413e-07
1.09812850945e-07
4.871757369e-08
2.97600370167e-08
2.52545433454e-08
2.43113292613e-08
2.25316579749e-08
2.00231590535e-08
8.11783865191e-06
7.38240723938e-06
5.77667822537e-06
4.2416056275e-06
3.1023469333e-06
2.35902482099e-06
1.87017817358e-06
1.5135838718e-06
1.23096377019e-06
9.90638571254e-07
7.59618841402e-07
5.05401847462e-07
2.60945381891e-07
1.09359610777e-07
4.79614322756e-08
2.89205404156e-08
2.44092556309e-08
2.36734059437e-08
2.22464298915e-08
1.98846492165e-08
8.28584589235e-06
7.83426574672e-06
6.31670643402e-06
4.67477525809e-06
3.35980876577e-06
2.46068352796e-06
1.88313247232e-06
1.5007567465e-06
1.22459948773e-06
9.95062232154e-07
7.65746330631e-07
5.0541076914e-07
2.57266668911e-07
1.06622670127e-07
4.64203823129e-08
2.79510930019e-08
2.35087227422e-08
2.29004359732e-08
2.19435416624e-08
1.98151413719e-08
8.55717199737e-06
8.22512053385e-06
6.76446060826e-06
5.06429037242e-06
3.61232470913e-06
2.5664809937e-06
1.89278703763e-06
1.47749330084e-06
1.20652732151e-06
9.89322451017e-07
7.63295845255e-07
4.97421407659e-07
2.48121066511e-07
1.01512911431e-07
4.43380315015e-08
2.69551723865e-08
2.26051468276e-08
2.20372594162e-08
2.15940670192e-08
1.97809156856e-08
8.67908505588e-06
8.45116407976e-06
7.06045332503e-06
5.3808105178e-06
3.85120731011e-06
2.68460658153e-06
1.91471879669e-06
1.4575262685e-06
1.18284909583e-06
9.7532079755e-07
7.53783558324e-07
4.82381989156e-07
2.34762317104e-07
9.54584855987e-08
4.22653598992e-08
2.6073001664e-08
2.1784896512e-08
2.11677739112e-08
2.11533443737e-08
1.97273748162e-08
8.7685488202e-06
8.4761196381e-06
7.18160257768e-06
5.56551525522e-06
4.02112487235e-06
2.78331691074e-06
1.94032837857e-06
1.44140776354e-06
1.15718546355e-06
9.5943712968e-07
7.41162778343e-07
4.63477156141e-07
2.20709982493e-07
9.00164592118e-08
4.0648772389e-08
2.54322125221e-08
2.11366491795e-08
2.03576056542e-08
2.05907597705e-08
1.96081273714e-08
8.82433061969e-06
8.41156170494e-06
7.16119876239e-06
5.60035086686e-06
4.07285914519e-06
2.81421089303e-06
1.93793281671e-06
1.41574273106e-06
1.13408686962e-06
9.50399786555e-07
7.30262271315e-07
4.45177638796e-07
2.09093899603e-07
8.6255606878e-08
3.97617924734e-08
2.5088713692e-08
2.07050785786e-08
1.96406343057e-08
1.99043270387e-08
1.93862962629e-08
8.81266372674e-06
8.26096221281e-06
6.99028177786e-06
5.46202008457e-06
3.9745656863e-06
2.74481848573e-06
1.88239079626e-06
1.37766641106e-06
1.12409614243e-06
9.54859148972e-07
7.24851174134e-07
4.31957738143e-07
2.02476056918e-07
8.49550264575e-08
3.97183944875e-08
2.50606757248e-08
2.04959261441e-08
1.90503181644e-08
1.91309421771e-08
1.90355232075e-08
8.64866064563e-06
7.9717758754e-06
6.65927568704e-06
5.15527689391e-06
3.73322410053e-06
2.57752095032e-06
1.7842048962e-06
1.34838355734e-06
1.13990663754e-06
9.75637070617e-07
7.26709784811e-07
4.26843875898e-07
2.02279615446e-07
8.65527669002e-08
4.0659804962e-08
2.53897518951e-08
2.04919857865e-08
1.86363467624e-08
1.83441412908e-08
1.85491636825e-08
8.1298379692e-06
7.37311647068e-06
6.09922574763e-06
4.67915969179e-06
3.37494870631e-06
2.34925445458e-06
1.69218867764e-06
1.36130281218e-06
1.19064631222e-06
1.01135271625e-06
7.36651072207e-07
4.32119849005e-07
2.09765321059e-07
9.17346526962e-08
4.29219575175e-08
2.61826169898e-08
2.07065355021e-08
1.84593306824e-08
1.7629865206e-08
1.79443713859e-08
7.39409595849e-06
6.57712100878e-06
5.3590360857e-06
4.06766074938e-06
2.95576999412e-06
2.14651656968e-06
1.67944937662e-06
1.4433941353e-06
1.2758195239e-06
1.05786296983e-06
7.57031658191e-07
4.51280284183e-07
2.27495862955e-07
1.02163273621e-07
4.72919590712e-08
2.77313162869e-08
2.12240137222e-08
1.8563117997e-08
1.71443255348e-08
1.72633758546e-08
6.45027538139e-06
5.51913137654e-06
4.47455007601e-06
3.46076279991e-06
2.64452389511e-06
2.10495458985e-06
1.79956874153e-06
1.59555380594e-06
1.38361424004e-06
1.11324024388e-06
7.94536807943e-07
4.90830221947e-07
2.60780246578e-07
1.21468724591e-07
5.55274433618e-08
3.07090440166e-08
2.2253473589e-08
1.89769114409e-08
1.70540964566e-08
1.65675972197e-08
5.65546006757e-06
4.70898462334e-06
3.88677205e-06
3.17790082335e-06
2.64167305542e-06
2.29110222103e-06
2.03913256688e-06
1.78793257262e-06
1.50114274021e-06
1.18534450799e-06
8.6137319891e-07
5.61253626122e-07
3.19294290872e-07
1.56826955233e-07
7.1256796509e-08
3.64780689569e-08
2.42483545279e-08
1.97706803007e-08
1.74301656949e-08
1.60723493971e-08
5.3215902893e-06
4.58021526819e-06
3.91766629168e-06
3.35863200127e-06
2.94059451329e-06
2.63004901803e-06
2.3346771093e-06
2.00306562394e-06
1.64753150472e-06
1.29846902287e-06
9.72169503737e-07
6.73850073637e-07
4.15911017136e-07
2.20090844491e-07
1.01441756377e-07
4.78355831266e-08
2.82061868609e-08
2.12285486984e-08
1.82210017665e-08
1.62215206502e-08
5.62285374048e-06
5.00493628775e-06
4.35347266142e-06
3.76820758948e-06
3.35053940854e-06
3.03383995702e-06
2.69146476959e-06
2.28866765716e-06
1.86996981588e-06
1.48133702723e-06
1.13902520682e-06
8.35424281335e-07
5.62257136278e-07
3.28527892512e-07
1.60226556795e-07
7.14048284252e-08
3.64745949402e-08
2.41699978091e-08
1.95340836211e-08
1.70237150797e-08
6.26920603005e-06
5.57878572569e-06
4.75405166139e-06
4.05490445829e-06
3.65093999935e-06
3.40208970208e-06
3.08180428828e-06
2.64785864738e-06
2.18045065214e-06
1.74241603082e-06
1.36047551263e-06
1.03418906025e-06
7.47490759465e-07
4.86276138822e-07
2.63999797701e-07
1.19310744392e-07
5.40219853249e-08
3.0361580983e-08
2.19217085284e-08
1.82842984225e-08
6.32419931201e-06
5.61065343741e-06
4.76813826987e-06
4.113528582e-06
3.7737624383e-06
3.60431235726e-06
3.36331553801e-06
2.9710631985e-06
2.49597336628e-06
2.0225290204e-06
1.59643159705e-06
1.23444701785e-06
9.30490400095e-07
6.58059285856e-07
4.0260758111e-07
1.99734812736e-07
8.80343123535e-08
4.28149784885e-08
2.64726165821e-08
2.01629860852e-08
5.70427255426e-06
5.51590274877e-06
4.80680338111e-06
4.17340111047e-06
3.84415161826e-06
3.69411752401e-06
3.49336837368e-06
3.15026574002e-06
2.70755086637e-06
2.23250228347e-06
1.78363364346e-06
1.39527509542e-06
1.07589083664e-06
8.00980885704e-07
5.37234863958e-07
2.98254361026e-07
1.38088419065e-07
6.24476605751e-08
3.352391217e-08
2.27648428753e-08
5.28479822301e-06
5.37957845647e-06
4.79231832897e-06
4.18095336545e-06
3.85485474532e-06
3.70670403477e-06
3.52113192201e-06
3.20719640641e-06
2.79152188129e-06
2.33216736414e-06
1.88443990383e-06
1.49100143758e-06
1.16893363784e-06
8.98116422299e-07
6.37322254996e-07
3.82524868039e-07
1.88479911351e-07
8.46383449866e-08
4.18693250753e-08
2.57773319513e-08
4.9716709391e-06
5.18827641007e-06
4.68125999528e-06
4.09462392481e-06
3.78049735303e-06
3.63623907304e-06
3.45705569124e-06
3.15974754181e-06
2.76613113656e-06
2.3287181347e-06
1.89865055691e-06
1.51944485002e-06
1.20987480066e-06
9.50477871147e-07
6.96857551316e-07
4.37105432436e-07
2.25078953922e-07
1.02751831853e-07
4.92857401787e-08
2.8560511342e-08
4.81530135876e-06
5.07200227247e-06
4.54092466283e-06
3.92977778329e-06
3.62587370602e-06
3.48820686861e-06
3.30929860492e-06
3.02110650215e-06
2.6485292216e-06
2.24069297254e-06
1.84255271907e-06
1.49450770708e-06
1.21088124665e-06
9.68382747455e-07
7.21752830445e-07
4.60853091215e-07
2.42583321768e-07
1.12759985982e-07
5.40116778405e-08
3.05199644138e-08
4.87232400684e-06
5.10518017633e-06
4.38531295779e-06
3.70011923691e-06
3.4087463038e-06
3.27925064041e-06
3.09787170511e-06
2.81799041485e-06
2.47039574934e-06
2.09817803403e-06
1.74386574028e-06
1.43971415852e-06
1.18989259644e-06
9.64309133541e-07
7.19816876165e-07
4.5808692784e-07
2.42182180504e-07
1.14284301064e-07
5.55723588963e-08
3.14056849028e-08
5.03852489996e-06
4.97653587939e-06
4.0777993547e-06
3.36389937547e-06
3.10952455041e-06
3.00603126468e-06
2.83922073145e-06
2.58101847715e-06
2.26737608999e-06
1.94070069727e-06
1.63922958991e-06
1.3838086478e-06
1.16566252726e-06
9.47786998408e-07
6.97085462617e-07
4.35558803347e-07
2.29114361178e-07
1.09741331252e-07
5.47101606565e-08
3.13648242569e-08
5.21311551917e-06
4.86995432804e-06
3.854787012e-06
3.02391539397e-06
2.73183266378e-06
2.6680602772e-06
2.55165656079e-06
2.34172024984e-06
2.07893468227e-06
1.80849981182e-06
1.56271006491e-06
1.34952382793e-06
1.147502865e-06
9.21001926018e-07
6.59448130898e-07
4.0274371333e-07
2.10811750207e-07
1.02743111572e-07
5.26683157497e-08
3.07153480354e-08
5.63077025463e-06
5.22793848012e-06
4.04464203468e-06
2.94230792131e-06
2.42569071658e-06
2.32458725599e-06
2.26969895773e-06
2.13420776321e-06
1.94045351607e-06
1.73169175434e-06
1.5328076199e-06
1.34015179944e-06
1.13015052287e-06
8.85133511067e-07
6.16865095592e-07
3.70541622803e-07
1.94227915723e-07
9.6192942104e-08
5.03721553608e-08
2.96901724773e-08
6.09864943233e-06
5.52655719998e-06
4.38392093252e-06
3.10091862149e-06
2.30918093091e-06
2.07221488846e-06
2.04809858634e-06