/*--------------------------------*- C++ -*----------------------------------*\
| =========                 |                                                 |
| \\      /  F ield         | OpenFOAM: The Open Source CFD Toolbox           |
|  \\    /   O peration     | Version:  2312                                  |
|   \\  /    A nd           | Website:  www.openfoam.com                      |
|    \\/     M anipulation  |                                                 |
\*---------------------------------------------------------------------------*/
FoamFile
{
    version     2.0;
    format      ascii;
    arch        "LSB;label=32;scalar=64";
    class       volScalarField;
    location    "0.25/water";
    object      Tf.gasAndLiquid;
}
// * * * * * * * * * * * * * * * * * * * * * * * * * * * * * * * * * * * * * //

dimensions      [0 0 0 1 0 0 0];

internalField   nonuniform List<scalar> 
6000
(
314.607752679
306.272620685
302.708077215
301.106204185
300.469532918
300.088906626
300.003400396
300.000017825
300.000000013
300
300
300
300
300
300
300
300
300
300
300
320.428363375
308.418842031
303.072637361
301.132284521
300.412251673
300.150103797
300.046841903
300.004890593
300.000063559
300.000000055
300
300
300
300
300
300
300
300
300
300
320.452278782
307.982204613
302.762765715
300.935495622
300.311884277
300.103398844
300.033889752
300.008244478
300.000539867
300.000005356
300.000000001
300
300
300
300
300
300
300
300
300
319.601607212
307.960898761
302.871444735
300.973383131
300.319521756
300.101889236
300.031222117
300.009189036
300.001453194
300.000051148
300.000000499
300
300
300
300
300
300
300
300
300
318.810003377
307.821010916
302.986753236
301.059554317
300.360817999
300.119602925
300.037330813
300.010747895
300.002950138
300.000255868
300.000005789
300.000000001
300
300
300
300
300
300
300
300
317.852807179
307.506639793
302.982836097
301.111134609
300.395864338
300.138573699
300.046357569
300.013809251
300.003771148
300.000707964
300.000030576
300.000000519
300
300
300
300
300
300
300
300
317.000887016
307.083495894
302.855711112
301.102105688
300.408956712
300.150202992
300.053957509
300.01723628
300.004687056
300.001254713
300.000123886
300.000003177
300
300
300
300
300
300
300
300
316.553241376
306.74883107
302.696315331
301.053008248
300.403954228
300.155546258
300.059674474
300.020717838
300.005773995
300.001450919
300.000307649
300.000012711
300.000000005
300
300
300
300
300
300
300
316.366104401
306.628486282
302.638358635
301.034427767
300.405215158
300.162424647
300.066386224
300.025009319
300.007356422
300.001735593
300.000447044
300.000045789
300.00000017
300
300
300
300
300
300
300
316.597297619
306.759648272
302.692754845
301.059626561
300.421485256
300.17457395
300.074965348
300.030443937
300.009715905
300.002239942
300.00050469
300.000117935
300.000002728
300.000000002
300
300
300
300
300
300
317.338647777
307.113703633
302.830299993
301.12138978
300.453564284
300.19283126
300.085857616
300.036896985
300.012791076
300.003017013
300.000605992
300.000151069
300.000016026
300.000000089
300
300
300
300
300
300
317.596037194
307.264867167
302.910435783
301.167829459
300.483155703
300.211663593
300.097571778
300.043877389
300.016354267
300.004046723
300.000750131
300.000163456
300.00004667
300.000001738
300.000000001
300
300
300
300
300
317.698769742
307.217347829
302.870927943
301.15887083
300.490956748
300.223169831
300.107043763
300.050183946
300.01987381
300.005265439
300.000917877
300.000178772
300.000046769
300.000007846
300.000000064
300
300
300
300
300
317.784654088
307.172928333
302.833950878
301.141395952
300.490203405
300.229743864
300.114092266
300.055171262
300.022871978
300.00650617
300.001131395
300.000194042
300.000046202
300.000016846
300.000000726
300.000000001
300
300
300
300
317.848350168
307.134466167
302.790523999
301.119889961
300.48492447
300.23247049
300.118485301
300.058547325
300.025114846
300.007622129
300.001374935
300.000214647
300.000045966
300.000015183
300.000002188
300.000000011
300
300
300
300
317.891184037
307.06642025
302.724356176
301.088631135
300.474941557
300.231750571
300.120238428
300.060435207
300.026707778
300.00859004
300.001636187
300.000238995
300.00004543
300.000013448
300.000003719
300.000000064
300
300
300
300
317.850582346
306.959498013
302.633805464
301.046496881
300.460757484
300.228430888
300.12012163
300.061650625
300.028055688
300.009531862
300.00193203
300.000267228
300.000044521
300.000011778
300.000004336
300.000000165
300
300
300
300
317.727774946
306.808181332
302.528323334
300.996520305
300.442752548
300.223065827
300.119685279
300.06306214
300.029645533
300.010656327
300.002315553
300.000305434
300.000043459
300.000010153
300.000003327
300.000000226
300
300
300
300
317.554399667
306.817613907
302.533912748
300.988266752
300.436210901
300.221193078
300.121086426
300.065539173
300.031972117
300.012217776
300.00287188
300.000366356
300.000043028
300.000008584
300.000002261
300.000000252
300.000000001
300
300
300
317.123783914
306.814928114
302.587265783
301.010348823
300.440777064
300.223383885
300.124452975
300.069431926
300.035333982
300.014425944
300.003692694
300.000467361
300.000045073
300.000007481
300.000001471
300.00000022
300
300
300
300
316.408820361
306.678551577
302.606097611
301.027922624
300.445749592
300.227058633
300.129838569
300.075130933
300.039980274
300.017399156
300.004828184
300.000622657
300.000053423
300.000007617
300.000001163
300.000000083
300
300
300
300
316.166445846
306.603624924
302.60098717
301.035952395
300.453509463
300.23586687
300.139385248
300.083581555
300.04626256
300.021159338
300.006278972
300.000847868
300.000069032
300.000009399
300.0000013
300.000000061
300
300
300
300
316.783703421
306.80583639
302.671309978
301.074367353
300.480553312
300.255745114
300.154615312
300.095058738
300.054182326
300.02574768
300.008043272
300.001146453
300.000095134
300.000012738
300.000001764
300.000000126
300
300
300
300
317.994993334
307.33242654
302.894729442
301.179418477
300.534769219
300.286315566
300.174078486
300.10854613
300.063317913
300.031059003
300.01009358
300.00151561
300.000135115
300.00001856
300.000002633
300.000000233
300
300
300
300
318.470108463
307.677104677
303.0957009
301.286702444
300.591971276
300.317848543
300.193754024
300.122226415
300.07298048
300.03693129
300.012394874
300.001964887
300.000186317
300.0000266
300.000003883
300.00000038
300
300
300
300
318.59147367
307.820525148
303.204805322
301.351925807
300.631486084
300.342300086
300.210422688
300.134692822
300.082461723
300.043272582
300.015077923
300.002503537
300.000249651
300.000036497
300.000005529
300.000000597
300
300
300
300
318.681965628
307.842399001
303.232333177
301.375469144
300.651644091
300.358687397
300.223470051
300.145377283
300.090947855
300.049097098
300.018215349
300.003174531
300.000325556
300.000047631
300.000007397
300.000000887
300
300
300
300
318.703868226
307.735771617
303.163185784
301.353856011
300.652839423
300.367222654
300.232872073
300.153911769
300.097689999
300.053561219
300.02106044
300.004044114
300.000412322
300.00005881
300.000009317
300.00000124
300.000000011
300
300
300
318.710033685
307.65216904
303.097748813
301.324955183
300.64671173
300.370938388
300.239154645
300.159904632
300.101986625
300.056337652
300.022975711
300.004886306
300.00051493
300.000068431
300.00001088
300.000001553
300.000000082
300
300
300
318.675280108
307.601488814
303.049838526
301.301964946
300.63978588
300.371920762
300.242516858
300.162901809
300.103440226
300.057132098
300.023719838
300.005388288
300.00060293
300.000072704
300.000011689
300.000001717
300.000000118
300
300
300
318.665590498
307.56394367
303.016490331
301.287277228
300.635155796
300.371713456
300.243304775
300.162753946
300.10223342
300.056097262
300.023397844
300.005498588
300.000643479
300.000072589
300.000011882
300.000001622
300.000000101
300
300
300
318.630876831
307.505661159
302.973188047
301.270937375
300.630623458
300.370329062
300.24168777
300.159684922
300.098944207
300.053790272
300.022416623
300.005406471
300.000655352
300.000071729
300.000012219
300.000001491
300.000000053
300
300
300
318.582095368
307.350525929
302.874091867
301.230729852
300.617556791
300.365003205
300.236847464
300.154056848
300.094200171
300.050835052
300.021292735
300.005331721
300.000677578
300.000077657
300.000012688
300.000001366
300.000000003
300
300
300
318.485600335
307.281138599
302.823555503
301.201448421
300.603747106
300.356731388
300.228924343
300.146816866
300.088994111
300.048065634
300.020564808
300.005502609
300.000771491
300.000087247
300.000013346
300.000001255
300
300
300
300
318.448123233
307.31203465
302.838096214
301.199714885
300.595904211
300.347454784
300.219520508
300.139434137
300.084573447
300.046455419
300.020761929
300.006119315
300.000992013
300.000104845
300.00001407
300.000001145
300
300
300
300
318.366191811
307.371183746
302.869435079
301.208578002
300.590855709
300.337621215
300.210706202
300.13392247
300.082494541
300.046813623
300.022307527
300.007425131
300.001303654
300.000126153
300.000014277
300.000000985
300
300
300
300
317.683525235
307.166902011
302.803708723
301.183230844
300.573458668
300.324886002
300.20371561
300.131900876
300.083899398
300.050041829
300.025527601
300.009247287
300.001721253
300.000148269
300.000013006
300.000000703
300
300
300
300
316.490797429
306.661595228
302.619262366
301.104811479
300.534985298
300.307709541
300.199649604
300.134683472
300.089609655
300.056083674
300.030200361
300.01168605
300.002304315
300.000179386
300.000010843
300.000000443
300
300
300
300
315.502784263
306.365227436
302.531213171
301.054798648
300.504251245
300.297802875
300.2042242
300.144533266
300.099963865
300.064939983
300.036531582
300.014990878
300.003157541
300.000233777
300.000009073
300.000000406
300
300
300
300
315.183307009
306.329815815
302.589480181
301.089273239
300.517466912
300.309850308
300.221351772
300.161815672
300.114939485
300.07674852
300.044832792
300.019469789
300.004430309
300.000336621
300.000009451
300.000000699
300
300
300
300
315.435781577
306.486458949
302.744503809
301.194216937
300.587902076
300.352660862
300.249336236
300.184386962
300.133212189
300.090911565
300.054926267
300.025227135
300.006272592
300.000529073
300.000016301
300.000001479
300
300
300
300
316.118280174
306.745850854
302.88647327
301.301864376
300.672935689
300.410897644
300.284630396
300.209118851
300.152531693
300.105910437
300.065867771
300.031886411
300.008733005
300.000863866
300.000035902
300.00000338
300.000000225
300
300
300
316.869880582
306.979748173
302.968175302
301.364464386
300.72656472
300.454469286
300.315995069
300.231960501
300.170386776
300.120020691
300.076521328
300.038789955
300.011668348
300.001380095
300.000076002
300.000007591
300.000000734
300
300
300
317.410198061
307.192802636
303.036432074
301.40157354
300.753702896
300.47769554
300.336767586
300.249090506
300.18454089
300.131691228
300.08570876
300.045135674
300.014778381
300.00207349
300.000141174
300.0000151
300.000001711
300
300
300
317.878337714
307.377763752
303.087381038
301.420759048
300.765058574
300.488025126
300.348227623
300.260141046
300.194474917
300.140519888
300.092835212
300.050291348
300.017733096
300.002907174
300.000228999
300.000025566
300.000003186
300
300
300
318.129822752
307.490539368
303.114865519
301.427546205
300.765811484
300.490279684
300.353416236
300.266569259
300.201642431
300.147188447
300.097905957
300.053690583
300.019967215
300.003777209
300.0003335
300.000037189
300.000004923
300.000000002
300
300
318.218151369
307.508051062
303.101055619
301.415503526
300.757423111
300.486725324
300.354664644
300.270373842
300.207018494
300.152120065
300.101219035
300.055619412
300.021331854
300.004439813
300.000449788
300.000047831
300.000006589
300.000000107
300
300
318.201205828
307.405369773
303.0197367
301.376949776
300.739348923
300.47934499
300.353777817
300.272863752
300.21104095
300.155560067
300.10301891
300.056422104
300.022027619
300.004870095
300.000548143
300.000056067
300.000007919
300.000000199
300
300
318.120688667
307.328633982
302.955935889
301.337839241
300.71991806
300.471150775
300.352041756
300.274592752
300.213883203
300.157618463
300.103548814
300.056377927
300.022240901
300.005107816
300.000624605
300.00006255
300.000009041
300.000000273
300
300
317.99742573
307.260370438
302.895435195
301.294340552
300.696829685
300.461861396
300.34957601
300.275431922
300.215514815
300.158344898
300.102986266
300.055661489
300.022073017
300.005178009
300.00068351
300.000069403
300.000009898
300.000000326
300
300
317.763182746
307.135749655
302.80630822
301.230525603
300.664475069
300.450086967
300.346154177
300.275287689
300.215968077
300.157828023
300.101474117
300.054380664
300.021555235
300.005110767
300.000726799
300.000076546
300.000010389
300.00000037
300
300
317.460046157
306.908180332
302.63420519
301.128219471
300.619574098
300.435348069
300.341860178
300.274312126
300.215398298
300.156235861
300.099199077
300.052656848
300.020707168
300.004979134
300.000760926
300.000082637
300.000010526
300.000000414
300
300
316.962942032
306.433573557
302.296373896
300.974218761
300.567343702
300.419569081
300.337487206
300.273000016
300.214100637
300.153879326
300.096500343
300.050669945
300.019709471
300.00487974
300.000791178
300.000086573
300.000010457
300.000000469
300
300
316.240591478
305.734416113
301.828043878
300.83201582
300.527764928
300.408344071
300.33500598
300.272641718
300.21295194
300.151627647
300.094119804
300.04885562
300.018997851
300.004865079
300.000828066
300.000088924
300.000010299
300.000000542
300
300
316.195848746
304.687134118
301.523681705
300.752107286
300.511238029
300.406779899
300.33718414
300.274529432
300.213253558
300.150703823
300.09291578
300.047867089
300.018797151
300.004981314
300.000879268
300.00009308
300.000010702
300.000000684
300
300
319.558735824
305.317576517
301.635170917
300.770049433
300.525850591
300.42029324
300.346220168
300.280098226
300.215884541
300.151591272
300.093086907
300.047837402
300.018999038
300.005186398
300.000930954
300.000100116
300.000011757
300.000000889
300
300
326.004961963
306.859133136
302.233481339
300.951346736
300.601330655
300.454662395
300.36338122
300.289027062
300.219851872
300.153148682
300.093673075
300.048074347
300.01922491
300.00535763
300.000955187
300.0001064
300.000013248
300.000001103
300
300
330.551514298
308.723753971
303.102302923
301.312781019
300.741906543
300.510881851
300.387390143
300.299392752
300.223177526
300.153670846
300.093509987
300.047883891
300.019162158
300.005359812
300.000940386
300.000108204
300.000014999
300.000001246
300
300
333.11393285
309.504570435
303.803832311
301.715181799
300.920577889
300.584625867
300.417153597
300.30983661
300.224774131
300.152594485
300.092488243
300.047234474
300.018801397
300.005199379
300.00090342
300.000107266
300.000016467
300.000001263
300
300
334.167035378
310.1771129
304.50519862
302.131004717
301.116815623
300.668199931
300.44862789
300.317526197
300.224184962
300.150432412
300.091146565
300.046605422
300.018411281
300.005034011
300.00088322
300.000112945
300.000017755
300.000001159
300
300
335.141590301
312.610265371
305.426486144
302.544321706
301.299291429
300.742211558
300.469619538
300.319210571
300.221078033
300.147624448
300.08984406
300.04630786
300.018427611
300.005114847
300.000937787
300.000131331
300.000018926
300.000000998
300
300
336.5835953
314.212512593
306.053610067
302.795788505
301.400026977
300.76907853
300.46736833
300.312450314
300.215408575
300.144537405
300.088925175
300.046633695
300.01910683
300.005602924
300.00112458
300.000172343
300.000020882
300.000000944
300
300
338.161983145
314.863320598
306.193531321
302.816889355
301.370684114
300.726697298
300.442842402
300.298572678
300.20855017
300.142136921
300.089285114
300.048315079
300.020884252
300.00669186
300.001519438
300.000263896
300.000031731
300.000001381
300
300
339.967363186
315.471570251
306.263162497
302.707740291
301.22946645
300.651774632
300.407318865
300.283141662
300.203038572
300.142070668
300.092160196
300.052353499
300.024386848
300.008739264
300.002296862
300.000469961
300.000074752
300.000004748
300
300
341.647155933
316.037933564
306.124080919
302.348488028
301.036224346
300.564601154
300.372604841
300.270855609
300.201341461
300.145733463
300.098752968
300.059662039
300.030434574
300.012286138
300.003758468
300.000917913
300.000196156
300.000031445
300.000000527
300
335.633320219
314.468266527
305.065757555
301.874468734
300.839149579
300.490876489
300.346860267
300.26577646
300.205191122
300.154606757
300.109946398
300.071141614
300.039716026
300.018041689
300.006353508
300.001827021
300.000482126
300.000113825
300.000014484
300.000000608
324.453919425
310.694117374
303.823946327
301.453657865
300.695044776
300.441754053
300.336740744
300.269796483
300.216491429
300.169410402
300.126572437
300.08724751
300.053101538
300.026844279
300.010729178
300.003502253
300.001051605
300.000298201
300.0000609
300.00000349
317.875740455
308.171395834
303.138615441
301.274426334
300.639541471
300.432399047
300.344816543
300.286139668
300.23658653
300.19169769
300.149307502
300.108813357
300.071284107
300.039628148
300.017649641
300.006352978
300.002049132
300.000630114
300.000158433
300.000016731
316.071084151
308.06498707
303.615239083
301.494390306
300.682698843
300.457226398
300.375156488
300.317338025
300.267892565
300.222381834
300.178538295
300.135598485
300.09413361
300.056550324
300.027564267
300.010739564
300.003638128
300.001147118
300.000314371
300.000045457
320.333597476
311.115824858
305.188635346
302.115036728
300.905142567
300.545967573
300.432560789
300.363819279
300.308511793
300.258876528
300.21140919
300.164891139
300.119304783
300.076068253
300.039856668
300.01654898
300.005800465
300.001848279
300.000512395
300.000086034
334.677420843
314.359601534
306.087414498
302.554642909
301.163604778
300.684187293
300.509688477
300.418147805
300.351237128
300.294363738
300.241957349
300.191626652
300.142551386
300.095002799
300.052675274
300.023029347
300.00826677
300.002631537
300.000719363
300.000127928
344.495624721
315.935235007
306.45212351
302.75284368
301.317986535
300.782363021
300.568853471
300.458924582
300.383132604
300.320548336
300.264216345
300.211164201
300.15998799
300.110024454
300.063651497
300.028962192
300.010568943
300.003328907
300.000889948
300.000158079
347.571506835
316.557721104
306.529192082
302.798710686
301.377691135
300.827200819
300.59500025
300.475187185
300.39635731
300.332174102
300.274931201
300.221294256
300.169751573
300.119241617
300.07107828
300.033340501
300.012315019
300.003812625
300.000979622
300.000166555
348.673761396
316.470771317
306.269371171
302.666555051
301.342021
300.822758329
300.594962842
300.474655412
300.395963636
300.332176598
300.275489296
300.222628102
300.171989378
300.122215854
300.073930111
300.035189206
300.013028991
300.003935947
300.000961032
300.00015328
348.682180725
315.356748942
305.447341056
302.283564885
301.195088206
300.768188513
300.571918004
300.462413625
300.387560002
300.325256738
300.26960602
300.217897468
300.168528006
300.119861311
300.072329748
300.034234923
300.012507168
300.003656463
300.000842243
300.000124096
346.515304889
312.899528124
304.271821142
301.806842938
301.012162081
300.694164431
300.540831873
300.446571361
300.375313276
300.314592969
300.260033207
300.209488388
300.161343342
300.113669828
300.067360276
300.031172812
300.011086713
300.00311677
300.000675311
300.000092513
340.933649408
310.173470619
303.21148789
301.444396887
300.876767325
300.638483125
300.516011915
300.430372863
300.361896776
300.302554234
300.248939553
300.199351617
300.152046083
300.104907156
300.060296292
300.026964407
300.009249453
300.002489961
300.000509016
300.000066209
336.772454685
308.838189396
302.827497998
301.273131072
300.794104906
300.604989657
300.496287447
300.416081075
300.349622534
300.291075055
300.237979364
300.188827182
300.141535539
300.094690716
300.052479994
300.022550442
300.007417659
300.001908266
300.000369612
300.000047169
332.036327162
308.733155494
303.068144046
301.342784217
300.797216397
300.595289716
300.486537819
300.407062853
300.340467605
300.281537284
300.228093489
300.178348537
300.130322179
300.084522996
300.045274314
300.018712631
300.005892897
300.001454586
300.000272726
300.000034902
327.057702283
309.361157332
303.719152977
301.646654934
300.894706336
300.618746
300.489957244
300.404611241
300.335025565
300.274028825
300.218903248
300.167810432
300.119928294
300.076122506
300.039838303
300.015973595
300.004856007
300.001192124
300.000228582
300.000031585
323.71963991
309.794135767
304.307544375
302.010650876
301.058344167
300.677273688
300.508226326
300.408255318
300.33180102
300.266944578
300.209976001
300.158808472
300.112320597
300.070842857
300.036886794
300.014600237
300.004471611
300.001151699
300.000241738
300.000041593
321.907139873
309.759127598
304.581590405
302.26012135
301.210457713
300.748569569
300.534378717
300.413121165
300.327842654
300.259982128
300.202894037
300.153028757
300.108567578
300.069249645
300.036638401
300.014937279
300.004845402
300.00135578
300.00032791
300.000074722
320.927962007
309.365056917
304.508058971
302.308993939
301.275730951
300.788455489
300.5454978
300.41133407
300.321968886
300.254165821
300.198711111
300.151013048
300.10879374
300.071239647
300.039211393
300.017223213
300.006038568
300.001847258
300.000514568
300.000145754
320.039204893
308.942573796
304.340177024
302.263306973
301.269773735
300.780531604
300.535659111
300.402553715
300.315558027
300.250667673
300.197983948
300.152838487
300.112720858
300.07651953
300.044876057
300.021472968
300.008177782
300.002703154
300.000841038
300.000275244
318.656207147
308.439911214
304.117124492
302.162118021
301.207553667
300.737634954
300.513149558
300.39095508
300.310954167
300.25057829
300.201186718
300.15847716
300.12016843
300.085301511
300.053372209
300.027608145
300.011410609
300.00404494
300.001364142
300.000492868
316.654872013
307.702869507
303.74858907
301.959422952
301.092894125
300.679113201
300.486676309
300.381934683
300.310791207
300.255456353
300.209036942
300.168557936
300.132051376
300.097195975
300.063956018
300.035316992
300.01570969
300.005928227
300.002130543
300.000833397
314.687502578
306.801706234
303.305895784
301.717295241
300.965966915
300.625675548
300.470682492
300.382482355
300.319000564
300.267387906
300.223309181
300.184000218
300.147246633
300.111342776
300.076263252
300.044557408
300.021090643
300.008363596
300.00315288
300.001319321
313.88340077
306.541633712
303.236991346
301.695621405
300.952335522
300.621292837
300.47762935
300.399344418
300.339847564
300.289492357
300.245140464
300.204405266
300.165595199
300.127650863
300.090284883
300.055273309
300.027558604
300.011379316
300.004450639
300.001973099
315.504686924
308.14715338
304.362019861
302.269345289
301.186625199
300.703832858
300.522013209
300.439331313
300.377186265
300.323398766
300.27461895
300.229346547
300.186730218
300.145739583
300.105520181
300.066924991
300.034752844
300.014836259
300.00598848
300.002805709
322.921469261
312.007810915
306.041362361
302.967878619
301.488981201
300.843399361
300.599540439
300.499189078
300.427355074
300.365012552
300.308449105
300.256670988
300.208960138
300.164160666
300.12080283
300.078638231
300.042143811
300.018528761
300.007717542
300.003819902
337.247268397
314.466835954
306.456219039
303.050389383
301.554934854
300.921223846
300.668091829
300.553854121
300.47350534
300.403478917
300.339772014
300.281831631
300.229208869
300.180756707
300.134523346
300.089317568
300.049144711
300.022255888
300.009610327
300.005030951
342.780510542
315.300810083
306.260185381
302.833214515
301.464557898
300.915042236
300.689014381
300.577727417
300.497683744
300.426992075
300.360979259
300.299957301
300.244474216
300.193667417
300.145418281
300.098039444
300.055255599
300.025889011
300.011680055
300.006461095
344.106541909
315.175171211
305.831282433
302.529787598
301.321174956
300.867147939
300.680501591
300.580007318
300.504234497
300.436283751
300.371325195
300.310362056
300.254274886
300.202552398
300.153173696
300.104451497
300.060252583
300.029316643
300.013886933
300.00808695
344.093764077
314.832433273
305.441282645
302.27431132
301.194461895
300.820657402
300.663816173
300.573773271
300.503224484
300.438462295
300.375550382
300.315696423
300.260029366
300.208108591
300.157906402
300.108248333
300.06363109
300.032188464
300.016109622
300.00985218
344.001853402
314.590030446
305.225798511
302.134554844
301.123284532
300.787808536
300.648216018
300.565851981
300.499931797
300.437718153
300.376771606
300.318215694
300.263199954
300.211080232
300.159860332
300.109729884
300.065522914
300.034415885
300.018231861
300.011656802
344.020983209
314.503616273
305.179498292
302.105286444
301.106635199
300.774556517
300.63909874
300.560474029
300.496251988
300.435706592
300.376278909
300.318873397
300.264304749
300.211425726
300.159208563
300.109368596
300.066300291
300.036169016
300.020259111
300.013415322
344.266096452
314.305787394
305.078979336
302.079401705
301.102295417
300.770696196
300.63482824
300.556465074
300.492300705
300.43246583
300.374075625
300.317553438
300.262817606
300.208771615
300.156366094
300.107617994
300.066319697
300.037632441
300.022210032
300.015043436
344.212522663
313.635182025
304.711835427
301.966987838
301.080582605
300.768323675
300.634392851
300.552718421
300.487238201
300.427323086
300.369577982
300.313479436
300.25787407
300.203325958
300.151740314
300.104834376
300.065864025
300.038956597
300.024076091
300.016462215
342.761267882
311.849326529
303.930008237
301.710079966
301.016883203
300.758009135
300.631870658
300.547298168
300.480068199
300.419662632
300.362237349
300.305837931
300.249534932
300.195580264
300.145747849
300.101386194
300.065225762
300.04026131
300.025835111
300.017614675
337.841306237
310.090918319
303.35114392
301.525473289
300.976125796
300.752597226
300.626149313
300.539370386
300.470441161
300.409463021
300.351923382
300.294685852
300.238593326
300.186272879
300.139011965
300.097808526
300.064755902
300.041667667
300.027471756
300.018502132
334.026593674
310.417097021
303.492315615
301.570556339
300.981426633
300.747626212
300.61866658
300.529657923
300.459128936
300.397472557
300.33897661
300.281103565
300.226228946
300.176426106
300.132408966
300.094769161
300.064831257
300.043285391
300.029058826
300.019210114
329.88896452
310.82300542
303.900675044
301.711688491
301.009712215
300.747104519
300.611466283
300.519614741
300.447465314
300.384426616
300.324169445
300.266554009
300.213829167
300.167244287
300.126901759
300.092930288
300.06575335
300.045349829
300.030751596
300.019808986
327.875484416
310.431148575
303.999526956
301.797385359
301.036455998
300.748182062
300.604821484
300.510107226
300.435879045
300.370152377
300.308881599
300.252624628
300.202820675
300.159905674
300.123348575
300.092809819
300.068017322
300.048104944
300.032498562
300.020325301
326.834326176
309.920898344
303.932822047
301.827231125
301.056444392
300.750795757
300.599378319
300.500754455
300.423189896
300.355735826
300.294920688
300.240925006
300.194525601
300.155418154
300.12252407
300.095314092
300.07177366
300.05129442
300.03429081
300.020810671
326.18187359
309.68166943
303.822915107
301.814721861
301.062527871
300.750838675
300.592267505
300.489279845
300.41034995
300.343138115
300.283949856
300.23285069
300.190139855
300.154761935
300.125718489
300.100296789
300.076674504
300.054943054
300.036251834
300.021339625
323.978315926
309.319083844
303.632821719
301.739821485
301.036705396
300.737296195
300.578514197
300.476725935
300.399432257
300.334121356
300.277458884
300.229746451
300.191020135
300.159560507
300.132598178
300.107396224
300.082751756
300.059236875
300.038536272
300.022020881
319.774496647
307.953909546
303.209563372
301.569083259
300.966670867
300.703333492
300.559657105
300.465470276
300.392532468
300.330254345
300.277757837
300.234094069
300.19897659
300.169614582
300.142810679
300.116576367
300.090164016
300.064369642
300.041284602
300.022954778
315.858371611
306.334416084
302.547286331
301.289805737
300.849615735
300.654562124
300.540458798
300.459105015
300.392737452
300.335686656
300.287471616
300.247795522
300.214358699
300.18443925
300.156039623
300.12773193
300.098903917
300.070390299
300.044572065
300.024219597
313.420617173
305.364812844
301.875058342
301.002397746
300.749209495
300.624664345
300.537173078
300.466623947
300.406728396
300.354742556
300.309566266
300.270442369
300.235311223
300.202772443
300.171492103
300.140325789
300.10862388
300.077115622
300.048354747
300.025862766
313.608834563
304.85026957
301.568027235
300.912711253
300.738233423
300.641472202
300.56336098
300.49636414
300.438093873
300.386098458
300.339676578
300.297598378
300.259010765
300.222846585
300.188057334
300.153619345
300.118853172
300.084288488
300.052534049
300.027875469
318.895210308
306.094126086
302.054226069
301.05157273
300.80637563
300.697957228
300.614833798
300.543220831
300.480227237
300.42343969
300.372211711
300.325629373
300.282976408
300.243015577
300.204668061
300.166939565
300.129165663
300.091704278
300.057042738
300.030239945
329.761257163
308.924423587
303.404072026
301.570901288
300.983308326
300.789743447
300.681267472
300.597631294
300.525354607
300.460474969
300.402651325
300.351297689
300.304926137
300.261776278
300.220417507
300.17979877
300.139322457
300.099225903
300.061807977
300.032916436
337.003091508
311.890396098
304.859131665
302.251487132
301.291077512
300.934041281
300.76118163
300.652695632
300.569206895
300.49599218
300.431074378
300.374487165
300.324489545
300.278686428
300.235036497
300.192099873
300.149298612
300.106792956
300.06674781
300.035839462
340.934705769
314.165922146
305.975066985
302.830009412
301.578167401
301.073371884
300.843365398
300.706463902
300.608270552
300.527495763
300.456951856
300.395836557
300.342548511
300.294367017