/*--------------------------------*- C++ -*----------------------------------*\
| =========                 |                                                 |
| \\      /  F ield         | OpenFOAM: The Open Source CFD Toolbox           |
|  \\    /   O peration     | Version:  2312                                  |
|   \\  /    A nd           | Website:  www.openfoam.com                      |
|    \\/     M anipulation  |                                                 |
\*---------------------------------------------------------------------------*/
FoamFile
{
    version     2.0;
    format      ascii;
    arch        "LSB;label=32;scalar=64";
    class       volScalarField;
    location    "0.51/water";
    object      nut.gas;
}
// * * * * * * * * * * * * * * * * * * * * * * * * * * * * * * * * * * * * * //

dimensions      [0 2 -1 0 0 0 0];

internalField   nonuniform List<scalar> 
1497
(
2.49685188815e-06
2.2375945591e-06
1.89766967011e-06
1.53899322664e-06
1.20590664866e-06
9.08903782252e-07
6.40924783285e-07
4.04940152341e-07
2.26238836152e-07
1.16280329009e-07
6.18961555323e-08
3.83762953135e-08
2.93026961149e-08
6.74396541413e-06
6.12638899888e-06
5.15221902875e-06
4.16885097721e-06
3.41570653497e-06
2.99769727036e-06
2.83790599996e-06
2.71709969307e-06
2.48069566873e-06
2.13417405885e-06
1.75797777588e-06
1.40718729714e-06
1.09750581359e-06
8.23904421294e-07
5.75397457721e-07
3.56613856224e-07
1.92644573095e-07
9.73703628458e-08
5.30471618476e-08
3.5264248647e-08
6.31921947935e-06
5.82657340597e-06
4.97034639953e-06
4.0902146751e-06
3.42262682243e-06
3.06531358811e-06
2.93884567469e-06
2.84126200248e-06
2.62717475221e-06
2.30003388803e-06
1.92943238127e-06
1.5708766238e-06
1.25164992058e-06
9.744335352e-07
7.22905679746e-07
4.83736658133e-07
2.77268120635e-07
1.39555970631e-07
7.03255504377e-08
4.18937567673e-08
5.67327740169e-06
5.61298206122e-06
4.8597954255e-06
4.0337799109e-06
3.43216306947e-06
3.12650123005e-06
3.00948767975e-06
2.89950572583e-06
2.68386708558e-06
2.36915411508e-06
2.01127475765e-06
1.65716760076e-06
1.33835712459e-06
1.06316780928e-06
8.14154369524e-07
5.67403331394e-07
3.36367073819e-07
1.6976669671e-07
8.2286829719e-08
4.61242541838e-08
5.24109384392e-06
5.42801381993e-06
4.78367244429e-06
3.9988316313e-06
3.45155199453e-06
3.17641690764e-06
3.04239202686e-06
2.89684341608e-06
2.66263218052e-06
2.35053146805e-06
2.00433293893e-06
1.66274833222e-06
1.35617655682e-06
1.09184818627e-06
8.48696597564e-07
5.98229464875e-07
3.54779266462e-07
1.76610620605e-07
8.38161973849e-08
4.62899235684e-08
5.10721271069e-06
5.33485891211e-06
4.62510464833e-06
3.86686639515e-06
3.40428749895e-06
3.16477862037e-06
3.00516148454e-06
2.818096028e-06
2.56268237203e-06
2.2538718654e-06
1.92366868614e-06
1.60513035512e-06
1.32272250691e-06
1.07627753741e-06
8.38935342818e-07
5.83557815589e-07
3.35778643407e-07
1.62079593462e-07
7.64224455849e-08
4.33649047975e-08
5.16562625284e-06
5.10055826093e-06
4.18568753078e-06
3.53655134106e-06
3.23761173331e-06
3.06540377669e-06
2.88976694624e-06
2.67009249861e-06
2.40252738708e-06
2.10391276664e-06
1.79875627972e-06
1.51398657506e-06
1.26342717514e-06
1.03549861434e-06
7.9846195556e-07
5.34564380897e-07
2.91104157977e-07
1.35623292579e-07
6.51518929589e-08
3.94828700652e-08
5.31978666814e-06
4.93042811292e-06
3.81956241849e-06
3.15315322713e-06
2.94890675628e-06
2.86096265646e-06
2.7039395842e-06
2.47947967871e-06
2.21719929675e-06
1.93974332922e-06
1.66932719679e-06
1.4237210178e-06
1.20299930118e-06
9.84425460373e-07
7.36286496003e-07
4.63110033857e-07
2.36149588248e-07
1.07940285759e-07
5.47276077601e-08
3.6403739436e-08
5.67293411787e-06
4.93893562651e-06
3.65657584808e-06
2.87666560321e-06
2.62826054042e-06
2.57192086014e-06
2.46050871565e-06
2.27137931605e-06
2.04095520146e-06
1.79962485852e-06
1.56939674772e-06
1.35850869467e-06
1.15429976874e-06
9.27180673069e-07
6.57890663121e-07
3.84415385472e-07
1.86093332156e-07
8.64626239226e-08
4.76750776914e-08
3.50293834647e-08
6.32436620795e-06
5.50536573393e-06
4.0193808287e-06
2.92660344818e-06
2.42992578111e-06
2.28159875749e-06
2.19448124334e-06
2.06758141575e-06
1.89795299064e-06
1.70710873789e-06
1.51503381821e-06
1.32372807372e-06
1.1136458469e-06
8.60838261816e-07
5.7407228759e-07
3.1605812785e-07
1.50796494761e-07
7.38494876531e-08
4.45837478327e-08
3.56466283873e-08
7.00141616942e-06
6.16034026575e-06
4.69192190631e-06
3.35151876602e-06
2.48156441393e-06
2.09112731664e-06
1.95644849136e-06
1.88840339005e-06
1.7987277784e-06
1.66606472606e-06
1.50035242974e-06
1.30518272119e-06
1.06948703158e-06
7.90846887537e-07
5.02685069352e-07
2.70442288912e-07
1.32778293777e-07
6.96692949377e-08
4.53277261338e-08
3.82901615162e-08
7.50743742999e-06
6.55544892644e-06
5.15594122007e-06
3.77977458589e-06
2.69690372043e-06
2.06381205338e-06
1.8164245856e-06
1.76868851058e-06
1.74875555863e-06
1.6624760617e-06
1.50171112146e-06
1.28540852416e-06
1.02382139825e-06
7.33646993014e-07
4.58648663908e-07
2.51828828471e-07
1.30954509553e-07
7.31216499966e-08
4.95991091639e-08
4.25044573278e-08
7.53302134714e-06
6.55065524217e-06
5.22226143211e-06
3.90637764394e-06
2.80783834149e-06
2.08830151579e-06
1.77288684824e-06
1.72846088821e-06
1.74744566246e-06
1.67820232618e-06
1.50463593783e-06
1.26719278086e-06
9.93215647075e-07
7.06939471822e-07
4.48773634516e-07
2.58091818331e-07
1.42829614173e-07
8.34472309978e-08
5.73486910084e-08
4.81777937539e-08
7.08288789333e-06
6.15497314896e-06
4.93062992816e-06
3.73394098997e-06
2.74004301637e-06
2.08039737589e-06
1.78973173866e-06
1.76545332194e-06
1.79260461461e-06
1.70803758453e-06
1.5133381974e-06
1.26367605973e-06
9.891668927e-07
7.14016759561e-07
4.6999770045e-07
2.87226278799e-07
1.6929606342e-07
1.02214961138e-07
6.97537510382e-08
5.61531040373e-08
6.40846658342e-06
5.61707715073e-06
4.53895009065e-06
3.48057119299e-06
2.62890271699e-06
2.0904854631e-06
1.87588728164e-06
1.87384853898e-06
1.87316443396e-06
1.74997348534e-06
1.53422107142e-06
1.27907534324e-06
1.01266777212e-06
7.51599413058e-07
5.2074458114e-07
3.41651099104e-07
2.14139352643e-07
1.32968418145e-07
8.92837050319e-08
6.82565683397e-08
5.9330818157e-06
5.29612889833e-06
4.33208577081e-06
3.36811023564e-06
2.62669421398e-06
2.19209829747e-06
2.03540148122e-06
2.02129258072e-06
1.97007260758e-06
1.80768905429e-06
1.57299453526e-06
1.31587668993e-06
1.05979185109e-06
8.16369918325e-07
6.02785865866e-07
4.25331613637e-07
2.83303819028e-07
1.81490027699e-07
1.20139205613e-07
8.76404716454e-08
5.88346405614e-06
5.31541744823e-06
4.3886692441e-06
3.45060665464e-06
2.75307052898e-06
2.360419774e-06
2.21671132231e-06
2.17798620393e-06
2.08744854447e-06
1.89152952858e-06
1.63478799567e-06
1.37112511034e-06
1.12642204061e-06
9.09125898568e-07
7.17206106675e-07
5.41309382247e-07
3.83276791986e-07
2.55408658917e-07
1.68627914973e-07
1.1858027476e-07
6.16524388395e-06
5.53029623113e-06
4.55470972052e-06
3.60978437701e-06
2.90701312941e-06
2.51712947013e-06
2.37496702632e-06
2.32860351655e-06
2.21837463793e-06
1.99090933459e-06
1.70802802515e-06
1.44044758842e-06
1.21510868864e-06
1.02818497808e-06
8.57909633035e-07
6.86907354283e-07
5.16218054875e-07
3.6091548113e-07
2.41708362854e-07
1.66128717833e-07
6.1882478745e-06
5.43557031127e-06
4.46365722758e-06
3.58123864376e-06
2.93502674275e-06
2.57341591123e-06
2.45095320756e-06
2.42391441733e-06
2.31372087259e-06
2.06759918277e-06
1.77725186961e-06
1.52151131885e-06
1.31826765486e-06
1.15675057266e-06
1.00798331375e-06
8.48391503854e-07
6.73415420704e-07
4.96089840653e-07
3.4268830964e-07
2.34263052197e-07
5.56732201138e-06
4.97110013756e-06
4.16787787035e-06
3.43919026821e-06
2.89803097242e-06
2.58027069945e-06
2.46425556745e-06
2.4408970278e-06
2.34179235704e-06
2.1041703747e-06
1.83254626927e-06
1.59698422282e-06
1.4120213077e-06
1.27106838035e-06
1.14512809258e-06
1.00401615514e-06
8.35736913908e-07
6.47581644691e-07
4.66285914345e-07
3.22717874927e-07
4.92965685432e-06
4.65165498614e-06
3.97538141736e-06
3.32506321483e-06
2.85629889591e-06
2.58744400928e-06
2.47781930175e-06
2.42807647164e-06
2.31788126188e-06
2.10405135938e-06
1.86063760675e-06
1.64720447034e-06
1.48140009589e-06
1.36042727431e-06
1.25756299833e-06
1.13847228818e-06
9.85288804647e-07
7.9825352935e-07
6.00393667451e-07
4.26228320088e-07
4.68649245775e-06
4.58992466242e-06
3.94833852399e-06
3.28709329095e-06
2.843670769e-06
2.60381550943e-06
2.4855972578e-06
2.39598426161e-06
2.26058665194e-06
2.06147337825e-06
1.84996503876e-06
1.66687484874e-06
1.52769275608e-06
1.43030890662e-06
1.34959427178e-06
1.25119250438e-06
1.11498150332e-06
9.35830507746e-07
7.31995643798e-07
5.36136070625e-07
4.86881932524e-06
4.82078903326e-06
3.99665430702e-06
3.22360052635e-06
2.80031279952e-06
2.59367190878e-06
2.46073106257e-06
2.33208105547e-06
2.17453866947e-06
1.99061352734e-06
1.81538957139e-06
1.66989866485e-06
1.56458063066e-06
1.49475847925e-06
1.43497103218e-06
1.3535815705e-06
1.23062018838e-06
1.05766985064e-06
8.5170923892e-07
6.40219462284e-07
5.3743612442e-06
5.16086594329e-06
3.9900463666e-06
3.07487060798e-06
2.68655542311e-06
2.52277293947e-06
2.38381200414e-06
2.23417108947e-06
2.07243695215e-06
1.91618696274e-06
1.7808215148e-06
1.67668751339e-06
1.60873616169e-06
1.56711153222e-06
1.52549673534e-06
1.45579691846e-06
1.33714649673e-06
1.16345528389e-06
9.53921768776e-07
7.25964273101e-07
5.77425070722e-06
5.3258770128e-06
3.97725281634e-06
2.92767396771e-06
2.52009401598e-06
2.38127669576e-06
2.25331894573e-06
2.10965394501e-06
1.9727491034e-06
1.85593571892e-06
1.76447589867e-06
1.70390734924e-06
1.67309343034e-06
1.65634850771e-06
1.62658120291e-06
1.55633908209e-06
1.42863339189e-06
1.24785862526e-06
1.02772101478e-06
7.74259518183e-07
5.94030936687e-06
5.29272759332e-06
4.02734353477e-06
2.87772132553e-06
2.33437288685e-06
2.18570131666e-06
2.09121232385e-06
1.98650144235e-06
1.8925786557e-06
1.82125257179e-06
1.77641352744e-06
1.75916772986e-06
1.76071577269e-06
1.75852809411e-06
1.72396550154e-06
1.63608469177e-06
1.49083818797e-06
1.29567302826e-06
1.04314816127e-06
7.63183051994e-07
5.90099258828e-06
5.12163104214e-06
3.97442086383e-06
2.88973020952e-06
2.26573167539e-06
2.05909598582e-06
1.97535360149e-06
1.905982815e-06
1.85272522918e-06
1.82409001609e-06
1.82168349723e-06
1.83899148622e-06
1.85574379238e-06
1.84497875278e-06
1.78648480343e-06
1.67246805332e-06
1.50248043908e-06
1.26409301601e-06
9.69833807976e-07
6.9172723159e-07
5.61102381934e-06
4.86148271413e-06
3.84778924445e-06
2.89759678769e-06
2.29611323026e-06
2.05278252789e-06
1.95377076113e-06
1.89573714458e-06
1.86662065636e-06
1.86687844863e-06
1.88947826545e-06
1.91554261573e-06
1.91853234049e-06
1.87942566494e-06
1.78861036371e-06
1.63802202198e-06
1.41281447632e-06
1.12466567631e-06
8.32534821888e-07
5.73153561249e-07
5.39351943365e-06
4.67687294522e-06
3.76608672343e-06
2.93095763107e-06
2.38898786139e-06
2.13547081976e-06
2.0129297245e-06
1.94627274064e-06
1.91952615585e-06
1.92272110211e-06
1.93851485803e-06
1.94188225206e-06
1.91120031972e-06
1.83371035417e-06
1.69599782208e-06
1.48553741035e-06
1.21893455814e-06
9.38574648499e-07
6.70306152381e-07
4.27066231346e-07
5.39359880528e-06
4.73688262809e-06
3.86480983205e-06
3.04677112868e-06
2.52298644691e-06
2.25650513866e-06
2.1080270522e-06
2.01601760454e-06
1.96398961357e-06
1.93789736312e-06
1.91725486924e-06
1.87753076961e-06
1.80227212056e-06
1.67901301892e-06
1.49611427185e-06
1.26524639558e-06
1.01616171832e-06
7.60287243073e-07
5.04295996459e-07
2.78575047777e-07
5.88964601053e-06
5.24611515493e-06
4.19291451727e-06
3.28108375884e-06
2.7312262284e-06
2.42959564651e-06
2.22793295005e-06
2.07454171543e-06
1.96112227497e-06
1.87662156481e-06
1.80110868536e-06
1.71469477874e-06
1.60557620891e-06
1.4658017001e-06
1.29023783252e-06
1.0797848049e-06
8.53276886214e-07
5.99706674795e-07
3.4376635685e-07
1.52317591724e-07
6.34246106705e-06
5.58141772064e-06
4.4945435931e-06
3.58266973451e-06
3.00932399264e-06
2.66441235515e-06
2.39771359619e-06
2.15429069856e-06
1.94415359321e-06
1.77566132724e-06
1.64161001381e-06
1.5249875943e-06
1.41066726652e-06
1.28760165475e-06
1.14281232233e-06
9.57050900182e-07
7.22264290311e-07
4.42777707164e-07
2.02401420365e-07
7.15703654045e-08
6.02109533843e-06
5.45682653801e-06
4.54670107832e-06
3.77133012755e-06
3.24738538329e-06
2.90973685943e-06
2.6239902386e-06
2.3070391863e-06
1.98847935973e-06
1.71733393066e-06
1.51539764799e-06
1.37433294674e-06
1.27001151328e-06
1.17584792945e-06
1.05669256669e-06
8.69746478707e-07
5.89451336984e-07
2.89793422613e-07
1.05584567533e-07
3.35591333725e-08
5.55192188404e-06
5.23796505389e-06
4.49383479353e-06
3.83594840631e-06
3.39141369008e-06
3.09921327251e-06
2.84450188638e-06
2.52829132636e-06
2.12159515429e-06
1.74313443782e-06
1.45527249261e-06
1.27519804295e-06
1.18085377104e-06
1.11233452138e-06
9.95544679407e-07
7.68982307281e-07
4.41804798416e-07
1.73762520258e-07
5.74061512374e-08
1.82269535838e-08
5.15805560033e-06
4.95944951986e-06
4.33425060523e-06
3.78630425771e-06
3.43618778719e-06
3.21134415861e-06
2.99775773748e-06
2.69975623257e-06
2.28248742168e-06
1.82166844569e-06
1.44598717948e-06
1.21532569732e-06
1.12146008081e-06
1.06526012957e-06
9.28018598877e-07
6.49036677991e-07
3.09784363736e-07
1.08939330301e-07
3.79559265667e-08
1.1577300567e-08
4.80470902669e-06
4.63246384469e-06
4.09284387298e-06
3.65855426937e-06
3.41779069772e-06
3.26849802962e-06
3.0931551976e-06
2.80487896686e-06
2.3790403321e-06
1.88903848746e-06
1.45350725774e-06
1.17820794725e-06
1.07821632474e-06
1.02072780929e-06
8.52723919369e-07
5.30951914867e-07
2.19097079415e-07
7.8720649902e-08
2.95855346379e-08
8.27824003482e-09
4.54087963639e-06
4.35427961311e-06
3.83779876171e-06
3.47949022781e-06
3.34218698294e-06
3.27072628406e-06
3.13352601015e-06
2.85254501012e-06
2.41837281401e-06
1.91134728423e-06
1.4491251043e-06
1.15321732336e-06
1.04732136486e-06
9.79308628935e-07
7.78933237865e-07
4.33230006155e-07
1.67338403174e-07
6.63336559336e-08
2.62226609158e-08
7.53667041105e-09
4.5594387725e-06
4.29314550696e-06
3.60816437071e-06
3.24339385314e-06
3.20376749376e-06
3.21293925091e-06
3.11123016912e-06
2.83636497235e-06
2.39956048926e-06
1.89059709185e-06
1.42803334103e-06
1.13491070999e-06
1.02726186052e-06
9.44213720668e-07
7.1654454987e-07
3.65029451247e-07
1.42838136873e-07
6.28826020162e-08
2.65971291128e-08
8.90770001403e-09
2.74586939156e-08
3.10575264033e-08
4.08419271878e-08
5.68448641126e-08
7.74244725429e-08
1.00476391073e-07
1.2409183929e-07
1.46066897836e-07
1.63959253884e-07
1.76673352165e-07
1.88312716717e-07
2.02678473835e-07
1.97146169251e-07
1.24987049519e-07
7.78359293986e-08
1.5398401106e-08
2.30603266658e-07
2.71446129258e-06
3.4458008882e-06
3.91384042656e-06
2.9855962139e-08
3.11690228579e-08
3.81037327839e-08
5.06028033917e-08
6.80596169377e-08
8.91175345538e-08
1.11726473772e-07
1.33486196035e-07
1.53342485714e-07
1.73917989623e-07
1.96520406376e-07
1.96566964287e-07
1.40650851952e-07
9.80370495371e-08
8.35634727901e-08
1.23600279164e-08
1.33117814469e-07
2.60894513537e-06
3.44313361746e-06
3.71037737539e-06
3.24521694489e-08
3.1835882327e-08
3.70885002086e-08
4.78174809627e-08
6.37347979213e-08
8.36849737344e-08
1.05660968029e-07
1.2837981117e-07
1.52599231963e-07
1.72290252968e-07
1.60848067149e-07
1.04664777686e-07
8.18267908418e-08
7.42399432411e-08
5.97507848836e-08
1.31553361478e-08
1.7162085929e-07
2.82994927408e-06
3.56527400612e-06
3.64364565075e-06
3.40022212321e-08
3.23779865181e-08
3.70518664653e-08
4.73637130009e-08
6.3001003787e-08
8.28326105855e-08
1.05562175125e-07
1.30807434877e-07
1.51530863026e-07
1.50685070358e-07
1.11907090622e-07
8.21159657889e-08
8.61405337623e-08
7.9051982455e-08
1.08863410247e-08
1.83285841692e-08
1.35269181877e-06
3.49132712989e-06
3.84284056225e-06
3.69440406834e-06
3.40837889467e-08
3.27239517437e-08
3.78960323876e-08
4.897035688e-08
6.55265461217e-08
8.65626923862e-08
1.11665912211e-07
1.37104607914e-07
1.38293767626e-07
1.1142897669e-07
8.68731772062e-08
9.57490089719e-08
8.99966201847e-08
7.79954206835e-08
1.44169504159e-08
2.10515338858e-08
1.64303946162e-06
3.96115106587e-06
4.25676173262e-06
3.83470074162e-06
3.3290346791e-08
3.32591971223e-08
3.98803452057e-08
5.27815895288e-08
7.12858960531e-08
9.46007462786e-08
1.19888363453e-07
1.19116835189e-07
9.84936929872e-08
9.15506246374e-08
9.81648091812e-08
9.68988965577e-08
8.38848175515e-08
6.80310969123e-08
1.277098202e-08
3.50011875771e-08
2.37959538667e-06
4.81553206342e-06
4.93030139043e-06
4.13745524537e-06
3.25525889236e-08
3.45104983789e-08
4.33611406431e-08
5.87882626754e-08
7.94920098196e-08
1.03261657936e-07
1.10134225977e-07
8.07820271418e-08
8.82270594266e-08
9.84920898586e-08
9.87435610906e-08
8.70909387167e-08
6.50543905539e-08
4.04509014662e-08
8.53601680632e-09
1.96026350819e-07
4.06446988747e-06
6.15481049897e-06
5.98776081495e-06
4.7061451181e-06
3.2629212214e-08
3.69181575059e-08
4.83853978155e-08
6.60300028916e-08
8.65876771417e-08
9.62487990617e-08
6.3087702463e-08
7.13492288696e-08
9.43724421685e-08
1.0254876494e-07
9.75854610595e-08
8.298823942e-08
6.14189281032e-08
1.32974399406e-08
1.48082931096e-08
1.33623518369e-06
6.11125494033e-06
7.93707072498e-06
7.52548581071e-06
5.63877754601e-06
3.39609165284e-08
4.05731161876e-08
5.40549674513e-08
7.13082278543e-08
8.12738758013e-08
5.83242422639e-08
4.01068630649e-08
7.28119553706e-08
9.45377859426e-08
9.91840589299e-08
9.04188339465e-08
7.21547048594e-08
4.639457548e-08
9.80590156237e-09
5.36298114408e-08
3.67575289804e-06
8.22202040222e-06
9.98290211403e-06
9.49797311078e-06
7.01452398198e-06
3.6640338454e-08
4.4830656181e-08
5.78733802373e-08
6.7614116065e-08
5.70422535758e-08
2.90652522932e-08
3.60661795716e-08
6.63775432832e-08
8.72966469469e-08
9.19711595612e-08
8.25740662643e-08
6.24813799679e-08
2.41796914418e-08
9.1531222993e-09
1.32158973213e-07
5.07213568014e-06
9.24497452284e-06
1.14285222778e-05
1.15258125329e-05
8.88449623519e-06
4.02264210514e-08
4.79570331334e-08
5.63881274167e-08
5.53074470567e-08
3.90317792292e-08
2.38741582444e-08
3.11348609143e-08
5.53604329353e-08
7.563298043e-08
8.16931088735e-08
7.22635365581e-08
5.12254038455e-08
1.60212431274e-08
1.22915911814e-08
2.97827343961e-07
4.8934517978e-06
9.17507776761e-06
1.21461013217e-05
1.35778019512e-05
1.15675066786e-05
4.36557223116e-08
4.87038786354e-08
5.15774717977e-08
4.58082247205e-08
3.27007383828e-08
2.34246852566e-08
2.66608645984e-08
4.39118009812e-08
6.19903245452e-08
6.95980312866e-08
6.30786321099e-08
3.28953921945e-08
1.58213836439e-08
1.85939097682e-08
5.87899907597e-07
4.01761060242e-06
8.18459571912e-06
1.1874618131e-05
1.53142236886e-05
1.54776390374e-05
4.68890987147e-08
4.8464349073e-08
4.78964879642e-08
4.18592487455e-08
3.19352960077e-08
2.44523614781e-08
2.43293544647e-08
3.3839625749e-08
4.8377278818e-08
5.54619798727e-08
4.95557023385e-08
2.44393546716e-08
1.53716102793e-08
3.72712572679e-08
6.25742643961e-07
3.05053467055e-06
6.66104895323e-06
1.0395717726e-05
1.5782881216e-05
2.06515735211e-05
5.11129579911e-08
4.94172928196e-08
4.70438376336e-08
4.18130969172e-08
3.38185258177e-08
2.65318307722e-08
2.39015093498e-08
2.73834838349e-08
3.682609311e-08
4.29799667057e-08
3.54730914773e-08
2.02961308982e-08
2.23439414154e-08
1.83999113601e-07
5.59607963003e-07
2.28553002378e-06
5.19062378535e-06
8.09762064635e-06
1.34885398966e-05
2.4486761935e-05
5.83118940589e-08
5.32079971212e-08
4.91199719134e-08
4.41553961365e-08
3.73518443601e-08
2.9922003242e-08
2.51365745673e-08
2.474256668e-08
2.86321684273e-08
3.24332893787e-08
2.80338245644e-08
1.95298959576e-08
7.78878248126e-08
2.64389874535e-07
5.22244947275e-07
1.76131438757e-06
4.03565590134e-06
6.04849334898e-06
8.56175310307e-06
1.90140760512e-05
7.07657324547e-08
6.11804570779e-08
5.43992842508e-08
4.84687247596e-08
4.20798582633e-08
3.47427151782e-08
2.82160856228e-08
2.48480362719e-08
2.47359802392e-08
2.54802526173e-08
2.42432017254e-08
3.19061639475e-08
2.16679208142e-07
2.94925705371e-07
5.16404657166e-07
1.41748788934e-06
3.10161952685e-06
4.40430778903e-06
3.27694942838e-06
1.14547681952e-05
9.11535740057e-08
7.49771485105e-08
6.3917340593e-08
5.54779153147e-08
4.81700698706e-08
4.07846490442e-08
3.31528668274e-08
2.7265921125e-08
2.40248593673e-08
2.24789500648e-08
2.44651843856e-08
6.85027766883e-08
2.57156648018e-07
3.27073921311e-07
5.38188143527e-07
1.22570015508e-06
2.49332656049e-06
3.67328772868e-06
1.01579107254e-06
3.75511308218e-06
1.22700011929e-07
9.6706231448e-08
7.91826948948e-08
6.64534613312e-08
5.65032721455e-08
4.78970920968e-08
3.95154659043e-08
3.16934246532e-08
2.5734729175e-08
2.34998450835e-08
2.81375005559e-08
1.48047169548e-07
2.86832126523e-07
3.73570193952e-07
5.82673834556e-07
1.13116774281e-06
2.11677675282e-06
3.08064544577e-06
5.6666832281e-07
1.0697021158e-06
1.68286949738e-07
1.28300336904e-07
1.01535640332e-07
8.23993001663e-08
6.78712562693e-08
5.62233454034e-08
4.61823934413e-08
3.69814801239e-08
2.91957633821e-08
2.79116818385e-08
3.65885992881e-08
2.24461926844e-07
3.28698417545e-07
4.38314876043e-07
6.42773572579e-07
1.08383218378e-06
1.85673174879e-06
2.64178304824e-06
3.84230506909e-07
5.45602942316e-07
2.28624482102e-07
1.7033201356e-07
1.31277822643e-07
1.03298728299e-07
8.21303064625e-08
6.55782853888e-08
5.22315689632e-08
4.12020554525e-08
3.31790353723e-08
3.20708199127e-08
4.89490092814e-08
2.9106347618e-07
3.89084770835e-07
5.17227899662e-07
7.05973206274e-07
1.04820899337e-06
1.64842093266e-06
2.3533502405e-06
3.38444067568e-07
4.43367414344e-07
3.01455048571e-07
2.21283567292e-07
1.67056785878e-07
1.27809056162e-07
9.80447406142e-08
7.50978189401e-08
5.7463794765e-08
4.41815744977e-08
3.6044593466e-08
3.46434357212e-08
6.59836125675e-08
3.56766345099e-07
4.65853059129e-07
5.99520117069e-07
7.59218995185e-07
1.01828465165e-06
1.516652729e-06
2.20433888414e-06
3.14932293295e-07
3.93183055992e-07
3.81896817743e-07
2.77743668243e-07
2.06092463574e-07
1.53380218453e-07
1.13338581267e-07
8.31940517959e-08
6.11752041134e-08
4.59306402412e-08
3.78119168718e-08
3.72485541335e-08
9.91542671648e-08
4.2773111778e-07
5.50282119122e-07
6.73266697645e-07
8.01064722228e-07
1.03802973677e-06
1.53112045453e-06
1.67322138809e-06
3.23497751731e-07
3.36116106589e-07
4.59416986407e-07
3.3173205187e-07
2.42087917632e-07
1.75265578444e-07
1.24716599009e-07
8.78782329369e-08
6.24919077159e-08
4.64962199955e-08
3.91734501389e-08
4.03994072408e-08
1.12467953882e-07
5.03019359599e-07
6.30335515485e-07
7.29430747071e-07
8.5387247354e-07
1.17673741118e-06
1.70204749286e-06
2.68924114149e-07
3.38736935171e-07
4.77432999771e-07
5.20500897932e-07
3.72796621148e-07
2.67194391168e-07
1.87819264327e-07
1.28514875008e-07
8.70517376139e-08
6.05443402039e-08
4.58841011177e-08
4.07915364994e-08
4.4500221365e-08
1.04490749236e-07
5.70115280056e-07
6.98193859112e-07
7.67160708884e-07
9.45890114991e-07
1.40035220734e-06
3.31285793786e-07
2.70284399639e-07
3.64734626477e-07
9.76148489092e-07
5.49892458512e-07
3.89415461069e-07
2.7223790854e-07
1.84127601035e-07
1.20122109225e-07
7.81763223483e-08
5.44947741724e-08
4.44330876185e-08
4.37825205396e-08
5.07267191858e-08
9.10909753723e-08
5.26668512975e-07
7.34031446981e-07
7.65847736702e-07
8.77153667674e-07
2.57588710129e-07
2.49137152397e-07
3.00836430103e-07
4.1488972524e-07
8.86602723774e-07
5.3557493758e-07
3.70083502167e-07
2.47383200763e-07
1.56984975679e-07
9.56578754473e-08
6.08395081537e-08
4.64259884024e-08
4.5318427228e-08
5.15614509461e-08
6.17784526716e-08
7.58261631624e-08
1.32516075993e-07
3.01392720525e-07
1.50414759392e-07
1.17381036339e-07
1.7775104454e-07
2.56271114693e-07
3.69991775971e-07
4.57118092566e-07
8.02831353698e-07
4.71546701274e-07
3.07888376662e-07
1.88284079408e-07
1.06331021439e-07
6.05647200041e-08
4.39600522825e-08
4.54159557408e-08
5.55471837331e-08
6.71049264072e-08
7.66198554869e-08
8.62757905973e-08
9.6324403575e-08
8.65442057029e-08
8.22079144996e-08
9.20953703732e-08
1.51958217049e-07
2.88688500169e-07
4.59187571179e-07
4.67843114598e-07
7.46953988795e-07
3.64093355281e-07
2.12593065264e-07
1.09419585965e-07
5.3872214059e-08
3.7305564735e-08
4.27418521207e-08
5.66489004858e-08
6.90829635405e-08
7.6522695953e-08
8.03007172295e-08
8.41054358824e-08
8.57997788558e-08
7.49550125379e-08
6.67395228312e-08
6.94931256394e-08
1.44955514032e-07
3.4495567016e-07
5.12624778629e-07
4.9241645734e-07
6.25997760798e-07
2.37998204556e-07
1.13366277195e-07
4.75735560216e-08
2.92884627723e-08
3.61800098801e-08
5.18661556509e-08
6.48593814096e-08
7.06768729843e-08
7.25482919062e-08
7.25944517799e-08
7.2291939408e-08
7.06619701225e-08
6.22081511188e-08
5.3684188711e-08
6.41614622726e-08
1.69810827074e-07
3.71397442782e-07
5.48727763164e-07
5.42875621257e-07
6.02884877438e-07
1.25061366699e-07
4.65775085656e-08
2.23209616978e-08
2.70944312656e-08
4.35443919907e-08
5.69329675011e-08
6.36986768694e-08
6.55278243181e-08
6.44599497828e-08
6.21035968594e-08
5.9576670355e-08
5.6831377424e-08
5.13201834371e-08
4.95614491328e-08
8.45632065327e-08
2.08407571632e-07
4.11677409968e-07
5.89213476286e-07
6.07511882321e-07
6.7248553943e-07
5.39977057932e-08
1.8654964257e-08
1.78067152443e-08
3.20870779955e-08
4.62622840916e-08
5.57447307133e-08
5.93149361016e-08
5.85005368979e-08
5.54114370767e-08
5.16766154143e-08
4.84507656944e-08
4.62872084665e-08
4.4579879091e-08
5.73886301021e-08
1.18592939218e-07
2.61248225561e-07
4.51572913273e-07
6.24553189754e-07
6.64363549322e-07
7.50817745873e-07
2.24260838877e-08
1.08974778301e-08
1.95884122973e-08
3.29439913258e-08
4.5053841281e-08
5.18338218655e-08
5.29723307703e-08
5.04028210368e-08
4.63171459933e-08
4.25499811452e-08
4.03797903887e-08
4.0800740029e-08
4.56880487551e-08
7.93130942502e-08
1.70378858729e-07
3.10224579794e-07
4.7747152315e-07
6.51549461458e-07
7.22647715082e-07
8.15834566573e-07
1.03849725488e-08
9.91753641545e-09
1.92943469615e-08
3.13354173267e-08
4.12478292199e-08
4.58388327029e-08
4.53404569111e-08
4.19064551815e-08
3.79984922369e-08
3.56353002883e-08
3.63102202017e-08
4.17241352056e-08
5.74473135429e-08
1.19811089687e-07
2.27034128201e-07
3.4551512226e-07
4.89363132123e-07
6.67697095718e-07
7.96674979117e-07
9.87497087372e-07
5.65303721581e-09
8.84175601965e-09
1.75089557433e-08
2.76556593482e-08
3.55358604733e-08
3.85015062562e-08
3.70668609671e-08
3.36567378325e-08
3.10378380363e-08
3.15216199088e-08
3.74587603048e-08
5.27955748373e-08
8.78744167349e-08
1.765718888e-07
2.72745285521e-07
3.67345703302e-07
4.92550176135e-07
6.69773232353e-07
8.72905238664e-07
1.30841019707e-06
3.92582862288e-09
7.9350327761e-09
1.48984608267e-08
2.28799100835e-08
2.88814911133e-08
3.07549846829e-08
2.9088700707e-08
2.63648377555e-08
2.52786094112e-08
2.99229803896e-08
4.78005262177e-08
8.21337169761e-08
1.43425744907e-07
2.29500327951e-07
3.0280357689e-07
3.81265230681e-07
4.93900417278e-07
6.60982339789e-07
1.11886135487e-06
2.2007055074e-06
3.45328187494e-09
6.72261529195e-09
1.20052143375e-08
1.79124838781e-08
2.22749077528e-08
2.34937936957e-08
2.21886075192e-08
2.019723351e-08
2.10690785411e-08
3.22046163721e-08
7.36312316883e-08
1.3165186075e-07
1.97643129491e-07
2.64194924473e-07
3.21495280658e-07
3.93107992446e-07
4.99287775743e-07
8.02827069152e-07
1.29116439988e-06
4.85914697769e-06
3.52871447834e-09
5.63993186378e-09
9.39009315117e-09
1.34918506668e-08
1.65149351928e-08
1.73445311859e-08
1.63045176476e-08
1.55901476294e-08
1.969211515e-08
4.18444933361e-08
1.05368730186e-07
1.74242194451e-07
2.29312571168e-07
2.84910899212e-07
3.35617043342e-07
4.06156664603e-07
6.82604886352e-07
9.22878898902e-07
1.38075235037e-06
7.46505678575e-06
4.16031497632e-09
4.99595739412e-09
7.42187822193e-09
1.00760634929e-08
)
;

boundaryField
{
    emptyPatch
    {
        type            empty;
    }
    minY
    {
        type            calculated;
        value           nonuniform List<scalar> 0();
    }
    maxY
    {
        type            calculated;
        value           nonuniform List<scalar> 0();
    }
    maxX
    {
        type            nutkWallFunction;
        blending        stepwise;
        value           uniform 0;
    }
    water_to_heater
    {
        type            nutkWallFunction;
        blending        stepwise;
        value           uniform 0;
    }
    procBoundary1to0
    {
        type            processor;
        value           nonuniform List<scalar> 
41
(
4.94685920758e-06
4.35310459578e-06
3.30119991603e-06
2.91924783462e-06
3.0120982028e-06
3.10010457796e-06
3.02034277084e-06
2.74843533099e-06
2.32209492556e-06
1.83377798699e-06
1.3970580121e-06
1.12436115416e-06
1.017135125e-06
9.18426599857e-07
6.73120342797e-07
3.26118516526e-07
1.35803205813e-07
6.50419413055e-08
3.08802905177e-08
1.27168533716e-08
1.20121049867e-08
1.2531086646e-08
1.20984174414e-08
1.29769493119e-08
2.1376792249e-08
5.69043239819e-08
1.36789105313e-07
2.01766806429e-07
2.43646500104e-07
2.98523203056e-07
3.47813899258e-07
5.76972269499e-07
7.7130915076e-07
1.03990138413e-06
1.81649403835e-06
7.04167699818e-06
5.59179172375e-09
4.9437506082e-09
6.13554855095e-09
1.20121049867e-08
7.71526226939e-09
)
;
    }
    procBoundary1to3
    {
        type            processor;
        value           nonuniform List<scalar> 
41
(
2.209283726e-06
1.97594032318e-06
1.67442783356e-06
1.34313665083e-06
1.021109121e-06
7.26873683281e-07
4.70599342063e-07
2.66357202697e-07
1.35306574272e-07
6.93700526563e-08
4.09641783376e-08
2.94619458066e-08
2.55487117774e-08
6.48377280564e-06
5.97140389828e-06
5.02824019255e-06
4.07216727874e-06
3.32507998523e-06
2.88138254601e-06
2.66957827064e-06
2.66957827064e-06
2.61672777623e-08
3.23557438085e-08
4.64625576081e-08
6.78197517259e-08
9.2722838547e-08
1.18371908922e-07
1.42780078845e-07
1.63877454763e-07
1.79086133538e-07
1.86546647733e-07
1.89618562911e-07
1.95221134954e-07
2.04651771832e-07
1.82487571398e-07
1.0052192549e-07
2.73466810484e-08
1.53079530115e-07
2.78346472159e-06
3.560062545e-06
4.13383433754e-06
)
;
    }
}

