/*--------------------------------*- C++ -*----------------------------------*\
| =========                 |                                                 |
| \\      /  F ield         | OpenFOAM: The Open Source CFD Toolbox           |
|  \\    /   O peration     | Version:  2312                                  |
|   \\  /    A nd           | Website:  www.openfoam.com                      |
|    \\/     M anipulation  |                                                 |
\*---------------------------------------------------------------------------*/
FoamFile
{
    version     2.0;
    format      ascii;
    arch        "LSB;label=32;scalar=64";
    class       surfaceScalarField;
    location    "0.51/water";
    object      phi;
}
// * * * * * * * * * * * * * * * * * * * * * * * * * * * * * * * * * * * * * //

dimensions      [0 3 -1 0 0 0 0];

oriented        oriented;

internalField   nonuniform List<scalar> 
2916
(
-1.8762460315e-08
6.75383547377e-07
-3.45287368498e-08
6.84665217386e-07
-4.19852276327e-08
6.79522952802e-07
-3.76727034605e-08
6.64844340405e-07
-2.28573558175e-08
6.50226379186e-07
-7.76377604535e-10
6.40858117078e-07
2.47721286409e-08
6.37344985771e-07
5.14010592516e-08
6.36735623996e-07
7.73808686555e-08
6.36581540554e-07
1.03288307917e-07
6.34976150911e-07
1.29743312721e-07
6.31500973484e-07
1.56866261056e-07
6.26349496312e-07
6.18837969063e-07
1.85217606679e-07
2.25660424873e-07
6.4218605657e-07
2.55075003991e-07
6.27045600101e-07
2.51791516147e-07
6.48069716372e-07
2.20792601361e-07
6.57861817438e-07
1.8094234623e-07
6.62950821669e-07
1.41322681288e-07
6.75670853167e-07
1.02650838074e-07
6.9458295937e-07
6.52106493731e-08
7.12231584663e-07
3.12396874117e-08
7.18207395636e-07
7.45539789881e-09
7.02922820346e-07
-1.29228445355e-09
6.73238691359e-07
3.6025404617e-09
6.45014628098e-07
1.87859063144e-08
6.25394425723e-07
4.1220778313e-08
6.14656394588e-07
6.67140776538e-08
6.11000187915e-07
9.26466607289e-08
6.10400132591e-07
1.18587231169e-07
6.08771654021e-07
1.45186472864e-07
6.04622072737e-07
1.72836824771e-07
5.98403954343e-07
5.89436217222e-07
2.01925289035e-07
3.00352490452e-07
4.49213396269e-07
2.84506828413e-07
5.99832494252e-07
2.77532638814e-07
6.30109767709e-07
2.68615214008e-07
6.52680274252e-07
2.48890996122e-07
6.75519777353e-07
2.19822323629e-07
7.01419486227e-07
1.85539285681e-07
7.27311341726e-07
1.52541871955e-07
7.44350732847e-07
1.28264451954e-07
7.41825966349e-07
1.0529447042e-07
7.25323636936e-07
9.11717204976e-08
6.86855003879e-07
8.51056677782e-08
6.50639981414e-07
8.71540508132e-08
6.22976137948e-07
9.66152813519e-08
6.04892996429e-07
1.118910128e-07
5.95471036763e-07
1.30131564223e-07
5.91919117549e-07
1.49853327333e-07
5.88798976853e-07
1.71329248181e-07
5.82881019641e-07
1.94814615631e-07
5.7463888706e-07
5.63410454359e-07
2.20546017185e-07
1.03154943698e-07
3.7203707321e-07
1.35207238228e-07
5.42193707381e-07
1.56030890738e-07
5.92041344433e-07
1.70734180449e-07
6.28306897745e-07
1.77480522768e-07
6.63870397347e-07
1.76506606849e-07
6.99966923809e-07
1.68715045445e-07
7.33787682719e-07
1.57891296112e-07
7.5430188388e-07
1.48976381907e-07
7.50030282537e-07
1.51538064947e-07
7.22126232057e-07
1.52483749202e-07
6.85328551676e-07
1.51446415474e-07
6.5115670576e-07
1.51180864382e-07
6.22796038012e-07
1.53690566172e-07
6.0202557968e-07
1.59774893289e-07
5.89110874401e-07
1.6908729806e-07
5.82370319272e-07
1.80896286899e-07
5.76751970072e-07
1.95432779869e-07
5.68095190316e-07
2.12896474457e-07
5.56913333526e-07
5.4272694213e-07
2.33305883731e-07
5.0486397191e-08
3.42245904065e-07
6.27526180022e-08
5.13089009338e-07
7.96097213142e-08
5.63940150834e-07
9.827534063e-08
6.03341214707e-07
1.13579877285e-07
6.4524177015e-07
1.24935358374e-07
6.86796995503e-07
1.33984584361e-07
7.236054601e-07
1.4317630827e-07
7.44267947086e-07
1.5349235444e-07
7.38997018515e-07
1.70438136018e-07
7.04533491121e-07
1.79621449548e-07
6.75551299878e-07
1.8364048713e-07
6.46602471059e-07
1.8522189363e-07
6.20752583533e-07
1.86321165443e-07
6.00554186217e-07
1.88305351126e-07
5.86844885477e-07
1.92203572258e-07
5.78239991048e-07
1.9832221002e-07
5.70403541545e-07
2.07264366741e-07
5.58915342135e-07
2.19229225964e-07
5.4470309414e-07
5.27259834021e-07
2.34441059093e-07
1.64465737507e-08
3.5220437164e-07
1.17575232538e-08
5.10075930968e-07
2.33146073511e-08
5.46810613064e-07
4.33704073185e-08
5.79961495301e-07
6.3012779772e-08
6.23614146008e-07
7.97891090952e-08
6.68741054318e-07
9.81433447589e-08
7.04308340688e-07
1.20902863359e-07
7.20734430366e-07
1.49527706592e-07
7.09679270118e-07
1.73918106445e-07
6.79504458792e-07
1.86228614881e-07
6.62652210255e-07
1.92290446037e-07
6.40010280677e-07
1.9473443489e-07
6.17852297856e-07
1.95394128961e-07
5.99529758714e-07
1.95594571895e-07
5.86370882164e-07
1.96369498716e-07
5.77240763512e-07
1.99204981412e-07
5.67342014649e-07
2.04478160099e-07
5.53411907874e-07
2.12298989537e-07
5.36644125435e-07
5.16249162189e-07
2.23065748942e-07
-3.39916110782e-08
4.31029870663e-07
-6.66748126341e-08
5.52313967904e-07
-6.32377762844e-08
5.47122240519e-07
-3.05207618369e-08
5.47157404631e-07
-2.03800641194e-09
5.94199146967e-07
2.1313118671e-08
6.44506512842e-07
5.00660810827e-08
6.74795861474e-07
9.79557378612e-08
6.72154706546e-07
1.41780600234e-07
6.65209971005e-07
1.61110484567e-07
6.59573987804e-07
1.74854194723e-07
6.48351900227e-07
1.82771186785e-07
6.31593048035e-07
1.86439798069e-07
6.13759057384e-07
1.87225201591e-07
5.98412574405e-07
1.86077455984e-07
5.87271402663e-07
1.84477669294e-07
5.78622723651e-07
1.8504007823e-07
5.66559119004e-07
1.87566052431e-07
5.50658365789e-07
1.92128516178e-07
5.31850543684e-07
5.08936488767e-07
1.99202695723e-07
-1.32212225732e-07
6.09459053096e-07
-2.26830503669e-07
6.72980990489e-07
-1.49786694005e-07
4.82577188482e-07
-1.00096881484e-07
4.98834873241e-07
-5.00428139822e-08
5.43724760247e-07
4.18830264138e-09
5.89643429947e-07
5.85155006142e-08
6.19832504e-07
9.57773705649e-08
6.34291267519e-07
1.20320996048e-07
6.40097456598e-07
1.39225303202e-07
6.40134689115e-07
1.5304844339e-07
6.34034142284e-07
1.61798843768e-07
6.22405733047e-07
1.65987887121e-07
6.09211745457e-07
1.65997868415e-07
5.98132115437e-07
1.62694796092e-07
5.90359213474e-07
1.59774123073e-07
5.81330647111e-07
1.58526742605e-07
5.67585753658e-07
1.58611028557e-07
5.50352373098e-07
1.6019727418e-07
5.30037183683e-07
5.0512977948e-07
1.63773694538e-07
-8.1750278832e-08
7.64016146339e-07
-1.14332649358e-07
7.22866921726e-07
-7.83545796508e-08
4.52722092683e-07
-5.20958673102e-08
4.73047106833e-07
-2.20829622744e-08
5.13266977178e-07
1.30870251198e-08
5.5394676361e-07
4.76666160617e-08
5.84732800004e-07
7.67218725084e-08
6.04736961717e-07
9.93921457216e-08
6.16951255178e-07
1.16408060119e-07
6.22671889828e-07
1.28772532801e-07
6.21264384448e-07
1.36123318989e-07
6.14710581867e-07
1.38080534457e-07
6.06984555409e-07
1.34905363117e-07
6.01094430337e-07
1.29861187853e-07
5.9519868736e-07
1.25867016755e-07
5.85111453487e-07
1.22752250409e-07
5.70485316494e-07
1.20346714631e-07
5.52538195475e-07
1.18456203644e-07
5.31705387132e-07
5.05730095051e-07
1.17630640204e-07
-1.56115424365e-07
9.93773616655e-07
-5.44558487819e-08
6.51708769573e-07
-4.52478204021e-08
4.48512261946e-07
-2.61385958357e-08
4.54496374186e-07
-3.50910080986e-09
4.90314495252e-07
2.25716222289e-08
5.27460132092e-07
4.81654211548e-08
5.58735127685e-07
6.9616991719e-08
5.82894589069e-07
8.61664222422e-08
6.00030696279e-07
9.83381481081e-08
6.10158524383e-07
1.05874552105e-07
6.13429675798e-07
1.0786623827e-07
6.12474586605e-07
1.04443836652e-07
6.10204502393e-07
9.81063614998e-08
6.07235739619e-07
9.20572832577e-08
6.0104324535e-07
8.65865165991e-08
5.90375300061e-07
8.1181903982e-08
5.75677612346e-07
7.50897604114e-08
5.58412961018e-07
6.91254090921e-08
5.37446550252e-07
5.10762225836e-07
6.38488601537e-08
7.20381452684e-08
1.00086948141e-06
3.76315692014e-08
6.73878604176e-07
9.61522889858e-09
4.76471798293e-07
1.30823401548e-08
4.51530104415e-07
2.59180175561e-08
4.77357270229e-07
4.20879302144e-08
5.11010836791e-07
5.76215376721e-08
5.42917306388e-07
6.98162167555e-08
5.70427796249e-07
7.77946817735e-08
5.91798201282e-07
8.14649893975e-08
6.06258980482e-07
8.05260071155e-08
6.1416725878e-07
7.5421384334e-08
6.17394091354e-07
6.7679047556e-08
6.17761062255e-07
5.98872895097e-08
6.14831902111e-07
5.24751534312e-08
6.08257728476e-07
4.45932258204e-08
5.98055132226e-07
3.50044457783e-08
5.85052346646e-07
2.43785860063e-08
5.68808182241e-07
1.34580739488e-08
5.4811698275e-07
5.21562468687e-07
2.40862725832e-09
1.64896589238e-07
9.36602663094e-07
1.18041093812e-07
6.88680949071e-07
7.65738626824e-08
5.10690266881e-07
6.46156477565e-08
4.62710608e-07
6.5581569053e-08
4.76256972243e-07
6.98878016022e-08
5.06529146715e-07
7.2253565018e-08
5.40374843818e-07
7.13151209486e-08
5.71196518109e-07
6.75794308565e-08
5.95366800791e-07
6.13178296012e-08
6.12355383381e-07
5.27590734679e-08
6.22553378255e-07
4.2751359486e-08
6.27227814719e-07
3.29632780427e-08
6.27363076618e-07
2.34680023027e-08
6.24137967428e-07
1.36306071908e-08
6.17899586279e-07
9.1384761233e-10
6.10558777186e-07
-1.35835108946e-08
5.99312477966e-07
-2.85557344558e-08
5.83524905978e-07
-4.46176677523e-08
5.63920506152e-07
5.40357108596e-07
-6.36712472303e-08
2.01714929912e-07
8.52156526212e-07
1.69755459283e-07
6.8107176865e-07
1.30562273388e-07
5.37257312316e-07
1.09100683422e-07
4.81483055653e-07
9.87757724611e-08
4.86116464748e-07
9.08510600525e-08
5.1429051986e-07
8.05440155847e-08
5.50542398103e-07
6.85472958629e-08
5.83045689161e-07
5.54161645141e-08
6.0834744515e-07
4.17880613713e-08
6.25821085233e-07
2.80775868641e-08
6.36100374494e-07
1.50371972177e-08
6.4009234634e-07
2.46209402196e-09
6.39758323487e-07
-9.75442870723e-09
6.3616522729e-07
-2.49537533938e-08
6.32893250588e-07
-4.24229300377e-08
6.27792547095e-07
-5.97756722568e-08
6.16409728877e-07
-7.79968551636e-08
6.01484133353e-07
-9.96889123136e-08
5.85345219044e-07
5.68181646363e-07
-1.27793774902e-07
2.08762819217e-07
7.71814691381e-07
1.97337078407e-07
6.53753851283e-07
1.63236406276e-07
5.56768515835e-07
1.35067941284e-07
5.05777319971e-07
1.14518318775e-07
5.05859006565e-07
9.61878344637e-08
5.32408449004e-07
7.7351348183e-08
5.692324626e-07
5.87730538537e-08
6.01483380331e-07
4.05442990101e-08
6.26424271848e-07
2.25322691705e-08
6.43680754805e-07
5.24220379682e-09
6.53225420555e-07
-1.13254975212e-08
6.56490213723e-07
-2.69764367077e-08
6.55229817198e-07
-4.35815492114e-08
6.52578713774e-07
-6.42532401105e-08
6.53350496599e-07
-8.27540472059e-08
6.46043074576e-07
-1.00961800817e-07
6.34359160151e-07
-1.20951719379e-07
6.21207951776e-07
-1.46132608214e-07
6.1024274664e-07
6.00420568087e-07
-1.78689833442e-07
2.01975470362e-07
7.06773906282e-07
1.93252980119e-07
6.29445239669e-07
1.60928983781e-07
5.75699536356e-07
1.29009268897e-07
5.33779389021e-07
1.02651973402e-07
5.31322910672e-07
7.90349165199e-08
5.55798042705e-07
5.66422279631e-08
5.91485463837e-07
3.52407107277e-08
6.22744276734e-07
1.43136112103e-08
6.47212326108e-07
-6.21235568849e-09
6.64054818299e-07
-2.61231626871e-08
6.72978420171e-07
-4.48565967228e-08
6.75056872476e-07
-6.3470099669e-08
6.73664475585e-07
-8.5964730642e-08
6.74894332584e-07
-1.05560834234e-07
6.72699987241e-07
-1.22156901907e-07
6.623866919e-07
-1.38649986311e-07
6.50594121981e-07
-1.56579077982e-07
6.38865884094e-07
-1.79740299191e-07
6.33096316788e-07
6.28453008421e-07
-2.08130642808e-07
1.78004525281e-07
6.73218409046e-07
1.51310478319e-07
6.30860916847e-07
1.12380461059e-07
6.0418543086e-07
7.63192268361e-08
5.66842681032e-07
4.87606932926e-08
5.5824922207e-07
2.59164775895e-08
5.78479989005e-07
6.23278428665e-09
6.11046480163e-07
-1.29335254139e-08
6.41788064908e-07
-3.25253030859e-08
6.66668310896e-07
-5.26354931916e-08
6.84028052987e-07
-7.34940764145e-08
6.93690858437e-07
-9.52446488893e-08
6.9664466988e-07
-1.18735815396e-07
6.96999776319e-07
-1.397373736e-07
6.95661912605e-07
-1.52517213727e-07
6.85230323402e-07
-1.63233806965e-07
6.72853999269e-07
-1.73778633779e-07
6.60883658951e-07
-1.85393323503e-07
6.50207532726e-07
-1.99995555793e-07
6.47374039514e-07
6.4496952812e-07
-2.16888127296e-07
1.55978449185e-07
6.68771622374e-07
1.03804825236e-07
6.64538896438e-07
5.11598946132e-08
6.50247171403e-07
4.25257039844e-09
6.12286796978e-07
-2.71822885222e-08
5.89507411717e-07
-4.73496967374e-08
5.98605560678e-07
-6.08170650627e-08
6.24433768111e-07
-7.43317824946e-08
6.55187813235e-07
-9.19012324662e-08
6.84115258743e-07
-1.15399262472e-07
7.0739166009e-07
-1.42008281451e-07
7.20135282985e-07
-1.69013415048e-07
7.23478871627e-07
-1.90597016666e-07
7.18351770319e-07
-1.98692396745e-07
7.03504076744e-07
-2.00489123842e-07
6.86778278391e-07
-2.01170981307e-07
6.73292096341e-07
-2.02134232688e-07
6.61597464368e-07
-2.03767324847e-07
6.51570467296e-07
-2.06450667272e-07
6.49732190056e-07
6.48568431348e-07
-2.10428243731e-07
1.55282610819e-07
6.7787366803e-07
1.07802203374e-07
7.01405330121e-07
6.2256351231e-08
6.91908478998e-07
1.25488509257e-08
6.60549312835e-07
-2.96616327595e-08
6.31282070881e-07
-5.86128510229e-08
6.27407067466e-07
-7.94319699378e-08
6.45118575253e-07
-1.0065933105e-07
6.76255078298e-07
-1.30812356447e-07
7.14087095334e-07
-1.69864568375e-07
7.46209511432e-07
-2.07507467829e-07
7.57540745015e-07
-2.32485312591e-07
7.48183820192e-07
-2.40018410793e-07
7.25603167725e-07
-2.35751097577e-07
6.98968577563e-07
-2.27410112413e-07
6.78187363673e-07
-2.18101074211e-07
6.63743335313e-07
-2.09830557326e-07
6.53086168095e-07
-2.02309418291e-07
6.43791254954e-07
-1.94710814098e-07
6.41818467083e-07
6.4208739321e-07
-1.88604393188e-07
2.31876258058e-07
6.17439251706e-07
2.38319766737e-07
6.6796990171e-07
2.21591483076e-07
6.9020866996e-07
1.73123302743e-07
6.98654304316e-07
1.10921279417e-07
6.88519048854e-07
5.20000695708e-08
6.84275533611e-07
-2.42600492559e-09
6.98743027419e-07
-5.75174236095e-08
7.30965006511e-07
-1.16514323555e-07
7.72784785364e-07
-1.72402836737e-07
8.01795739355e-07
-2.07589009047e-07
7.92397844682e-07
-2.17798416046e-07
7.58053332432e-07
-2.15675113105e-07
7.23151008313e-07
-2.09710923586e-07
6.92704068522e-07
-2.01281126656e-07
6.69490507816e-07
-1.90370847576e-07
6.52593013579e-07
-1.79530213654e-07
6.42015182453e-07
-1.69639424339e-07
6.33660186717e-07
-1.58100765246e-07
6.29988406131e-07
6.31032042042e-07
-1.47408331858e-07
2.77024269672e-07
4.62577535705e-07
2.90876777101e-07
6.15201756054e-07
3.00488263614e-07
6.56649110711e-07
2.95570601745e-07
6.89806575851e-07
2.55808671959e-07
7.21148479951e-07
1.8753064486e-07
7.49233845242e-07
1.04568203574e-07
7.80284793184e-07
1.95871384405e-08
8.15270843584e-07
-5.35019323186e-08
8.45397820892e-07
-1.10003934207e-07
8.57866590284e-07
-1.24796810321e-07
8.06764110114e-07
-1.21942365041e-07
7.54777947885e-07
-1.19238047376e-07
7.20048621762e-07
-1.18318105881e-07
6.91422221002e-07
-1.1712930277e-07
6.67988791029e-07
-1.14126188086e-07
6.49329706978e-07
-1.0938210139e-07
6.37045375625e-07
-1.04637803483e-07
6.28689790545e-07
-9.71657059615e-08
6.22252597753e-07
6.2149551487e-07
-8.79726903847e-08
1.35613613189e-07
4.06845759823e-07
1.61867435289e-07
5.58734960835e-07
1.83702296864e-07
6.16291545448e-07
1.93367142965e-07
6.7005862403e-07
1.81163996605e-07
7.2824067728e-07
1.50079230536e-07
7.77865690228e-07
1.04946635951e-07
8.24240207534e-07
5.9080796859e-08
8.60469663262e-07
2.5096492602e-08
8.78873912525e-07
2.87285266557e-09
8.79617171066e-07
4.59738025467e-09
8.04568113313e-07
7.11253787703e-09
7.51793236351e-07
5.48186385838e-09
7.21232072109e-07
4.25812524675e-10
6.96069131299e-07
-6.1766114605e-09
6.74237601416e-07
-1.26068109924e-08
6.55472896475e-07
-1.73516545092e-08
6.4156068372e-07
-2.07441337598e-08
6.3186337796e-07
-2.09252885418e-08
6.22188590099e-07
6.17454795513e-07
-1.72044943933e-08
9.28691108129e-08
3.93053913208e-07
9.71357466139e-08
5.30669559293e-07
1.10100327193e-07
5.9048574196e-07
1.18565532075e-07
6.54975066896e-07
1.11819316765e-07
7.31637521283e-07
9.43266068352e-08
7.93709688636e-07
7.17832402039e-08
8.4591183091e-07
5.49410122739e-08
8.76736993893e-07
5.42254526267e-08
8.79104027459e-07
8.62124807241e-08
8.47155690799e-07
1.12415328004e-07
7.77880825441e-07
1.16599695124e-07
7.47128081387e-07
1.13417264841e-07
7.23956076542e-07
1.05836585442e-07
7.03230160129e-07
9.58091183348e-08
6.83902287343e-07
8.48706920246e-08
6.66118146697e-07
7.44119925472e-08
6.51788879784e-07
6.51933045179e-08
6.40866846113e-07
5.93335024059e-08
6.27814113917e-07
6.19466785509e-07
5.70218187449e-08
6.46158952803e-08
4.11215923508e-07
5.36047492447e-08
5.27366653512e-07
6.32501930172e-08
5.74592288994e-07
6.87119051383e-08
6.45687849335e-07
6.10963283718e-08
7.37113706267e-07
4.32848200299e-08
8.10407139931e-07
2.62719928221e-08
8.62279317385e-07
2.47547233044e-08
8.77756656708e-07
7.93456854564e-08
8.2404640948e-07
1.56163768076e-07
7.69860017495e-07
1.81955799106e-07
7.51610568161e-07
1.91776727224e-07
7.36834637592e-07
1.92263729031e-07
7.23018349222e-07
1.8692423102e-07
7.08158243917e-07
1.78057932129e-07
6.92415532144e-07
1.67055990767e-07
6.76838480953e-07
1.5481942471e-07
6.63804750522e-07
1.43490259329e-07
6.51983959121e-07
1.35570239462e-07
6.35507022436e-07
6.25587111238e-07
1.291590761e-07
2.42496573609e-08
4.92534715813e-07
-9.75258897549e-10
5.54990944015e-07
1.66024563944e-08
5.56964198373e-07
2.72160548519e-08
6.33230636294e-07
2.43655089948e-08
7.38629564265e-07
1.31256763289e-08
8.20839175838e-07
1.50519572304e-08
8.59812800726e-07
8.30123627146e-08
8.09330409876e-07
1.55622730173e-07
7.50977428262e-07
1.91762113383e-07
7.33272055013e-07
2.17495424888e-07
7.25435827155e-07
2.32897449841e-07
7.21001105949e-07
2.40303907928e-07
7.15203995733e-07
2.41542158661e-07
7.0655378249e-07
2.37908751901e-07
6.95743773532e-07
2.29707262932e-07
6.84802159125e-07
2.19026922615e-07
6.74283182555e-07
2.10595178078e-07
6.6020286731e-07
2.04435278298e-07
6.41441746262e-07
6.34427770889e-07
1.95297652392e-07
-6.61093206204e-08
6.73463373913e-07
-8.41160635758e-08
5.88670016058e-07
-7.30903398461e-08
5.52737052295e-07
-3.88565424101e-08
5.99993173552e-07
-6.5732489331e-09
7.05827040124e-07
2.38795509254e-08
7.89818103567e-07
9.29939983256e-08
7.90194009096e-07
1.53062143985e-07
7.4880764759e-07
1.86537451654e-07
7.1707743158e-07
2.15405453101e-07
7.04001983432e-07
2.38049922139e-07
7.02406169716e-07
2.55424787946e-07
7.03260729895e-07
2.67722009579e-07
7.0257393972e-07
2.7436725884e-07
6.99624542735e-07
2.74664812543e-07
6.95218508867e-07
2.70608951696e-07
6.8866351846e-07
2.66669720877e-07
6.7801791263e-07
2.66119533661e-07
6.60541788087e-07
2.62390589448e-07
6.44941325831e-07
6.41648044756e-07
2.54818507694e-07
8.45738837588e-08
7.09771819812e-07
4.7472299893e-08
6.09961232581e-07
1.8695057611e-08
5.78989326374e-07
1.41786223805e-08
6.04309221495e-07
4.0042254091e-08
6.79606487659e-07
9.14324897817e-08
7.37935782221e-07
1.40166683392e-07
7.41005881378e-07
1.76663207222e-07
7.11896847854e-07
2.04738208838e-07
6.88625202134e-07
2.27994040485e-07
6.80399605915e-07
2.48610987994e-07
6.81471035182e-07
2.66311889778e-07
6.85275284895e-07
2.79433836142e-07
6.89210939539e-07
2.86600347535e-07
6.92258767205e-07
2.89793282714e-07
6.91843016472e-07
2.92416598203e-07
6.85844976171e-07
2.98283330729e-07
6.71954876147e-07
3.03569128649e-07
6.5504825906e-07
3.00979677918e-07
6.47225458603e-07
6.27093088314e-07
3.15082601895e-07
1.84389880288e-07
6.59264213946e-07
1.50262578238e-07
6.14172583068e-07
1.14140052349e-07
6.05417411737e-07
8.80581410609e-08
6.27967619599e-07
9.02566698167e-08
6.76660946758e-07
1.18928076229e-07
7.08783792705e-07
1.55398327352e-07
7.04129635267e-07
1.84688154959e-07
6.82243014956e-07
2.07069705341e-07
6.65919850865e-07
2.26632288964e-07
6.60552256768e-07
2.44633990451e-07
6.6322485321e-07
2.5952339198e-07
6.70182432281e-07
2.69634089375e-07
6.78922880327e-07
2.76993323052e-07
6.84725573143e-07
2.84826414232e-07
6.83822096153e-07
2.95513688294e-07
6.74966275852e-07
3.05111378234e-07
6.6215216552e-07
3.09485449408e-07
6.50375048943e-07
3.26702770069e-07
6.29573006406e-07
5.89223706752e-07
3.64122890331e-07
1.79674268285e-07
6.25566122408e-07
1.53814881746e-07
6.12724281805e-07
1.20979884525e-07
6.2775189795e-07
8.72145267979e-08
6.58544382124e-07
8.35042475735e-08
6.79438246144e-07
1.07444531058e-07
6.84386443158e-07
1.38546304209e-07
6.72672798871e-07
1.64125822075e-07
6.56353101308e-07
1.83631378112e-07
6.46144580912e-07
1.99253406727e-07
6.4470386463e-07
2.12694433514e-07
6.49599376831e-07
2.23751428432e-07
6.58960387428e-07
2.3344009138e-07
6.69065865568e-07
2.44467409374e-07
6.73516444642e-07
2.56412008063e-07
6.71683606274e-07
2.66236420263e-07
6.64939734068e-07
2.75075575738e-07
6.53015933543e-07
2.94141026255e-07
6.30906433301e-07
3.34571588248e-07
5.88720918776e-07
5.35795183992e-07
3.87569968512e-07
1.56796274837e-07
6.20201868164e-07
1.22776466284e-07
6.24532881495e-07
7.56368640608e-08
6.6612933963e-07
3.11346095709e-08
7.00228227576e-07
2.7912797822e-08
6.81973555028e-07
5.12854500226e-08
6.60673082192e-07
8.11959462152e-08
6.42478670027e-07
1.06241921769e-07
6.31053093027e-07
1.24435981699e-07
6.27728053452e-07
1.37885326325e-07
6.31062473851e-07
1.48694000069e-07
6.38622002545e-07
1.58952662702e-07
6.48539736771e-07
1.70729708716e-07
6.57117411676e-07
1.82258179119e-07
6.61799170777e-07
1.91801078234e-07
6.6191998756e-07
2.03635720609e-07
6.52795696527e-07
2.25881910102e-07
6.30380220663e-07
2.66883272264e-07
5.89495677967e-07
3.18769678825e-07
5.36418980117e-07
4.75970039839e-07
3.78229075323e-07
1.52533720081e-07
6.23461898866e-07
9.45094540703e-08
6.64836494716e-07
8.05103601157e-09
7.45831108985e-07
-5.07773391159e-08
7.57699846164e-07
-5.85450569748e-08
6.89499945104e-07
-4.16606782613e-08
6.43578731555e-07
-1.63640371391e-08
6.16960966512e-07
7.99468236871e-09
6.06483778844e-07
2.80522946337e-08
6.07470402183e-07
4.41982311711e-08
6.14727673557e-07
5.60589435586e-08
6.26579593788e-07
6.6645679209e-08
6.37759585468e-07
7.71604456345e-08
6.46380832586e-07
8.90015446521e-08
6.49689988128e-07
1.0629367494e-07
6.44286083432e-07
1.35077228967e-07
6.23631230923e-07
1.78176413907e-07
5.86879510184e-07
2.2917058305e-07
5.38113025474e-07
2.85131513078e-07
4.80124888361e-07
4.23404743752e-07
3.3744897232e-07
1.64974187053e-07
6.23287689002e-07
6.58194075103e-08
7.51603923903e-07
-6.38405470565e-08
8.75702522942e-07
-1.28194663662e-07
8.245902102e-07
-1.4911036026e-07
7.11270808705e-07
-1.48674600273e-07
6.43175886512e-07
-1.35828263057e-07
6.03960725846e-07
-1.17183820406e-07
5.8765524634e-07
-9.71684654645e-08
5.87267470686e-07
-7.88857738629e-08
5.96249973738e-07
-6.33144510097e-08
6.1078923822e-07
-4.65620843746e-08
6.20758000967e-07
-2.65888275371e-08
6.26125422142e-07
3.46891997214e-10
6.22439434406e-07
3.87132405492e-08
6.05581319007e-07
8.43389527943e-08
5.77649130502e-07
1.34564373089e-07
5.36312167357e-07
1.85929764798e-07
4.8645930024e-07
2.32488528474e-07
4.33347722904e-07
3.87371764853e-07
2.68330658058e-07
1.81404114438e-07
6.10089166478e-07
7.41843527643e-08
8.48194048535e-07
1.67823023623e-08
9.33434878346e-07
-6.29478045047e-08
9.06183287412e-07
-1.23969980918e-07
7.73253830474e-07
-1.65458153181e-07
6.85228872232e-07
-1.91692532643e-07
6.30268623072e-07
-2.01049180729e-07
5.96881226846e-07
-1.95873287176e-07
5.81914685768e-07
-1.80328804087e-07
5.80504318809e-07
-1.56019104174e-07
5.86246991956e-07
-1.24980165069e-07
5.89464654642e-07
-8.75413508302e-08
5.88413223406e-07
-4.41899609794e-08
5.78790712952e-07
2.09418013758e-09
5.58995166353e-07
4.93554998504e-08
5.30103180392e-07
9.34168805253e-08
4.92012204664e-07
1.30929469179e-07
4.48752260904e-07
1.60499960033e-07
4.03594340631e-07
3.68611912534e-07
1.7906425739e-07
1.81223398522e-07
5.50747618911e-07
2.19902461718e-07
7.85704701819e-07
2.63195999176e-07
8.79184300178e-07
2.65306586661e-07
8.99212160223e-07
1.62686522774e-07
8.7392962806e-07
1.83062363983e-08
8.28974279075e-07
-9.64884160141e-08
7.44762307471e-07
-1.67376561087e-07
6.67630300987e-07
-1.9636248672e-07
6.1071116264e-07
-1.9158306875e-07
5.75504979406e-07
-1.67237930485e-07
5.61671831025e-07
-1.33925840763e-07
5.55911480904e-07
-9.44460811433e-08
5.48683093833e-07
-5.29992459495e-08
5.37102027097e-07
-1.40256296893e-08
5.19801583337e-07
1.94633002522e-08
4.9642327872e-07
4.59821423556e-08
4.65316628079e-07
6.66970807314e-08
4.27860004677e-07
8.00002196793e-08
3.90098497903e-07
3.68447793463e-07
7.99700719381e-08
1.61757862386e-07
4.74901045962e-07
2.13888726216e-07
7.05363263951e-07
2.72791143258e-07
8.03997829773e-07
3.12759838317e-07
8.50566623935e-07
3.17093283301e-07
8.6522213817e-07
2.75194505694e-07
8.68698570074e-07
1.58714506323e-07
8.60221460532e-07
-6.2755007349e-09
8.32097884508e-07
-1.02756998726e-07
7.06811106062e-07
-1.25342986629e-07
5.978259668e-07
-1.17672134341e-07
5.53765445073e-07
-9.79691467053e-08
5.35992401234e-07
-7.22940835641e-08
5.22820752955e-07
-4.68103413204e-08
5.11453431765e-07
-2.73206452782e-08
5.00155401264e-07
-1.27192765884e-08
4.81659001782e-07
-1.91352202688e-09
4.54343691561e-07
3.96947297906e-09
4.21793277502e-07
-3.60054285393e-10
3.94251294803e-07
3.93756391312e-07
-2.58759848127e-08
1.31679631211e-07
4.30394772093e-07
1.63266876682e-07
6.46653318618e-07
2.06943761094e-07
7.44590007502e-07
2.46200890633e-07
8.02715224322e-07
2.6536796417e-07
8.4160448497e-07
2.59092578026e-07
8.72629616449e-07
2.22478851937e-07
8.95591922958e-07
1.51069424244e-07
9.02762337797e-07
1.32516054574e-08
8.44123077813e-07
-3.67025777823e-08
6.47396830143e-07
-5.26240801389e-08
5.69405120154e-07
-5.24496768361e-08
5.35592055153e-07
-4.72243193816e-08
5.17421125914e-07
-4.187760875e-08
5.05965041896e-07
-3.94549230016e-08
4.9758263933e-07
-3.86068597556e-08
4.80655941287e-07
-4.05652526058e-08
4.56134943136e-07
-4.90993298655e-08
4.30166565212e-07
-6.91704035577e-08
4.14159193987e-07
4.43946169417e-07
-1.19746281415e-07
1.10217199798e-07
4.10046341521e-07
1.27060295106e-07
6.03970882524e-07
1.59176736627e-07
6.97302761665e-07
1.86014997794e-07
7.67647717344e-07
1.99586530203e-07
8.23773688601e-07
1.99478286142e-07
8.70508250656e-07
1.81892869969e-07
9.11928455949e-07
1.40261502443e-07
9.43606899997e-07
8.00514465003e-08
9.03759384465e-07
2.72957909836e-08
6.99698287472e-07
-2.63744354333e-09
5.98995941449e-07
-1.83487082034e-08
5.51049084604e-07
-2.82896268868e-08
5.27178540544e-07
-3.68685117424e-08
5.1440226087e-07
-4.60164088027e-08
5.06583790776e-07
-5.66502454426e-08
4.91132951135e-07
-7.1343976572e-08
4.70673716189e-07
-9.37200945261e-08
4.52378886536e-07
-1.351177982e-07
4.55330602212e-07
5.09287008432e-07
-2.00991740471e-07
9.73397647614e-08
4.03313537683e-07
1.09421030273e-07
5.63891602527e-07
1.40335405942e-07
6.49768751232e-07
1.67363704163e-07
7.31640233607e-07
1.74813351098e-07
8.11670514265e-07
1.70974251137e-07
8.71943072962e-07
1.57408716692e-07
9.24175061189e-07
1.33967572043e-07
9.66210695235e-07
1.01373803621e-07
9.35742481495e-07
6.26755011162e-08
7.37915168032e-07
3.13431392511e-08
6.29949777205e-07
7.03440069383e-09
5.75072099928e-07
-1.25331965605e-08
5.46545003847e-07
-3.00834479676e-08
5.3180798072e-07
-4.80080966425e-08
5.24358105811e-07
-6.82059744657e-08
5.1117936445e-07
-9.36210313568e-08
4.959230608e-07
-1.29165506609e-07
4.87745832233e-07
-1.89285017066e-07
5.15131996768e-07
5.68304815425e-07
-2.48854529041e-07
8.27558081018e-08
8.82169304619e-08
1.25967837584e-07
1.57449705656e-07
1.68191694726e-07
1.62605815844e-07
1.49553800481e-07
1.33843832282e-07
1.16645078575e-07
8.83126743135e-08
5.87475123023e-08
3.11160212832e-08
5.89618480175e-09
-1.81590900805e-08
-4.26926407375e-08
-7.01177456035e-08
-1.03419592618e-07
-1.5448763505e-07
-2.23321975742e-07
-2.73535310774e-07
2.13619198872e-07
5.79748933586e-07
2.41956235077e-07
5.14988380485e-07
2.73137670295e-07
4.55272811855e-07
3.09168600662e-07
4.01074883109e-07
3.47914373338e-07
3.50859429038e-07
3.8481891895e-07
3.00781339458e-07
4.19082199611e-07
2.5167957723e-07
4.51825281424e-07
2.0663462525e-07
4.85816407543e-07
1.68458138079e-07
5.25884893595e-07
1.40104087304e-07
5.70917510114e-07
1.17950989163e-07
6.09182819722e-07
1.06237211339e-07
6.16412014289e-07
1.29749308563e-07
5.16942395951e-07
2.68111609303e-07
-1.35961937369e-07
9.67138972198e-07
-5.39704454094e-08
-7.69268572324e-08
-3.23642905041e-08
-1.12093258881e-07
-2.00255490461e-08
-1.10003305742e-07
-9.85645357182e-09
-1.01175152059e-07
-8.66062152877e-08
2.31324594747e-07
5.50030493218e-07
2.60026417039e-07
4.85974716194e-07
2.89072799565e-07
4.25918900727e-07
3.19968662321e-07
3.69871255532e-07
3.53009071165e-07
3.17508390656e-07
3.85845912515e-07
2.67638406844e-07
4.17049704896e-07
2.20182141352e-07
4.46996161836e-07
1.7640785937e-07
4.77056352766e-07
1.38126964893e-07
5.09630091449e-07
1.07270503417e-07
5.42786037238e-07
8.45774700028e-08
5.54769938601e-07
9.40487681659e-08
4.40555833027e-07
2.43664066849e-07
-8.1187915639e-08
7.89500575147e-07
-2.89784090065e-08
9.1477950275e-07
-4.54545166694e-09
-1.01524297982e-07
-3.9256062905e-09
-1.12719016987e-07
-3.45246128032e-09
-1.1047667002e-07
-2.06839465421e-09
-1.0255942045e-07
-8.86746140557e-08
2.47409813627e-07
5.22871752979e-07
2.74221710964e-07
4.58881907664e-07
3.01206967644e-07
3.98667170802e-07
3.28432462135e-07
3.42394323736e-07
3.55867281706e-07
2.89837185349e-07
3.82612946722e-07
2.4066998961e-07
4.07590715648e-07
1.94998995685e-07
4.30044338154e-07
1.53764486356e-07
4.49126089221e-07
1.18876395853e-07
4.64888867779e-07
9.13525600065e-08
4.66651433371e-07
8.26776174454e-08
3.38698208083e-07
2.21747648455e-07
-5.45336589791e-07
1.12730273626e-06
-7.96189843604e-07
1.0399731679e-06
4.46176773679e-08
7.36332094683e-08
3.45887872773e-08
-9.16321597561e-08
2.33690601767e-08
-1.01503878673e-07
1.38042766252e-08
-1.0091181762e-07
6.1103346272e-09
-9.48654115399e-08
-8.25642825109e-08
2.55711204821e-07
5.00195095701e-07
2.78904078352e-07
4.35435060915e-07
3.0266261659e-07
3.74672983656e-07
3.26676101214e-07