/*--------------------------------*- C++ -*----------------------------------*\
| =========                 |                                                 |
| \\      /  F ield         | OpenFOAM: The Open Source CFD Toolbox           |
|  \\    /   O peration     | Version:  2312                                  |
|   \\  /    A nd           | Website:  www.openfoam.com                      |
|    \\/     M anipulation  |                                                 |
\*---------------------------------------------------------------------------*/
FoamFile
{
    version     2.0;
    format      ascii;
    arch        "LSB;label=32;scalar=64";
    class       surfaceScalarField;
    location    "0.775/water";
    object      phi;
}
// * * * * * * * * * * * * * * * * * * * * * * * * * * * * * * * * * * * * * //

dimensions      [0 3 -1 0 0 0 0];

oriented        oriented;

internalField   nonuniform List<scalar> 
2928
(
7.7452245805e-08
2.00492510378e-07
5.28151158938e-08
1.50077373585e-07
3.89919310672e-08
1.47523564144e-07
3.01429445758e-08
1.49484795779e-07
2.39682554681e-08
1.53800305052e-07
1.96391391542e-08
1.59252455382e-07
1.6578627374e-08
1.65638491298e-07
1.43111441714e-08
1.72878093443e-07
1.24338363901e-08
1.80917344212e-07
1.07337746532e-08
1.89586066784e-07
9.15456539586e-09
1.98748188193e-07
7.69987848783e-09
2.083653336e-07
6.38174880568e-09
2.1845172068e-07
5.20606550644e-09
2.29037339186e-07
4.16976338009e-09
2.401560473e-07
3.26227403497e-09
2.51841578335e-07
2.46806744203e-09
2.64126342653e-07
1.76919234582e-09
2.7704162862e-07
1.14680133833e-09
2.90618575311e-07
3.04890573137e-07
5.80435700442e-10
1.14020659799e-07
2.55540318469e-07
7.79646644389e-08
1.78439755908e-07
6.06596250709e-08
1.63316832306e-07
4.8857847285e-08
1.6106773439e-07
3.98457079891e-08
1.62784171987e-07
3.29892965043e-08
1.66106079573e-07
2.77237658025e-08
1.70903813649e-07
2.36728048337e-08
1.76929088165e-07
2.05728404936e-08
1.8401730701e-07
1.80570026794e-08
1.92101927387e-07
1.58374232261e-08
2.00967765725e-07
1.37726588885e-08
2.10430112299e-07
1.18165745037e-08
2.2040780424e-07
9.96656654368e-09
2.30887356016e-07
8.23358655533e-09
2.4188902661e-07
6.6272415964e-09
2.53447928552e-07
5.14934983721e-09
2.65604233606e-07
3.79236729546e-09
2.78398613808e-07
2.53965170398e-09
2.91871289568e-07
3.06064484197e-07
1.36574174078e-09
1.1936892417e-07
2.98791237605e-07
7.75601294935e-08
2.10357782319e-07
5.78981433416e-08
1.8095076626e-07
4.64949649831e-08
1.72139034596e-07
3.84870545776e-08
1.70746479411e-07
3.26319523756e-08
1.71956293393e-07
2.84323591797e-08
1.75103090907e-07
2.51710116732e-08
1.80190507958e-07
2.2459296245e-08
1.86729020856e-07
2.01436117469e-08
1.94417640005e-07
1.80593141943e-08
2.03052056176e-07
1.6085258111e-08
2.12404185814e-07
1.41570467782e-08
2.22336012045e-07
1.22530754906e-08
2.32791338498e-07
1.03774786841e-08
2.43764622041e-07
8.54559715686e-09
2.55279816773e-07
6.77297606225e-09
2.67376853897e-07
5.06845054045e-09
2.8010314299e-07
3.43045836072e-09
2.93509280341e-07
3.07648943035e-07
1.84600135832e-09
1.38880420298e-07
3.17341988503e-07
9.24528592836e-08
2.43220489642e-07
6.65997908998e-08
2.03539678463e-07
5.0441609121e-08
1.87691050472e-07
3.94210380591e-08
1.81678473735e-07
3.16789587219e-08
1.79688871646e-07
2.66082396849e-08
1.80173367497e-07
2.34016558495e-08
1.83397273964e-07
2.10816869914e-08
1.89049028692e-07
1.91568232268e-08
1.96342546652e-07
1.74079898594e-08
2.0480088933e-07
1.57231518299e-08
2.14089047486e-07
1.40434996672e-08
2.2401566443e-07
1.23405322059e-08
2.34494320256e-07
1.06066852421e-08
2.45498468898e-07
8.84853885997e-09
2.57037971682e-07
7.07937804845e-09
2.69146014241e-07
5.31223598816e-09
2.81870289408e-07
3.55446896424e-09
2.95267046123e-07
3.0939829478e-07
1.80511939991e-09
1.49977013245e-07
3.21675299132e-07
1.09304246017e-07
2.67701241751e-07
7.9719475557e-08
2.28372300629e-07
5.87883482393e-08
2.07540157379e-07
4.3501351646e-08
1.9677562951e-07
3.25543252981e-08
1.906122182e-07
2.53115246844e-08
1.87414822679e-07
2.11368144385e-08
1.87572351912e-07
1.86938506014e-08
1.91492092217e-07
1.69345149506e-08
1.98101941721e-07
1.54163246666e-08
2.06319070069e-07
1.39737505865e-08
2.15531647946e-07
1.2536956375e-08
2.2545245262e-07
1.10701005358e-08
2.35961192912e-07
9.55485014781e-09
2.47013716518e-07
7.98565597143e-09
2.58607176065e-07
6.36590591923e-09
2.7076576272e-07
4.70342780109e-09
2.83532773342e-07
3.00575004833e-09
2.96964721731e-07
3.11126960063e-07
1.27708811456e-09
1.56194532457e-07
3.18130097031e-07
1.23520587952e-07
2.8308390331e-07
9.42666897837e-08
2.51808840525e-07
7.06956310157e-08
2.29530948186e-07
5.14075794634e-08
2.1572429729e-07
3.62657402776e-08
2.05701210692e-07
2.55017364045e-08
1.98174648686e-07
1.91080343853e-08
1.93966761954e-07
1.58925136059e-08
1.94707919307e-07
1.40806616508e-08
1.99913906632e-07
1.27145541443e-08
2.07685181934e-07
1.14764740664e-08
2.16769763551e-07
1.02664200105e-08
2.26662506541e-07
9.03755067765e-09
2.37190083727e-07
7.76214139307e-09
2.48289125072e-07
6.42443515173e-09
2.59944895406e-07
5.01793506868e-09
2.72172261763e-07
3.54297168265e-09
2.85007743836e-07
2.00339506238e-09
2.98504296512e-07
3.12726521011e-07
4.03838234656e-10
1.53033410022e-07
3.17883909258e-07
1.25598167294e-07
2.93631710918e-07
1.01184216972e-07
2.70056125013e-07
7.86244913091e-08
2.50203341229e-07
5.85261871003e-08
2.35352622655e-07
4.07491071051e-08
2.23390036034e-07
2.65589401786e-08
2.12355775811e-07
1.71543466029e-08
2.03372682336e-07
1.24670736931e-08
1.99395976472e-07
1.04688032545e-08
2.01912409891e-07
9.34290507028e-09
2.08811088577e-07
8.40875952189e-09
2.17703950058e-07
7.50115912676e-09
2.27570101619e-07
6.56583270132e-09
2.38125435658e-07
5.57305634749e-09
2.49281898617e-07
4.50407541597e-09
2.61013892059e-07
3.34822508865e-09
2.73328110276e-07
2.10189864014e-09
2.86254079658e-07
7.66706988869e-10
2.99839485427e-07
3.14145719281e-07
-6.52485326686e-10
1.46810404705e-07
3.24723366996e-07
1.20787093776e-07
3.03650455951e-07
1.00650420901e-07
2.84254512124e-07
8.1147587753e-08
2.67781644443e-07
6.25932412896e-08
2.53382623677e-07
4.47617363798e-08
2.41109563013e-07
2.85739872521e-08
2.28530170074e-07
1.61376926536e-08
2.15811571794e-07
9.10447688256e-09
2.06431123625e-07
6.4666110851e-09
2.04550858164e-07
5.61448585294e-09
2.09663279092e-07
5.10711750375e-09
2.1821137283e-07
4.59311986738e-09
2.28084101732e-07
4.00822540821e-09
2.38710361053e-07
3.32952695243e-09
2.49960596649e-07
2.544073574e-09
2.61799364376e-07
1.64450987199e-09
2.74227672622e-07
6.28917903672e-10
2.8726968232e-07
-4.99723225904e-10
3.00968124048e-07
3.15379985482e-07
-1.73398266678e-09
1.43983721256e-07
3.34750836638e-07
1.19578410821e-07
3.11967945842e-07
1.01640950732e-07
2.96155329221e-07
8.43639712697e-08
2.83063652601e-07
6.68164719921e-08
2.70360498402e-07
4.98729550039e-08
2.57922157087e-07
3.32580116231e-08
2.45127799019e-07
1.84210230987e-08
2.30652902309e-07
8.1412814422e-09
2.16714845193e-07
3.61940620482e-09
2.09074177956e-07
2.53436489507e-09
2.10748525634e-07
2.34769470084e-09
2.18398112695e-07
2.17831512432e-09
2.28253474444e-07
1.89200411698e-09
2.38996706862e-07
1.4698972185e-09
2.50382698418e-07
9.07688227946e-10
2.6236159475e-07
2.04836216648e-10
2.74930521049e-07
-6.3576519624e-10
2.881102968e-07
-1.60718563973e-09
3.01939540224e-07
3.16471533451e-07
-2.69872469683e-09
1.46412375294e-07
3.42847496741e-07
1.24324592704e-07
3.17346332667e-07
1.08235100478e-07
3.0593040099e-07
9.21027724721e-08
2.97069350486e-07
7.5052623118e-08
2.86787327741e-07
5.82464168845e-08
2.74580090882e-07
4.17943796447e-08
2.61559646216e-07
2.56378295279e-08
2.46816076355e-07
1.19730787893e-08
2.3038668518e-07
3.96312141868e-09
2.17087410354e-07
1.3284539702e-09
2.13383907583e-07
9.63348324106e-10
2.18763355827e-07
9.03065692227e-10
2.28313762436e-07
7.2526988772e-10
2.39174545346e-07
3.92122564306e-10
2.50715843878e-07
-9.60265785181e-11
2.62849769689e-07
-7.34073473825e-10
2.75568564967e-07
-1.51452851461e-09
2.88890766767e-07
-2.42706556357e-09
3.02852073334e-07
3.17502505763e-07
-3.45802784823e-09
1.53641587746e-07
3.44615300393e-07
1.33795109073e-07
3.19974435528e-07
1.19568349283e-07
3.13487008383e-07
1.04931254697e-07
3.09375527268e-07
8.85985786016e-08
3.02397952455e-07
7.15256060184e-08
2.91464233307e-07
5.48596974454e-08
2.7819150435e-07
3.80373037697e-08
2.63642312966e-07
2.1688104886e-08
2.46744603734e-07
9.18838381779e-09
2.29592775019e-07
3.08110796923e-09
2.19493032905e-07
1.45086612187e-09
2.20393954049e-07
1.0763383986e-09
2.28688301852e-07
7.27846212388e-10
2.39523087197e-07
2.48694345963e-10
2.51194990971e-07
-3.67380267936e-10
2.63465873903e-07
-1.11372903468e-09
2.76314909325e-07
-1.98068456946e-09
2.89757740507e-07
-2.95635537618e-09
3.03827738672e-07
3.18572277934e-07
-4.02611469603e-09
1.55539874508e-07
3.44065918958e-07
1.37713352732e-07
3.20746368588e-07
1.26569481665e-07
3.17968250812e-07
1.15736996072e-07
3.17835410139e-07
1.02833140308e-07
3.14544278172e-07
8.76453056842e-08
3.06445017876e-07
7.11548059264e-08
2.94641497538e-07
5.40335632098e-08
2.80766565193e-07
3.609807296e-08
2.64690700363e-07
1.94940381437e-08
2.46205415859e-07
8.44469467687e-09
2.30546371184e-07
3.88922954833e-09
2.24950442566e-07
2.51578784578e-09
2.30061834606e-07
1.67950795613e-09
2.40359428824e-07
8.15932792875e-10
2.5205856593e-07
-1.23816134496e-10
2.64405657702e-07
-1.13993221458e-09
2.77331021926e-07
-2.22479089728e-09
2.90842619458e-07
-3.36783395685e-09
3.04970776735e-07
3.19761024667e-07
-4.55656663689e-09
1.54574658257e-07
3.46081296544e-07
1.37567358933e-07
3.21591490499e-07
1.2805970236e-07
3.21222861752e-07
1.20326440912e-07
3.23310253823e-07
1.11242184956e-07
3.22875149132e-07
9.95077126004e-08
3.17954841709e-07
8.49056716985e-08
3.09189123361e-07
6.84159704695e-08
2.97252253834e-07
5.03655993506e-08
2.82749648397e-07
3.17913657599e-08
2.64789436318e-07
1.63553219549e-08
2.45988646099e-07
7.69349437128e-09
2.33614557188e-07
4.46332254126e-09
2.33292318734e-07
2.85117359853e-09
2.41971659211e-07
1.44378903646e-09
2.53465946941e-07
6.42349977271e-11
2.6578525094e-07
-1.30641296909e-09
2.78701664236e-07
-2.66761088183e-09
2.92203841096e-07
-4.01483974115e-09
3.06317998509e-07
3.21087404445e-07
-5.34120237725e-09
1.53540395279e-07
3.48540107143e-07
1.38049196816e-07
3.21542569137e-07
1.29117341546e-07
3.24273968978e-07
1.22682521394e-07
3.27672743019e-07
1.15527173466e-07
3.29344397873e-07
1.05988848523e-07
3.27285903643e-07
9.32548807576e-08
3.21870659563e-07
7.76189419775e-08
3.12882845263e-07
6.01160713358e-08
3.00260198036e-07
4.15751818061e-08
2.83340595338e-07
2.40979459872e-08
2.63473795473e-07
1.16281385672e-08
2.46088218464e-07
5.84019261935e-09
2.39081080663e-07
3.20080634213e-09
2.44611181597e-07
1.19501191224e-09
2.55471744518e-07
-6.18733243393e-10
2.67599041784e-07
-2.30506842862e-09
2.80387994797e-07
-3.884068905e-09
2.93782867612e-07
-5.3647436954e-09
3.07798666659e-07
3.22474355708e-07
-6.75167658118e-09
1.51631352779e-07
3.54059300768e-07
1.35774041283e-07
3.22264611152e-07
1.27433992589e-07
3.26957068881e-07
1.2179678212e-07
3.31351021707e-07
1.15751724823e-07
3.34743177054e-07
1.07082014226e-07
3.35753615459e-07
9.49556698029e-08
3.33939611508e-07
7.9716474089e-08
3.28111005583e-07
6.27259460669e-08
3.17254298922e-07
4.49846917809e-08
3.01089876069e-07
2.76212678742e-08
2.80844684597e-07
1.32022720214e-08
2.60511813285e-07
5.02741442608e-09
2.47257295152e-07
1.38150862703e-09
2.48257319418e-07
-1.05588020812e-09
2.57909136965e-07
-3.09803013916e-09
2.69641242463e-07
-4.88295058564e-09
2.82172908871e-07
-6.46418356032e-09
2.95364130479e-07
-7.87237575036e-09
3.09206850158e-07
3.23731155726e-07
-9.12915396712e-09
1.4835655185e-07
3.62369901761e-07
1.31134023236e-07
3.24840253633e-07
1.23250182065e-07
3.2947822429e-07
1.1768725856e-07
3.35098738304e-07
1.11222478561e-07
3.40625213556e-07
1.02044809068e-07
3.44752265902e-07
8.96288891233e-08
3.46303842165e-07
7.46135204249e-08
3.431150532e-07
5.81585139089e-08
3.33710832743e-07
4.12102285202e-08
3.18043932954e-07
2.44573697355e-08
2.9760346437e-07
9.67097012084e-09
2.7530243497e-07
1.29169479041e-10
2.5680068505e-07
-4.00453934684e-09
2.52391363301e-07
-6.32713336204e-09
2.60231745999e-07
-8.12383076147e-09
2.71437997234e-07
-9.58288279379e-09
2.83631955983e-07
-1.07878167826e-08
2.96569096755e-07
-1.17907530347e-08
3.10209778508e-07
3.24570446508e-07
-1.2630020756e-08
1.46283725588e-07
3.73501849162e-07
1.26640010714e-07
3.3017647201e-07
1.17983648584e-07
3.32971798851e-07
1.11060369523e-07
3.40293758299e-07
1.02572318344e-07
3.48563746567e-07
9.18894612551e-08
3.55265251245e-07
7.91444516572e-08
3.58997066214e-07
6.46053550279e-08
3.57640101071e-07
4.89209317238e-08
3.49393319517e-07
3.26236610371e-08
3.34343588917e-07
1.60910266796e-08
3.14139311914e-07
1.01379291945e-09
2.90382401614e-07
-9.38925854474e-09
2.67204962107e-07
-1.35149854152e-08
2.56517449034e-07
-1.49274195261e-08
2.6164419928e-07
-1.57965377316e-08
2.72307177891e-07
-1.63732945762e-08
2.84208706806e-07
-1.67397995817e-08
2.96935638069e-07
-1.69554727929e-08
3.10425442081e-07
3.2468088305e-07
-1.70658826161e-08
1.44685632244e-07
3.85780315213e-07
1.22221155327e-07
3.38879125905e-07
1.10406506962e-07
3.39986018496e-07
1.0059902606e-07
3.48513963096e-07
8.99946428144e-08
3.58660784604e-07
7.83555900285e-08
3.6674574944e-07
6.58270014672e-08
3.71476077824e-07
5.2478892435e-08
3.70972728027e-07
3.82883147431e-08
3.63579105549e-07
2.29759633505e-08
3.49655018747e-07
6.69566089034e-09
3.30419751837e-07
-9.26695341101e-09
3.06345588747e-07
-2.13679054343e-08
2.79306253042e-07
-2.59679842246e-08
2.61117773685e-07
-2.59561220084e-08
2.61632364952e-07
-2.52110297269e-08
2.71562155596e-07
-2.43888709482e-08
2.83386544437e-07
-2.35268238416e-08
2.96073629953e-07
-2.26610644755e-08
3.09559674447e-07
3.23845010744e-07
-2.1825164117e-08
1.49176787338e-07
3.9226965944e-07
1.23219259748e-07
3.50442793844e-07
1.04975530949e-07
3.53304400183e-07
8.9585070391e-08
3.62340793362e-07
7.56904387694e-08
3.72075138181e-07
6.29712269002e-08
3.79320061213e-07
5.12033672877e-08
3.83198978742e-07
4.01917855888e-08
3.81968736814e-07
2.89812310146e-08
3.74782520424e-07
1.63467252744e-08
3.62285230911e-07
1.74251769618e-09
3.45020552393e-07
-1.48826490114e-08
3.22968413921e-07
-3.04728483507e-08
2.94895132911e-07
-3.7875152287e-08
2.68519899645e-07
-3.70832084258e-08
2.60840422645e-07
-3.44114721666e-08
2.68890497565e-07
-3.19389753232e-08
2.8091404525e-07
-2.97205325962e-08
2.93855231524e-07
-2.77258473522e-08
3.07564980008e-07
3.22068213252e-07
-2.59490175562e-08
1.52389781828e-07
3.94131921559e-07
1.21370024968e-07
3.66334168836e-07
9.55360856126e-08
3.73898383124e-07
7.29767009366e-08
3.83303860142e-07
5.51440624954e-08
3.894561708e-07
4.2215235167e-08
3.9212287626e-07
3.3049081045e-08
3.9232678613e-07
2.62351341865e-08
3.88767573634e-07
2.04426973598e-08
3.80565753436e-07
1.41135222138e-08
3.68607011089e-07
4.5889840469e-09
3.54538354119e-07
-1.03476473447e-08
3.37899182528e-07
-2.91422345699e-08
3.13685422851e-07
-4.27968995865e-08
2.82173039371e-07
-4.43114649923e-08
2.62354798124e-07
-4.05582329432e-08
2.65137350948e-07
-3.67931415618e-08
2.77148957151e-07
-3.35651345311e-08
2.90627273239e-07
-3.07841361636e-08
3.04783974611e-07
3.19674502454e-07
-2.83903913554e-08
1.47980616033e-07
4.00526469535e-07
1.11652866944e-07
3.87374996843e-07
8.11378202667e-08
3.99084071302e-07
5.44896459703e-08
4.08373675726e-07
3.50942653524e-08
4.0844034471e-07
2.36994669239e-08
4.03412716818e-07
1.79481192172e-08
3.98047201886e-07
1.53786561095e-08
3.91323751966e-07
1.4591348935e-08
3.81343812054e-07
1.38403918408e-08
3.69350134115e-07
1.0422979733e-08
3.57948047924e-07
1.97438528085e-09
3.46339824033e-07
-1.51324427597e-08
3.3078504771e-07
-3.46008757762e-08
3.01637385401e-07
-4.30623355627e-08
2.70815268946e-07
-4.0934014538e-08
2.63009075014e-07
-3.70722630975e-08
2.7328721328e-07
-3.3710123307e-08
2.87265190072e-07
-3.08672453518e-08
3.01941089011e-07
3.17268639298e-07
-2.84613433499e-08
1.37820912195e-07
4.18230019632e-07
1.01933850115e-07
4.07480112832e-07
7.57997819108e-08
4.19616574977e-07
5.35167301317e-08
4.28931148077e-07
3.6060435387e-08
4.25431501259e-07
2.55900376617e-08
4.13765765711e-07
2.08444460966e-08
4.02760788245e-07
1.95087202271e-08
3.92647318963e-07
1.96051935733e-08
3.81239683043e-07
1.96039478845e-08
3.69345087694e-07
1.76156749155e-08
3.5993053084e-07
1.33551759424e-08
3.50594910099e-07
3.05399810412e-09
3.41079688698e-07
-1.56913641487e-08
3.2037758434e-07
-3.17204804745e-08
2.86842225226e-07
-3.48115554105e-08
2.66100016336e-07
-3.25596909326e-08
2.71035361316e-07
-3.01214402925e-08
2.8482700342e-07
-2.80330638587e-08
2.99852707573e-07
3.15499675944e-07
-2.62640595991e-08
1.36864696488e-07
4.37934759898e-07
1.06701326664e-07
4.21514001594e-07
8.88122959699e-08
4.31645492578e-07
7.32201182798e-08
4.42575777871e-07
5.83858855819e-08
4.39692824956e-07
4.76110736816e-08
4.24389163148e-07
4.13850634846e-08
4.08949256905e-07
3.80864277512e-08
3.95935816038e-07
3.58229979759e-08
3.83499019671e-07
3.34064982348e-08
3.71758917303e-07
2.95931712222e-08
3.63741944713e-07
2.38530438186e-08
3.56333610239e-07
1.65130606647e-08
3.48417840203e-07
2.6138550634e-09
3.34274619598e-07
-1.51657873488e-08
3.04620275341e-07
-2.44002844478e-08
2.75334352202e-07
-2.51278729806e-08
2.71762975776e-07
-2.42977550278e-08
2.8399696051e-07
-2.34637000343e-08
2.99018647819e-07
3.1476032432e-07
-2.27243020003e-08
1.48679821823e-07
4.45565974243e-07
1.23888354232e-07
4.29200503503e-07
1.09891559053e-07
4.39293317962e-07
9.68163700512e-08
4.53463314674e-07
8.38679504724e-08
4.51957045552e-07
7.35651426503e-08
4.34497322614e-07
6.6290312528e-08
4.16173491552e-07
6.08932521855e-08
4.01320792782e-07
5.61771219101e-08
3.88212479844e-07
4.91869196342e-08
3.78749177413e-07
4.16756332667e-08
3.71254359993e-07
3.47024628966e-08
3.63309828055e-07
2.57873796887e-08
3.57336015426e-07
1.45149502937e-08
3.45549645747e-07
-8.91108663091e-10
3.20027960117e-07
-1.3569309981e-08
2.88013476132e-07
-1.75212742661e-08
2.75715131652e-07
-1.83874218561e-08
2.84863198727e-07
-1.88255048186e-08
2.99456730147e-07
3.15061778801e-07
-1.91269103712e-08
1.51919969184e-07
4.49213459361e-07
1.31278078959e-07
4.32482164775e-07
1.19842416515e-07
4.44204979325e-07
1.09779043728e-07
4.61268777321e-07
1.00363651976e-07
4.6066142541e-07
9.25202921881e-08
4.42140228628e-07
8.615941926e-08
4.2248601881e-07
8.08962219459e-08
4.06575324778e-07
7.48405413686e-08
3.94268349755e-07
6.40718147355e-08
3.89519986962e-07
5.23976422987e-08
3.82934952986e-07
4.25572095995e-08
3.73157712885e-07
3.30505528644e-08
3.66850961826e-07
2.17188408881e-08
3.56889575669e-07
7.56910849879e-09
3.34184118926e-07
-5.86615784962e-09
3.0145225625e-07
-1.2049204532e-08
2.81898977503e-07
-1.41710654197e-08
2.86985198462e-07
-1.55084524397e-08
3.0079411836e-07
3.16106072593e-07
-1.65526918214e-08
1.54533809024e-07
4.51583955124e-07
1.35993937056e-07
4.33529909861e-07
1.25072040311e-07
4.48446693621e-07
1.17498700041e-07
4.66514574441e-07
1.1160026306e-07
4.65808159137e-07
1.06541593987e-07
4.4697633983e-07
1.02109617951e-07
4.26858948823e-07
9.77389827016e-08
4.10932903938e-07
8.96582881617e-08
4.02348493871e-07
7.75324017701e-08
4.01653609932e-07
6.38725606828e-08
3.9660210389e-07
5.0521167228e-08
3.86520185519e-07
3.93506538764e-08
3.78035376681e-07
2.68242304795e-08
3.6943014482e-07
1.16647618964e-08
3.49355842677e-07
-2.38374098509e-09
3.15508195096e-07
-9.78348846321e-09
2.89300795582e-07
-1.24906447662e-08
2.8969261802e-07
-1.41851742545e-08
3.0248865549e-07
3.17460104382e-07
-1.55391497757e-08
1.52841032076e-07
4.54584621992e-07
1.35984201929e-07
4.3314346441e-07
1.26464757512e-07
4.51381358725e-07
1.22210467947e-07
4.68483263831e-07
1.20453484595e-07
4.66838162436e-07
1.18733093686e-07
4.48491275549e-07
1.16499774945e-07
4.29044777437e-07
1.12340422974e-07
4.15086713361e-07
1.02047368752e-07
4.1264825971e-07
8.97066999707e-08
4.14001439763e-07
7.57838173825e-08
4.10541331123e-07
6.10588481633e-08
4.01262795737e-07
4.69539758892e-08
3.92158953036e-07
3.20987221569e-08
3.84307812956e-07
1.43285748757e-08
3.67145441807e-07
-1.61696679586e-09
3.31466640833e-07
-1.03066255563e-08
2.97994648746e-07
-1.31760036865e-08
2.9256253293e-07
-1.47521734181e-08
3.04064841071e-07
3.1873691971e-07
-1.60289269426e-08
1.48398408828e-07
4.6418073381e-07
1.31214815073e-07
4.34222658073e-07
1.2433293348e-07
4.52246707497e-07
1.24251571042e-07
4.66444032338e-07
1.26934296557e-07
4.63459446446e-07
1.28475031978e-07
4.46747323207e-07
1.27507099217e-07
4.29964823715e-07
1.22281476348e-07
4.20307508906e-07
1.11437843548e-07
4.23498949284e-07
9.94331212249e-08
4.26026184901e-07
8.63003281864e-08
4.23692286916e-07
7.19235636195e-08
4.15664435255e-07
5.69115543336e-08
4.07199651772e-07
3.89667911138e-08
4.02277303815e-07
1.78735155721e-08
3.88269012175e-07
-1.02318656006e-09
3.50384389472e-07
-1.21153896781e-08
3.0909458777e-07
-1.5343089954e-08
2.95791345253e-07
-1.65642866032e-08
3.05286077825e-07
3.19724903942e-07
-1.75522069859e-08
1.46852330511e-07
4.73916586507e-07
1.30217568073e-07
4.35200025409e-07
1.25131631555e-07
4.51695041443e-07
1.27395930199e-07
4.62248321658e-07
1.32347941643e-07
4.57889309758e-07
1.35334271023e-07
4.43590352704e-07
1.34379567052e-07
4.3088656104e-07
1.26965043652e-07
4.27726030033e-07
1.16565631827e-07
4.33920410542e-07
1.05445464432e-07
4.37167045178e-07
9.35614087827e-08
4.35607835945e-07
8.06364556458e-08
4.28619804787e-07
6.64905436956e-08
4.21376560196e-07
4.65692811551e-08
4.22249645152e-07
2.3371457838e-08
4.11508092272e-07
1.66052032051e-09
3.72126780437e-07
-1.31945135565e-08
3.23963193831e-07
-1.77524508178e-08
3.00351680716e-07
-1.87773681138e-08
3.06311097352e-07
3.20469628811e-07
-1.95220219773e-08
1.47646593905e-07
4.84160325489e-07
1.30812650982e-07
4.36296339175e-07
1.26655442977e-07
4.50219278234e-07
1.29677336848e-07
4.57333734002e-07
1.34869571799e-07
4.52100797882e-07
1.37520327938e-07
4.40776673905e-07
1.35636387994e-07
4.32740957515e-07
1.2671033823e-07
4.36663697668e-07
1.16824433443e-07
4.43826841158e-07
1.06562659766e-07
4.4746474895e-07
9.5890041695e-08
4.46314799839e-07
8.40958070986e-08
4.40459130358e-07
6.99682373156e-08
4.35561916249e-07
5.0758049807e-08
4.4149595695e-07
3.05673744321e-08
4.31757104196e-07
7.31980391315e-09
3.95422969737e-07
-1.18209020041e-08
3.43127808539e-07
-1.92834475215e-08
3.07819462363e-07
-2.07881851257e-08
3.07816128162e-07
3.2127741801e-07
-2.15958979888e-08
1.47526117452e-07
4.93092216053e-07
1.30891839822e-07
4.37069258978e-07
1.27870323254e-07
4.47577699967e-07
1.31094679882e-07
4.52246520461e-07
1.35093624329e-07
4.47547580592e-07
1.35762244198e-07
4.39972348991e-07
1.31383924825e-07
4.3710321729e-07
1.22058034562e-07
4.46007309217e-07
1.12445884616e-07
4.53477623165e-07
1.02808412824e-07
4.57139280522e-07
9.28643601429e-08
4.56307051378e-07
8.16283652964e-08
4.51747784998e-07
6.40307518768e-08
4.53188381634e-07
4.82251535172e-08
4.57379644446e-07
3.25887965369e-08
4.47469725183e-07
1.08932624277e-08
4.17179337257e-07
-9.93824214077e-09
3.63995710135e-07
-2.06368443309e-08
3.18528243089e-07
-2.3107572399e-08
3.10287629556e-07
3.22305228694e-07
-2.41352908154e-08
1.47972461675e-07
5.0308205643e-07
1.30932619029e-07
4.38111915093e-07
1.29000330845e-07
4.43686401564e-07
1.32221432932e-07
4.47090468039e-07
1.34173660987e-07
4.45018422849e-07
1.3187450122e-07
4.42129711503e-07
1.24001458422e-07
4.44960557083e-07
1.14328702636e-07
4.5571077283e-07
1.04859438017e-07
4.62984048125e-07
9.57061894134e-08
4.66343412042e-07
8.64154510488e-08
4.65647761095e-07
7.52465701634e-08
4.62962417568e-07
5.6955404299e-08
4.71581291943e-07
4.3964441633e-08
4.704527164e-07
2.95715913223e-08
4.61938406912e-07
1.0342621716e-08
4.36487200485e-07
-9.88020558947e-09
3.84270207772e-07
-2.31193275803e-08
3.31784985904e-07
-2.67294584473e-08
3.13899596656e-07
3.23425125646e-07
-2.78492348568e-08
1.44075711281e-07
5.16475016337e-07
1.27689374901e-07
4.39644148579e-07
1.26425552159e-07
4.39660266374e-07
1.29049871647e-07
4.427092811e-07
1.28561198572e-07
4.44987833159e-07
1.23143260488e-07
4.47427829525e-07
1.13063758597e-07
4.55041242625e-07
1.03085675709e-07
4.65722327629e-07
9.36738850936e-08
4.72453467073e-07
8.48794077038e-08
4.75197180003e-07
7.60404017224e-08
4.74551078415e-07
6.13648751961e-08
4.77733904332e-07
4.87960868036e-08
4.84226127256e-07
3.73927049403e-08
4.81937797707e-07
2.42048585366e-08
4.75221766674e-07
7.09460051809e-09
4.53685231167e-07
-1.22721850417e-08
4.03701065446e-07
-2.74337525629e-08
3.46973101929e-07
-3.22784872215e-08
3.18748132423e-07
3.24371422918e-07
-3.32245852317e-08
1.45996671909e-07
5.28733076388e-07
1.30668975544e-07
4.40298993105e-07
1.26503378942e-07
4.38668101268e-07
1.2468247438e-07
4.4286895441e-07
1.19386548068e-07
4.49799880518e-07
1.09930832908e-07
4.56773294277e-07
9.8877684483e-08
4.66095766575e-07
8.85618028476e-08
4.76087472488e-07
7.88526340646e-08
4.8222145599e-07
6.96616216333e-08
4.84451048808e-07
5.9895517009e-08
4.84394130774e-07
4.77384041574e-08
4.89946788364e-07
4.02294330574e-08
4.91823183718e-07
3.10135340516e-08
4.91254147358e-07
1.93626809698e-08
4.86969469865e-07
3.48555882088e-09
4.69661412592e-07
-1.64571188141e-08
4.23720646887e-07
-3.37273987435e-08
3.64280780987e-07
-3.98982257288e-08
3.24926071014e-07
3.24850144528e-07
-4.03765706953e-08
1.4966124808e-07
5.36288154644e-07
1.35470226043e-07
4.39234971807e-07
1.28090213657e-07
4.40648990674e-07
1.2024311838e-07
4.49010925965e-07
1.09181644089e-07
4.60372365743e-07
9.5596272895e-08
4.70246855828e-07
8.18677561982e-08
4.79831908276e-07
6.89618945071e-08
4.89033108704e-07
5.70352172649e-08
4.94193243933e-07
4.71918797992e-08
4.94365485017e-07
3.87299051512e-08
4.92922333168e-07
3.520819732e-08
4.93565059895e-07
3.26246716089e-08
4.94511866138e-07
2.72130085121e-08
4.96772642173e-07
1.78708087936e-08
4.96423334631e-07
1.89869424741e-09
4.85743781505e-07
-2.10041930652e-08
4.46714916531e-07
-4.13394511663e-08
3.84667187735e-07
-4.92025900714e-08
3.32801466453e-07
3.2469576167e-07
-4.90474508412e-08
1.55646099345e-07
5.37541041337e-07
1.41609384176e-07
4.37152286246e-07
1.30764233487e-07
4.45667164086e-07
1.16741263023e-07
4.61160707314e-07
9.95757231353e-08
4.76995521622e-07
8.08807448103e-08
4.88823052409e-07
6.2266084e-08
4.98457596355e-07
4.61334273575e-08
5.05220568101e-07
3.37611444638e-08
5.06648883065e-07
2.57839975433e-08
5.02430489484e-07
2.20340892413e-08
4.9676696483e-07
2.23093125343e-08
4.93388154776e-07
2.35987559029e-08
4.93325781365e-07
2.29344062935e-08
4.9754784723e-07
1.65597080258e-08
5.02913830981e-07
6.43250552843e-10
5.01779602267e-07
-2.52829731516e-08
4.72749113247e-07
-4.84124805012e-08
4.07865322603e-07
-5.88842578884e-08
3.43293128636e-07
3.24265689652e-07
-5.84527030981e-08
1.63344512526e-07
5.31918907142e-07
1.46240164895e-07
4.38132850648e-07
1.30147969101e-07
4.55709581378e-07
1.07947853849e-07
4.81340512462e-07
8.14609806903e-08
5.02914614518e-07
5.59549739402e-08
5.14234025037e-07
3.4833588498e-08
5.19624441438e-07
2.04449700008e-08
5.19695541153e-07
1.24803611717e-08
5.14707633558e-07
9.05594235832e-09
5.05947428814e-07
7.898198877e-09
4.98013575659e-07
8.08176152058e-09
4.93293115963e-07
9.95946266172e-09
4.9154276274e-07
1.18315157255e-08
4.95779937167e-07
7.06765298018e-09
5.07792937818e-07
-6.50637123224e-09
5.15480789871e-07
-2.96764661311e-08
4.96044356711e-07
-5.32852391176e-08
4.31562509386e-07
-6.73835714634e-08
3.57422263413e-07
3.24597677186e-07
-6.7712511745e-08
1.69110726265e-07
1.45317670256e-07
1.21132174278e-07
8.4416751063e-08
4.67118157649e-08
1.91716679056e-08
3.01697821047e-09
-5.14692776398e-09
-8.00688097313e-09
-8.42105929498e-09
-9.07163270619e-09
-9.80059619993e-09
-9.08457635583e-09
-8.12728713526e-09
-1.26393654806e-08
-2.20930630643e-08
-3.67748004419e-08
-5.80058254318e-08
-7.47279913022e-08
-7.67690752442e-08
6.7042547393e-11
3.04837596561e-07
-4.0139577913e-10
2.90464624885e-07
-8.47984707181e-10
2.76789336058e-07
-1.28946896351e-09
2.6377362125e-07
-1.7395024007e-09
2.51384113101e-07
-2.20982101426e-09
2.39590064393e-07
-2.71052458503e-09
2.28362346689e-07
-3.24986488142e-09
2.17672932532e-07
-3.83380593661e-09
2.07494570615e-07
-4.46548543499e-09
1.97800661565e-07
-5.14495076392e-09
1.88565447753e-07
-5.86961681394e-09
1.79764708208e-07
-6.63622236951e-09
1.71377184825e-07
-7.44520880217e-09
1.6338697587e-07
-8.30825147552e-09
1.55786626513e-07
-9.25308095568e-09
1.48574389438e-07
-1.02861715999e-08
1.41712039236e-07
-1.11138978631e-08
1.34883308198e-07
-1.00142963185e-08
1.26644451274e-07
1.11715386095e-07
2.87041757505e-10
3.05916294203e-07
-6.94758857555e-10
2.91446425584e-07
-1.62210527468e-09
2.77716679395e-07
-2.52506664435e-09
2.64676581883e-07
-3.42525102289e-09
2.5228429399e-07
-4.3378092516e-09
2.40502621391e-07
-5.27235982828e-09
2.29296893686e-07
-6.2334833258e-09
2.18634054454e-07
-7.22141755716e-09
2.0848250141e-07
-8.23338863767e-09
1.98812630831e-07
-9.26607087442e-09
1.89598126802e-07
-1.03193520931e-08
1.80817987345e-07
-1.14013522965e-08
1.72459181941e-07
-1.25338994623e-08
1.64519520693e-07
-1.37542865463e-08
1.57007010553e-07
-1.50882652714e-08
1.49908365623e-07
-1.63478300652e-08
1.42971601575e-07
-1.64523504579e-08
1.34987826098e-07
-1.23705467127e-08
1.22562644918e-07
9.93448393002e-08
3.6220283017e-10
3.07400090565e-07
-9.93938329563e-10
2.9280256725e-07
-2.26438681513e-09
2.78987124706e-07
-3.47898767303e-09
2.65891182359e-07
-4.65776210873e-09
2.53463064767e-07
-5.81261425841e-09
2.41657472612e-07
-6.94893442928e-09
2.30433210138e-07
-8.06722043254e-09
2.1975233916e-07
-9.16509378209e-09
2.09580371244e-07
-1.02396966291e-08
1.99887232124e-07
-1.12902448324e-08
1.9064867181e-07
-1.23199586972e-08
1.81847699348e-07
-1.33362668243e-08
1.7347548704e-07
-1.43467475929e-08
1.65529999275e-07
-1.53411904539e-08
1.58001450489e-07
-1.62099302777e-08
1.50777103014e-07
-1.6442845287e-08
1.43204514257e-07