/*--------------------------------*- C++ -*----------------------------------*\
| =========                 |                                                 |
| \\      /  F ield         | OpenFOAM: The Open Source CFD Toolbox           |
|  \\    /   O peration     | Version:  2312                                  |
|   \\  /    A nd           | Website:  www.openfoam.com                      |
|    \\/     M anipulation  |                                                 |
\*---------------------------------------------------------------------------*/
FoamFile
{
    version     2.0;
    format      ascii;
    arch        "LSB;label=32;scalar=64";
    class       surfaceScalarField;
    location    "0.785/water";
    object      phi;
}
// * * * * * * * * * * * * * * * * * * * * * * * * * * * * * * * * * * * * * //

dimensions      [0 3 -1 0 0 0 0];

oriented        oriented;

internalField   nonuniform List<scalar> 
2914
(
7.61990952558e-08
5.61833384184e-07
-5.43381546087e-08
6.0776533789e-07
-1.77172491079e-07
6.36520050315e-07
-2.87617215961e-07
6.49854681105e-07
-3.79215146029e-07
6.4593902138e-07
-4.53096410154e-07
6.40323866075e-07
-4.92122929646e-07
6.26609504704e-07
-4.99829145271e-07
6.1494650967e-07
-4.86653139416e-07
6.11653439488e-07
-4.60737622106e-07
6.12670779927e-07
-4.27659309992e-07
6.10379840061e-07
-3.92736908154e-07
5.99102565478e-07
-3.62306576042e-07
5.8139110607e-07
-3.41286423694e-07
5.62070363989e-07
-3.35194330932e-07
5.51066843788e-07
-3.52783898659e-07
5.7705766372e-07
-3.97134785941e-07
6.75978495856e-07
-4.38552176347e-07
8.90002139476e-07
-4.12798729994e-07
1.23599574775e-06
1.51664516916e-06
-3.93823067902e-07
5.44199525534e-08
6.72682629098e-07
-1.82815916994e-07
8.46587156944e-07
-3.96262434853e-07
8.57919420457e-07
-5.82164445747e-07
8.40000446172e-07
-7.15906268979e-07
7.81417963603e-07
-7.89367429632e-07
7.1444963278e-07
-8.10955669258e-07
6.48418546467e-07
-7.94592255468e-07
5.98674380245e-07
-7.56088553234e-07
5.73193126124e-07
-7.0863215351e-07
5.65232185298e-07
-6.61965964341e-07
5.63722220204e-07
-6.24798343813e-07
5.61941329865e-07
-6.0130141457e-07
5.57902139002e-07
-5.9147500594e-07
5.52258002345e-07
-5.95447143587e-07
5.55065705408e-07
-6.0838710165e-07
5.90055161404e-07
-6.12693039353e-07
6.80382418465e-07
-5.73608555631e-07
8.51052094294e-07
-4.46325940567e-07
1.10887982273e-06
1.37495925229e-06
-3.04463975626e-07
1.12148258673e-07
7.2231224722e-07
-7.20670105594e-08
1.03250528048e-06
-2.75079440017e-07
1.06767956517e-06
-4.70315760645e-07
1.04267248183e-06
-6.28606656273e-07
9.44059411547e-07
-7.39697709176e-07
8.2779246367e-07
-8.14217797891e-07
7.23968027053e-07
-8.49219528222e-07
6.34082638542e-07
-8.44565229115e-07
5.68705851162e-07
-8.11916534545e-07
5.32672172567e-07
-7.72278290663e-07
5.2413623993e-07
-7.39011347707e-07
5.28710807295e-07
-7.17397584559e-07
5.36318662486e-07
-7.0914774251e-07
5.44036753382e-07
-7.10134986861e-07
5.56086404555e-07
-7.06767089394e-07
5.8673764907e-07
-6.78912009773e-07
6.52605780255e-07
-5.99910223482e-07
7.72160139526e-07
-4.47387796067e-07
9.56495333232e-07
1.17210701872e-06
-2.44366745388e-07
1.15970617399e-07
6.64138330284e-07
1.59941144154e-07
9.80347640919e-07
1.68018052377e-07
1.05494848552e-06
1.35135528142e-07
1.07379680875e-06
2.4804909555e-08
1.05400911615e-06
-1.6058681924e-07
1.01328491599e-06
-3.92150778511e-07
9.55760867572e-07
-5.86393390325e-07
8.290348871e-07
-6.92333371441e-07
6.75168613292e-07
-7.28421089944e-07
5.68973131735e-07
-7.25192833465e-07
5.21013748727e-07
-7.06924118904e-07
5.10513626599e-07
-6.89955959289e-07
5.19405811406e-07
-6.80203376926e-07
5.34333014838e-07
-6.75963182815e-07
5.5188869298e-07
-6.66147378862e-07
5.76967053806e-07
-6.33165547482e-07
6.19675425909e-07
-5.56155119866e-07
6.95217117136e-07
-4.14624975904e-07
8.15057608845e-07
9.74749098819e-07
-2.17151144785e-07
1.04060047442e-07
5.75401576201e-07
1.84176334809e-07
8.82467781115e-07
2.4283418525e-07
9.83164460179e-07
2.83540493403e-07
1.02509208911e-06
2.93181700407e-07
1.03985307839e-06
2.63404819942e-07
1.04065856695e-06
1.82927243319e-07
1.03510415596e-06
1.56099180381e-09
1.01011845236e-06
-2.73913327455e-07
9.50573947219e-07
-4.82787349194e-07
7.78104037015e-07
-5.62021215375e-07
6.00473421535e-07
-5.81746028781e-07
5.30338717154e-07
-5.796172435e-07
5.17344685716e-07
-5.72720995729e-07
5.2749154477e-07
-5.66364127994e-07
5.45579701918e-07
-5.57208085159e-07
5.67852767781e-07
-5.3428163786e-07
5.96788849999e-07
-4.78918951471e-07
6.39894132069e-07
-3.73441335208e-07
7.09625691446e-07
8.14337562283e-07
-2.12968740386e-07
8.53648020175e-08
5.0296663838e-07
1.56063067259e-07
7.90825723953e-07
2.23119807024e-07
8.99757638879e-07
2.82973830337e-07
9.54460314207e-07
3.28489221244e-07
9.87776071008e-07
3.52950058142e-07
1.01230556247e-06
3.5409916761e-07
1.03179745797e-06
3.20242679408e-07
1.04289230046e-06
2.33016158536e-07
1.03732200117e-06
1.24959347321e-08
9.98540088901e-07
-2.73780791765e-07
8.86737838933e-07
-3.89399165434e-07
6.46112909235e-07
-4.24796450542e-07
5.52832139165e-07
-4.34148828053e-07
5.36899141402e-07
-4.32573660761e-07
5.44049814266e-07
-4.25315428426e-07
5.60633365237e-07
-4.10662573334e-07
5.82170231879e-07
-3.79535270388e-07
6.08797097979e-07
-3.15389006191e-07
6.45508426844e-07
7.05288623052e-07
-2.06307337341e-07
7.0518511256e-08
4.47944939507e-07
1.29180312675e-07
7.11312923843e-07
1.9500187198e-07
8.16607058675e-07
2.55910451895e-07
8.81664012744e-07
3.06916273946e-07
9.29241322689e-07
3.4649373127e-07
9.68195697044e-07
3.72600265671e-07
1.00295987329e-06
3.8076548699e-07
1.03319826949e-06
3.61992438898e-07
1.05526708675e-06
3.00291265484e-07
1.05984749426e-06
1.60981554553e-07
1.02588753368e-06
-1.04014774484e-07
9.11089944235e-07
-2.26929464121e-07
6.75794149576e-07
-2.72598660383e-07
5.82633410982e-07
-2.89793728566e-07
5.61287619061e-07
-2.91463370801e-07
5.6233780553e-07
-2.83135043236e-07
5.73871624868e-07
-2.65441134372e-07
5.91129942219e-07
-2.33044905356e-07
6.13134936824e-07
6.43738073077e-07
-1.71471878312e-07
5.73564720952e-08
4.08675671422e-07
1.06764505713e-07
6.42903203106e-07
1.709041965e-07
7.35721220464e-07
2.3385944449e-07
8.06546057595e-07
2.83846588051e-07
8.71338056985e-07
3.24756071701e-07
9.2231938665e-07
3.56785908647e-07
9.67943635127e-07
3.78821687766e-07
1.00934333546e-06
3.87581871916e-07
1.04546597923e-06
3.75122608984e-07
1.07171846928e-06
3.2264546571e-07
1.07806052105e-06
2.13109986283e-07
1.02049878779e-06
-2.65826046333e-09
8.91553449176e-07
-8.80525703646e-08
6.68048629107e-07
-1.36265338431e-07
6.09542314404e-07
-1.57009464173e-07
5.8311462179e-07
-1.60490396793e-07
5.77378347183e-07
-1.52528490179e-07
5.83190894142e-07
-1.35266817701e-07
5.95894493149e-07
6.14025743905e-07
-1.05535466344e-07
4.73004809577e-08
3.80905195715e-07
8.83028005533e-08
5.85249629856e-07
1.45736223584e-07
6.63443738247e-07
2.08341329033e-07
7.32838383113e-07
2.61017921738e-07
8.11004612728e-07
2.98115677551e-07
8.80293618727e-07
3.28888955517e-07
9.34039749572e-07
3.52758294928e-07
9.83573748492e-07
3.68811891111e-07
1.02823730152e-06
3.73762419e-07
1.0660771894e-06
3.62694171405e-07
1.08872242551e-06
3.15896512212e-07
1.06708278268e-06
2.40647391805e-07
9.6670500819e-07
8.34006622633e-08
8.25276879893e-07
1.68267509544e-08
6.76136817282e-07
-2.30941645947e-08
6.23063057554e-07
-4.20838013341e-08
5.96392651835e-07
-4.57196283733e-08
5.8684745744e-07
-3.89335286164e-08
5.89127531733e-07
5.99586798872e-07
-2.4475692727e-08
4.20873290512e-08
3.58801960668e-07
7.33975726927e-08
5.38902344841e-07
1.17879298762e-07
6.06436428588e-07
1.71396140209e-07
6.70147791449e-07
2.25550478037e-07
7.50367332677e-07
2.63406545195e-07
8.37958076484e-07
2.89367641677e-07
9.05174513437e-07
3.10057926808e-07
9.61011412962e-07
3.24834568517e-07
1.01230422701e-06
3.32712965658e-07
1.05747551376e-06
3.29430898617e-07
1.09156792655e-06
3.0906392606e-07
1.08720116604e-06
2.62638457659e-07
1.01300627205e-06
1.96646411652e-07
8.9122492437e-07
1.3538771619e-07
7.37398410053e-07
9.29639730345e-08
6.65510134919e-07
6.53642632036e-08
6.24018529287e-07
5.16912505426e-08
6.00542694965e-07
4.88325183154e-08
5.92005184303e-07
5.95439106778e-07
5.29991399468e-08
4.26165825752e-08
3.42018715822e-07
6.21546302939e-08
5.04619815212e-07
9.12805293521e-08
5.66367748789e-07
1.29470674604e-07
6.2462743707e-07
1.75789506532e-07
6.99052269543e-07
2.17658816928e-07
7.92536944635e-07
2.43167101597e-07
8.77179603657e-07
2.60214106903e-07
9.4232741952e-07
2.73396178719e-07
9.98050760925e-07
2.82216163603e-07
1.04797875294e-06
2.86269186728e-07
1.08708508001e-06
2.84553204043e-07
1.0886627426e-06
2.72742906505e-07
1.02468023588e-06
2.43816588914e-07
9.20096858682e-07
2.05496059071e-07
7.75714008307e-07
1.73446086202e-07
6.97579123358e-07
1.48296062506e-07
6.49194903488e-07
1.31215802356e-07
6.17648181276e-07
1.22046658255e-07
6.01195271489e-07
5.98648918897e-07
1.18857019647e-07
4.03489830324e-08
3.35433226539e-07
4.73450567604e-08
4.83000883191e-07
6.19632358492e-08
5.42175062214e-07
8.41887513391e-08
5.96896810466e-07
1.15343283734e-07
6.64470916521e-07
1.54311929163e-07
7.511206079e-07
1.8462983213e-07
8.45036498066e-07
2.03508932963e-07
9.22141448819e-07
2.16869912361e-07
9.83799536017e-07
2.28999587102e-07
1.03525494522e-06
2.41910730099e-07
1.07378454311e-06
2.57265131473e-07
1.07307038171e-06
2.64653725872e-07
1.01716154894e-06
2.59361110916e-07
9.25336304439e-07
2.41291756016e-07
7.93777276506e-07
2.20786029318e-07
7.18102193422e-07
2.02039512208e-07
6.67967199471e-07
1.86831837391e-07
6.32881711836e-07
1.75751331822e-07
6.1229759682e-07
6.0586606966e-07
1.68555217518e-07
2.9616647591e-08
3.42499692141e-07
2.04494024668e-08
4.78787593247e-07
2.12546484011e-08
5.35205847679e-07
2.75540414995e-08
5.87358036019e-07
4.11690229084e-08
6.48898673538e-07
6.75464214021e-08
7.23322059996e-07
1.00612094784e-07
8.10833379114e-07
1.27102854215e-07
8.94773149186e-07
1.46980706781e-07
9.63272457001e-07
1.67050176659e-07
1.01472734983e-06
1.92331906816e-07
1.04819109685e-06
2.21436952194e-07
1.04377292692e-06
2.44364243503e-07
9.94131347009e-07
2.60189486222e-07
9.09473412709e-07
2.5917200838e-07
7.94794352894e-07
2.47742588637e-07
7.2955047953e-07
2.34464450669e-07
6.81271529255e-07
2.21983696664e-07
6.45388479659e-07
2.1113718149e-07
6.23165968884e-07
6.14850976568e-07
2.02173055209e-07
1.13655840348e-08
3.77117126444e-07
-2.26783282661e-08
5.04567402363e-07
-4.01629730934e-08
5.50536921087e-07
-4.99197328188e-08
5.95994390111e-07
-5.08476439865e-08
6.49000100149e-07
-3.73082100503e-08
7.09091889768e-07
-7.47788435838e-09
7.80395633157e-07
2.76097516559e-08
8.5917168354e-07
6.00221179677e-08
9.30455918965e-07
9.22866313442e-08
9.82174120043e-07
1.28277233845e-07
1.01199724294e-06
1.64305864462e-07
1.00762396418e-06
1.9597328753e-07
9.62407741911e-07
2.55122519642e-07
8.50309244375e-07
2.64400998815e-07
7.85523746913e-07
2.60882208817e-07
7.33091564285e-07
2.53040155019e-07
6.89141243173e-07
2.43542947991e-07
6.54912355936e-07
2.32940100017e-07
6.33791297901e-07
6.25043932782e-07
2.22769449071e-07
-4.04890418104e-08
5.10664199502e-07
-1.20845026578e-07
5.9336600395e-07
-1.61397489538e-07
5.96039730833e-07
-1.82337255675e-07
6.17988406993e-07
-1.86981940649e-07
6.5366503472e-07
-1.6499207348e-07
6.868985282e-07
-1.22292200568e-07
7.37439889773e-07
-7.25851956141e-08
8.09220825734e-07
-2.5262773179e-08
8.82936912966e-07
2.02882279756e-08
9.36483247186e-07
6.9991775117e-08
9.62191700973e-07
1.28887974894e-07
9.48670693659e-07
2.19293307467e-07
8.71974303673e-07
2.50417031413e-07
8.19184168928e-07
2.61775755151e-07
7.74180142229e-07
2.63818305432e-07
7.31074151219e-07
2.60674411286e-07
6.92312934026e-07
2.53125512728e-07
6.62487072667e-07
2.42135142765e-07
6.4480493158e-07
6.35989899014e-07
2.31210462619e-07
-2.13066712571e-07
8.59619243601e-07
-4.63360194035e-07
8.77564431254e-07
-4.18192196216e-07
5.66264636005e-07
-3.73752746553e-07
5.7611704937e-07
-3.24536846174e-07
6.04841631684e-07
-2.70790465523e-07
6.33180651327e-07
-2.11644014131e-07
6.7823925971e-07
-1.42752754368e-07
7.40258033081e-07
-6.86038080918e-08
8.08720705963e-07
1.11771187612e-08
8.56661341689e-07
9.85718342999e-08
8.74753498778e-07
1.8367363832e-07
8.63546394541e-07
2.21320292556e-07
8.34325477772e-07
2.42097293954e-07
7.98420415679e-07
2.5401862418e-07
7.62281154313e-07
2.59279974636e-07
7.25838917348e-07
2.57749420312e-07
6.93868804484e-07
2.49258017949e-07
6.71001447094e-07
2.38482013617e-07
6.55596136693e-07
6.46984506612e-07
2.27503246814e-07
-2.788635518e-08
1.02632104017e-06
-2.09780005611e-07
1.07532645018e-06
-2.27175085005e-07
5.92282021463e-07
-2.07795586175e-07
5.58278387679e-07
-1.81236438965e-07
5.78470958523e-07
-1.49840570895e-07
6.01800825367e-07
-1.13408247796e-07
6.41795458376e-07
-6.82470422151e-08
6.95078604929e-07
-1.04890150444e-08
7.50944659577e-07
5.48189060952e-08
7.91342247326e-07
1.16872783189e-07
8.12688804291e-07
1.6659672622e-07
8.13822054051e-07
2.02133248414e-07
7.98799259649e-07
2.25080578136e-07
7.75490639405e-07
2.39488904633e-07
7.47893763659e-07
2.44839397318e-07
7.20508900101e-07
2.40854519666e-07
6.97870779549e-07
2.32056686377e-07
6.79814599722e-07
2.22204457005e-07
6.65465244919e-07
6.55510152338e-07
2.13703274484e-07
1.26118080704e-07
1.02979592262e-06
2.39596645006e-08
1.17645541026e-06
-8.00686919394e-08
6.97073776385e-07
-9.87631748217e-08
5.78983163253e-07
-9.11659129899e-08
5.71164455719e-07
-7.1863378406e-08
5.82545239534e-07
-4.61782644423e-08
6.16132054184e-07
-1.38529739981e-08
6.62771216303e-07
2.66977502859e-08
7.10412108397e-07
7.17180915572e-08
7.4633781161e-07
1.16142414943e-07
7.68278992058e-07
1.55088859913e-07
7.74891179378e-07
1.85038642449e-07
7.68867036568e-07
2.05928551879e-07
7.5462030577e-07
2.16910546589e-07
7.3693132498e-07
2.17449284801e-07
7.19989298304e-07
2.11760392829e-07
7.03578804426e-07
2.03861708067e-07
6.87735469078e-07
1.97567645159e-07
6.71775575747e-07
6.57926671864e-07
1.95167433463e-07
1.96209031876e-07
9.65203154662e-07
1.68657574837e-07
1.18111739289e-06
4.47881596344e-08
8.14791375976e-07
-1.44290110177e-08
6.38245377526e-07
-2.89901086568e-08
5.86069352273e-07
-2.31861818175e-08
5.76810104849e-07
-7.88714881156e-09
6.00866429295e-07
1.41476814573e-08
6.40765544395e-07
4.32888478327e-08
6.81295322969e-07
7.60171306688e-08
7.1363031643e-07
1.08926071274e-07
7.35387640142e-07
1.38343994517e-07
7.45489286781e-07
1.61085412819e-07
7.46140908499e-07
1.75175674005e-07
7.40545317845e-07
1.80616753186e-07
7.31505058979e-07
1.78297261046e-07
7.22323497293e-07
1.72924349731e-07
7.08967489034e-07
1.69720946902e-07
6.90942423722e-07
1.71779953715e-07
6.6971981925e-07
6.52381152204e-07
1.77339320256e-07
1.43218325107e-07
9.64876711459e-07
1.98455959068e-07
1.09777283709e-06
1.08303149296e-07
8.94030301382e-07
3.9530189776e-08
7.05615301461e-07
1.12103788443e-08
6.14436037856e-07
5.0942216623e-09
5.8296572324e-07
1.0480020106e-08
5.95497326902e-07
2.38976740615e-08
6.27362004657e-07
4.27355734458e-08
6.62469350177e-07
6.41698826015e-08
6.92205996328e-07
8.58923181744e-08
7.13672558885e-07
1.05381455031e-07
7.2600780297e-07
1.20820333003e-07
7.30708002273e-07
1.29693592408e-07
7.31679828714e-07
1.31194341093e-07
7.30013524575e-07
1.29907975171e-07
7.2362073886e-07
1.30655548834e-07
7.08217884265e-07
1.3886213846e-07
6.82732270007e-07
1.51522422506e-07
6.5707042441e-07
6.39072939808e-07
1.64839477205e-07
1.59558116222e-07
9.54472966389e-07
1.90762327264e-07
1.03692037267e-06
1.09839639144e-07
9.62803294238e-07
4.50965058834e-08
7.68338317886e-07
1.6430613647e-08
6.43074727906e-07
5.6815454619e-09
5.93727459053e-07
4.8729407399e-09
5.96304204583e-07
1.17211493711e-08
6.20513317901e-07
2.25252858189e-08
6.51665490319e-07
3.57804758704e-08
6.7894958962e-07
4.99045739004e-08
6.99550695519e-07
6.3208103107e-08
7.12706096052e-07
7.24023073634e-08
7.21519193496e-07
7.58307815816e-08
7.28257693968e-07
7.6659055563e-08
7.29189439696e-07
8.25290345239e-08
7.17750354765e-07
9.7550943148e-08
6.93194372756e-07
1.18408510603e-07
6.61883735978e-07
1.39268660732e-07
6.36214994155e-07
6.17996231702e-07
1.60347351549e-07
1.94206972846e-07
9.09004679139e-07
1.86241126402e-07
1.01839405259e-06
7.26743714628e-08
1.06746169867e-06
1.26626627377e-08
8.28201687708e-07
-1.53969024376e-08
6.71673477886e-07
-2.82920647341e-08
6.06748614824e-07
-3.08664198087e-08
5.98893113111e-07
-2.61669626332e-08
6.15812376507e-07
-1.65096486253e-08
6.42003950991e-07
-4.6278614457e-09
6.67066615904e-07
7.3439234228e-09
6.87579344357e-07
1.55640096386e-08
7.0448473476e-07
1.77721150935e-08
7.19312914831e-07
1.97469729263e-08
7.2628255609e-07
3.06265561005e-08
7.1831340183e-07
5.22319908987e-08
6.96148087591e-07
8.01661004077e-08
6.6526602854e-07
1.07939019922e-07
6.34112403792e-07
1.32341371052e-07
6.11810865091e-07
5.91059098632e-07
1.59274472801e-07
2.27220967905e-07
8.46468787745e-07
2.08493788305e-07
1.02020166126e-06
6.02930986004e-08
1.2124573607e-06
1.55226450558e-08
8.74163698492e-07
-1.9796697901e-08
7.08137989538e-07
-4.73914914631e-08
6.34699644488e-07
-5.99848589667e-08
6.1156100617e-07
-6.06444372859e-08
6.16475817812e-07
-5.37494237031e-08
6.35102852179e-07
-4.5208500906e-08
6.58521350741e-07
-3.91935715182e-08
6.81558239849e-07
-3.73069685821e-08
7.02597446061e-07
-3.2148210412e-08
7.14156265863e-07
-1.58112246683e-08
7.09951927265e-07
1.08116490101e-08
6.91696032678e-07
4.29356041843e-08
6.64026501046e-07
7.49466869689e-08
6.33254901678e-07
1.01453709332e-07
6.0760191606e-07
1.25735829196e-07
5.87522761883e-07
5.62201462886e-07
1.54584740483e-07
2.4315775883e-07
7.73859937919e-07
2.32572749459e-07
1.009632133e-06
3.49453932726e-07
1.08037367215e-06
2.17910622058e-07
9.982753913e-07
9.62056371981e-08
8.27425796574e-07
2.26231221502e-08
7.07884644652e-07
-2.35899283694e-08
6.57776297835e-07
-4.80024209807e-08
6.40898857665e-07
-5.93171631496e-08
6.464251635e-07
-6.47771032711e-08
6.63989142396e-07
-6.64593370809e-08
6.832518974e-07
-5.97746048572e-08
6.95926695772e-07
-4.11077229069e-08
6.95502676648e-07
-1.38775510609e-08
6.8273263058e-07
1.75631006791e-08
6.60261473418e-07
4.89357008031e-08
6.3265605388e-07
7.52936468071e-08
6.06895306557e-07
9.57151670233e-08
5.87175511294e-07
1.1685609198e-07
5.66374071932e-07
5.34401201388e-07
1.44644429936e-07
2.26556400392e-07
6.52820830491e-07
2.85385315809e-07
9.18388859274e-07
3.53420843047e-07
9.8947182618e-07
3.86690865517e-07
9.51622692815e-07
3.02186475037e-07
9.05938982592e-07
1.43149834132e-07
8.64864695729e-07
4.21560307959e-08
7.58290620054e-07
-4.578464381e-09
6.87594427904e-07
-3.14163634813e-08
6.73275670572e-07
-4.46434890071e-08
6.7723563951e-07
-4.48427754521e-08
6.83470889065e-07
-3.26779699954e-08
6.83779664632e-07
-1.26303932041e-08
6.75469725958e-07
1.1791212569e-08
6.58321109168e-07
3.72316003707e-08
6.34827102632e-07
5.95215873807e-08
6.10367918655e-07
7.51769910499e-08
5.91239013721e-07
8.86719375563e-08
5.73677307086e-07
1.05180835275e-07
5.49858980215e-07
5.09989370775e-07
1.29583122883e-07
1.38875561011e-07
5.79064129261e-07
1.89414597105e-07
8.36376015685e-07
2.50528444155e-07
9.0571828611e-07
2.72915424405e-07
9.16984727336e-07
2.57785166652e-07
9.15601183109e-07
2.13137644958e-07
9.07451437438e-07
9.33697169583e-08
8.77570133443e-07
3.87512544565e-08
7.42150490321e-07
1.21040295745e-08
6.9992459501e-07
7.74539166502e-10
6.88576400021e-07
1.0349947428e-09
6.83222650921e-07
9.13098852119e-09
6.75695375942e-07
2.25692438885e-08
6.62041941854e-07
3.87215768303e-08
6.42177013849e-07
5.37960509825e-08
6.19757074039e-07
6.37404148368e-08
6.00425387307e-07
7.01935581749e-08
5.84786881122e-07
7.69219871026e-08
5.66949292237e-07
8.82428066675e-08
5.3853892741e-07
4.90488074204e-07
1.07745693961e-07
9.7943583881e-08
5.47267978974e-07
1.12845182653e-07
7.88349528529e-07
1.46168258068e-07
8.52671920843e-07
1.7106134211e-07
8.82438437022e-07
1.73198794096e-07
9.09347381911e-07
1.51593231992e-07
9.2753412459e-07
1.14880974328e-07
9.13844293864e-07
7.80685156009e-08
7.78883234465e-07
5.662312181e-08
7.21357085817e-07
4.49208394926e-08
7.00280575898e-07
4.05419879429e-08
6.8760740537e-07
4.21809261072e-08
6.74063872004e-07
4.79767387431e-08
6.56252636903e-07
5.4413247574e-08
6.35744654387e-07
5.82949356124e-08
6.15877122298e-07
5.79862935195e-08
6.00735413406e-07
5.6781178407e-08
5.85994000106e-07
5.74620895891e-08
5.66271222134e-07
6.27782985675e-08
5.3322624975e-07
4.77716668468e-07
7.5553616672e-08
3.33349265068e-08
5.78314839288e-07
2.50587522586e-08
7.70750712772e-07
5.60196739185e-08
8.08961750307e-07
9.51342675555e-08
8.37360016288e-07
1.17640955222e-07
8.84096752936e-07
1.2673541524e-07
9.17298565194e-07
1.26436477834e-07
9.13775948621e-07
1.1140953535e-07
7.93817727399e-07
9.16610262501e-08
7.41080787919e-07
7.65185360289e-08
7.15418437872e-07
6.70826791307e-08
6.9704464402e-07
6.25331967726e-08
6.78616203276e-07
6.00435340089e-08
6.58744452396e-07
5.69260657704e-08
6.38863021711e-07
5.0310772467e-08
6.22493133302e-07
4.22526436905e-08
6.08795193143e-07
3.4006012362e-08
5.94243759521e-07
2.8327392207e-08
5.71954003723e-07
2.61296701469e-08
5.35428808852e-07
4.80883032666e-07
2.29671989155e-08
-1.29431514133e-07
7.90856298342e-07
-2.46378954929e-07
9.02976212819e-07
-1.52517415286e-07
7.23253054749e-07
-3.45522258672e-08
7.19410518912e-07
4.16536122675e-08
8.06773725802e-07
8.09784690515e-08
8.773438771e-07
1.38270095257e-07
8.56218198575e-07
1.31725077509e-07
8.00272605387e-07
1.12905146707e-07
7.59873648628e-07
9.54090587802e-08
7.32907196873e-07
8.17973732458e-08
7.10654430096e-07
7.08233997461e-08
6.89589508773e-07
6.00704121103e-08
6.69496562598e-07
4.78691063731e-08
6.51063433514e-07
3.32649850347e-08
6.37097434851e-07
1.83166143383e-08
6.23745222677e-07
4.40047671845e-09
6.08162908342e-07
-7.23874852722e-09
5.83596071713e-07
-1.69918750987e-08
5.45183647659e-07
5.02939823516e-07
-3.90443811554e-08
-2.36067803675e-07
1.170886081e-06
-2.69874454847e-07
9.68123619244e-07
-1.51898969924e-07
6.12005599201e-07
-8.56358488754e-08
6.53300153684e-07
-5.06547082342e-09
7.25735374249e-07
8.26721603151e-08
7.89229085962e-07
1.25182159461e-07
8.13526347215e-07
1.28738433267e-07
7.96641445162e-07
1.16076388252e-07
7.72504462733e-07
9.99192205615e-08
7.49049684892e-07
8.36797207932e-08
7.26885654449e-07
6.71716806293e-08
7.06092517008e-07
4.96643011696e-08
6.87000595125e-07
2.94992891529e-08
6.71227098947e-07
8.96687106012e-09
6.57630417011e-07
-1.1536755129e-08
6.44250966016e-07
-3.01482755179e-08
6.2677715853e-07
-4.79619121001e-08
6.01411664617e-07
-7.12113885613e-08
5.68434313871e-07
5.41944463358e-07
-1.10211764389e-07
-2.53721385139e-07
1.54185405589e-06
-9.71773995752e-08
8.46909250826e-07
-6.85746763227e-08
5.88726946068e-07
-2.76460902057e-08
6.12528962172e-07
2.05586879932e-08
6.77225612798e-07
7.0518703891e-08
7.39068448265e-07
1.07182359368e-07
7.76769932668e-07
1.17356967019e-07
7.86430506702e-07
1.10777275983e-07
7.79070785295e-07
9.64000847615e-08
7.63421607067e-07
7.8019666019e-08
7.4526316937e-07
5.6468838943e-08
7.27641428623e-07
3.279486116e-08
7.10673702194e-07
6.95215570112e-09
6.9707105364e-07
-1.78875404399e-08
6.82473601687e-07
-4.05970714054e-08
6.66965706616e-07
-6.04550224707e-08
6.46639698038e-07
-8.04571137405e-08
6.21416019627e-07
-1.13053914595e-07
6.01033902585e-07
5.9959133324e-07
-1.70691590586e-07
1.12768504149e-07
1.51242996612e-06
4.35010575567e-08
8.98134667017e-07
1.85225641679e-08
6.16572150687e-07
2.93097052438e-08
6.02527528064e-07
5.53048817829e-08
6.51192873204e-07
8.58063342392e-08
7.085048735e-07
1.08611692967e-07
7.53944600811e-07
1.15756364921e-07
7.79290746018e-07
1.09173082175e-07
7.85667336631e-07
9.35703241871e-08
7.79037335248e-07
7.16609174797e-08
7.67181739503e-07
4.52866474739e-08
7.54022090923e-07
1.4298038447e-08
7.4166867301e-07
-1.60684472313e-08
7.27444999311e-07
-4.36350906078e-08
7.10049617082e-07
-6.62797740375e-08
6.89620625639e-07
-8.4501018293e-08
6.64868174498e-07
-1.04989595958e-07
6.41908119381e-07
-1.36953166104e-07
6.33001952425e-07
6.56088185815e-07
-1.93434640396e-07
2.34691795113e-07
1.35887753968e-06
1.64854303465e-07
9.24248054291e-07
1.09564914683e-07
6.67868233374e-07
8.99145794566e-08
6.22768784749e-07
9.03981802474e-08
6.50888542727e-07
1.01262546167e-07
6.97684938162e-07
1.11519420352e-07
7.43727760114e-07
1.139169029e-07
7.76937047163e-07
1.06096076064e-07
7.93528640339e-07
8.90581594483e-08
7.9610741026e-07
6.44591827617e-08
7.91803139462e-07
3.31562878397e-08
7.85341360868e-07
-2.5237006983e-09
7.77363346873e-07
-3.67093692809e-08
7.61646156988e-07
-6.62802807953e-08
7.39637657523e-07
-8.79681032211e-08
7.11323451939e-07
-1.02672832062e-07
6.79581608274e-07
-1.20002325572e-07
6.59242785042e-07
-1.45322080374e-07
6.58329525039e-07
6.91342373013e-07
-1.80553566967e-07
2.44648296233e-07
1.20577444193e-06
2.1227498514e-07
9.04157946649e-07
1.62081060911e-07
7.06819186591e-07
1.2577108525e-07
6.57998489167e-07
1.06706212505e-07
6.69952407066e-07
1.00721449217e-07
7.03725052779e-07
1.00193977516e-07
7.44314398364e-07
9.8221349098e-08
7.78968150326e-07
8.98320192257e-08
8.01969925692e-07
7.29119547206e-08
8.13068604179e-07
4.88326131411e-08
8.15912299404e-07
1.65584525648e-08
8.17640896499e-07
-1.86004193993e-08
8.1254699154e-07
-5.44081170028e-08
7.97479593922e-07
-8.59688667808e-08
7.71226003172e-07
-1.06491906018e-07
7.31868852748e-07
-1.17972893738e-07
6.91074507145e-07
-1.28150182793e-07
6.69427337041e-07
-1.41721764198e-07
6.71912286061e-07
7.01810345113e-07
-1.52164180341e-07
2.19707567845e-07
1.09609264105e-06
1.97403436238e-07
8.8247987671e-07
1.54886177469e-07
7.38569747984e-07
1.17280673893e-07
6.94231669485e-07
9.25624288439e-08
6.94684943829e-07
7.95433661336e-08
7.16847876127e-07
7.3612083761e-08
7.50334272967e-07
6.93993407172e-08
7.83259406083e-07
6.2482331409e-08
8.08955799684e-07
4.96803533957e-08
8.25927348175e-07
2.97721677779e-08
8.35865948742e-07
2.69245685935e-09
8.44765412748e-07
-3.19359082247e-08
8.47223253847e-07
-7.46159016829e-08
8.40214650085e-07
-1.11356444399e-07
8.08019463015e-07
-1.29901084244e-07
7.50447908779e-07
-1.35425084752e-07
6.96614975939e-07
-1.35169001253e-07
6.69182201344e-07
-1.32972537975e-07
6.69730763255e-07
6.92060566417e-07
-1.23198494834e-07
2.13261106994e-07
1.01161178668e-06
1.92791189994e-07
8.68580127695e-07
1.49168980273e-07
7.73285437441e-07
1.0927437862e-07
7.33029291545e-07
8.16246769056e-08
7.22462459385e-07
6.65327910997e-08
7.32106849713e-07
6.02525985472e-08
7.56723749883e-07
5.80751546606e-08
7.85511811e-07
5.5359272793e-08
8.11728236782e-07
4.84472740782e-08
8.32883431626e-07
3.36591777132e-08
8.50688473083e-07
8.98238657859e-09
8.69471493192e-07
-3.23619080061e-08
8.88592419998e-07
-8.65318229123e-08
8.94414003025e-07
-1.2814004698e-07
8.49660987422e-07
-1.44037723072e-07
7.6636722956e-07
-1.40934535693e-07
6.93525513364e-07
-1.28669579566e-07
6.56930646779e-07
-1.11748343154e-07
6.52825769398e-07
6.7225817555e-07
-9.19251686128e-08
2.00163465984e-07
1.90212198973e-07
1.60539487721e-07
1.28948588804e-07
1.05270862112e-07
9.0731731707e-08
8.37020386104e-08
8.10639435595e-08
7.95921730527e-08
7.6087081618e-08
6.57681033473e-08
4.38121961453e-08
4.36177771383e-09
-4.46190589556e-08
-8.0238158642e-08
-9.14193342096e-08
-8.60206037189e-08
-7.31894792958e-08
-5.87804348747e-08
-4.60323556157e-08
3.52071398593e-08
3.42900875797e-07
5.07204116892e-08
2.33037085019e-07
6.23371803238e-08
1.60088914238e-07
7.03812142902e-08
1.15031592323e-07
7.98441568006e-08
8.3588896185e-08
9.714337292e-08
4.86893427267e-08
1.19489364225e-07
1.38211499949e-08
1.4078497834e-07
-1.32310143678e-08
1.59378088861e-07
-3.58219053028e-08
1.78107287857e-07
-5.90352381362e-08
1.96611715192e-07
-7.63411389745e-08
1.78014257025e-07
-2.21535110987e-08
2.11512194769e-08
3.27833676863e-07
-2.55018960578e-08
4.11911809668e-07
-1.11194558177e-08
-9.3994288377e-08
-8.47925230837e-08
-3.36381385484e-07
1.51904585128e-06
-1.74380834431e-07
1.09639131601e-06
-4.32542314942e-08
7.35115575231e-07
5.21365680017e-09
4.82827979562e-07
1.96469402417e-08
3.28507605374e-07
2.52555618616e-08
2.27450817491e-07
2.44172918219e-08
1.60939024185e-07
2.40482090807e-08
1.15405919472e-07
3.19703281865e-08
7.56667399157e-08
5.10777618241e-08
2.95785488844e-08
7.51767366351e-08
-1.02807722487e-08
9.55185912041e-08
-3.35740595184e-08
1.11216566899e-07
-5.15199322407e-08
1.25627677878e-07
-7.34459890815e-08
1.35392863328e-07
-8.61063446259e-08
5.36991341741e-08
5.95380688573e-08
-6.88274344224e-08
4.50415133234e-07
-1.32714853063e-08
3.56413380348e-07
-5.55731892935e-09
-1.01707878484e-07
-9.03498436726e-08
-1.85106563375e-07
1.39987970479e-06
-7.60841126331e-08
9.87503600094e-07
-1.87138508732e-08
6.77832835657e-07
-7.70865640108e-09
4.7187636976e-07
-7.97794609847e-09
3.28807590374e-07
-1.3797814811e-08
2.33287666859e-07
-2.47863901758e-08
1.71938077786e-07
-3.33666184598e-08
1.23992225788e-07
-3.03532057824e-08
7.26558817203e-08
-1.43211487409e-08
1.3546719676e-08
4.65871827464e-09
-2.92604137576e-08
1.89097648886e-08
-4.78249084369e-08
3.01143698968e-08
-6.27244019544e-08
3.88724653732e-08
-8.22039140921e-08
2.7296985878e-08
-7.45287273926e-08
-1.01140288576e-07
1.88011353908e-07
-7.74517783503e-08
4.26777418279e-07
-4.34893306279e-09
2.83356556658e-07
-1.58549305631e-09
-1.04473713624e-07
-9.19353418741e-08
-7.96552141878e-08
1.2353332295e-06
-1.66542374717e-08
9.24612553367e-07
-8.2393023843e-09
6.69486188483e-07
-1.85166062199e-08
4.82192978027e-07
-3.16994483553e-08
3.42010350865e-07
-4.68668643931e-08
2.48465323669e-07
-6.2689947833e-08
1.87766984102e-07
-7.69828801633e-08
1.38287282982e-07
-8.48831911728e-08
8.05554010411e-08
-7.97686666328e-08
8.4309310565e-09
-7.14876526749e-08
-3.7541488146e-08
-6.60620492595e-08
-5.3250569196e-08
-6.18839710423e-08
-6.6902517159e-08
-6.2424429102e-08
-8.16634105453e-08
-8.95035499795e-08
-4.74452015811e-08
-8.05949617431e-08
1.79121196375e-07
-5.2974453738e-08
3.99187356685e-07
2.59004817835e-09
2.27816195784e-07
1.01630928102e-09
-1.02896339921e-07