/*--------------------------------*- C++ -*----------------------------------*\
| =========                 |                                                 |
| \\      /  F ield         | OpenFOAM: The Open Source CFD Toolbox           |
|  \\    /   O peration     | Version:  2312                                  |
|   \\  /    A nd           | Website:  www.openfoam.com                      |
|    \\/     M anipulation  |                                                 |
\*---------------------------------------------------------------------------*/
FoamFile
{
    version     2.0;
    format      ascii;
    arch        "LSB;label=32;scalar=64";
    class       volScalarField;
    location    "0.215/water";
    object      T.gas;
}
// * * * * * * * * * * * * * * * * * * * * * * * * * * * * * * * * * * * * * //

dimensions      [0 0 0 1 0 0 0];

internalField   nonuniform List<scalar> 
1504
(
406.341038044
339.081166987
313.488819077
304.782030548
301.888924937
300.849687843
300.45222987
300.280288021
300.185154818
300.117672229
300.06661205
300.029814982
300.009290428
300.002132732
300.000406785
300.000069033
300.000008632
300
300
300
405.829033089
339.017173504
313.683668663
304.911322793
301.912511425
300.8482564
300.451305465
300.279932867
300.182866213
300.114731153
300.06425078
300.028747998
300.009118034
300.002164527
300.000418307
300.000074716
300.000009624
300
300
300
406.387738532
339.274010211
314.228381982
305.204380592
301.992733486
300.864178763
300.454298698
300.278686484
300.178748845
300.110732056
300.061454655
300.027520531
300.008929164
300.002157111
300.000428274
300.000080023
300.000010584
300
300
300
410.055241494
340.871466194
315.230992077
305.652016778
302.140056908
300.906857445
300.46567954
300.277340629
300.174375844
300.10645889
300.058650347
300.026497054
300.008754907
300.002150255
300.000441193
300.000084764
300.000011273
300
300
300
412.858419255
343.164013744
316.285835702
306.065629756
302.28864655
300.958537451
300.47877549
300.275713664
300.169724982
300.102211152
300.056278899
300.025656961
300.008690474
300.002150078
300.00045406
300.000087227
300.000010853
300
300
300
414.660211486
345.210640499
317.442083617
306.535504371
302.463422255
301.019466591
300.489092546
300.274152938
300.1650645
300.098561433
300.054300084
300.025220621
300.008696814
300.002189441
300.000469151
300.000087353
300.000009624
300
300
300
416.123641395
346.508854714
318.272985707
306.96355712
302.650821557
301.074738239
300.498190149
300.271170959
300.160431984
300.095144556
300.052986322
300.025015016
300.00886286
300.002273175
300.000485139
300.000084685
300.000007643
300
300
300.000000062
417.939337382
346.760676983
318.446478444
307.155481366
302.764231174
301.095908332
300.499881833
300.265984356
300.154938061
300.092263616
300.052010919
300.025213911
300.009131004
300.002382262
300.000490201
300.000077793
300.000004949
300
300
300
419.359580869
345.867357512
317.829386114
306.963064779
302.683731398
301.065523799
300.483830326
300.25449519
300.14861832
300.089499214
300.05197434
300.025922296
300.009551522
300.002437009
300.00046764
300.000066282
300.000001965
300
300
300
421.118930883
344.348199226
316.636394874
306.370458935
302.40272889
300.967072094
300.442570619
300.236425113
300.141359868
300.088129835
300.052247203
300.026226279
300.009647497
300.00236635
300.000414805
300.000050615
300.000000098
300
300
300
421.572798709
344.04631907
315.722790451
305.643597623
302.06905796
300.823609737
300.386012842
300.217651182
300.135197067
300.086714971
300.052030138
300.026098493
300.009445475
300.002165682
300.000331138
300.000032195
300
300
300
300
413.473686862
341.873447054
314.294205414
304.879046601
301.679684398
300.669271635
300.329548987
300.197113882
300.129441984
300.085274224
300.051555987
300.02564406
300.008998885
300.001859401
300.000225761
300.000014929
300
300
300
300
392.841923548
334.839640705
311.659629224
303.603458227
301.176623411
300.493730953
300.273741124
300.180513364
300.12540503
300.084546763
300.051270423
300.025247541
300.008546724
300.001537894
300.000127729
300.000004177
300
300
300
300
374.315996286
327.384474983
307.760771478
302.016318332
300.690504462
300.358151744
300.238556656
300.172932583
300.125243726
300.085899295
300.052433474
300.02588236
300.008728261
300.00146705
300.000083937
300.000002286
300
300
300
300
367.684836419
321.284118132
304.226744296
301.102747559
300.47891662
300.312726102
300.233969819
300.178537527
300.132681892
300.092702819
300.057866681
300.029671006
300.01076773
300.002094404
300.000155098
300.000006461
300.000002233
300.00000003
300
300
379.95217193
321.877217053
304.101276558
301.07194969
300.492698153
300.335689502
300.257849323
300.20069671
300.15189007
300.108493274
300.070060603
300.038078406
300.015364539
300.003678089
300.000407964
300.000021408
300.000005171
300.000001262
300.000000266
300
434.850359451
334.077697298
310.814709315
302.965823283
300.978879151
300.477902074
300.322268623
300.244122962
300.185794947
300.135539233
300.090879605
300.052661028
300.023785143
300.007005889
300.001110501
300.000088787
300.000008223
300.000002056
300.00000056
300
508.90275246
358.709506681
321.283300427
307.897098446
302.795037355
300.938864448
300.458977148
300.311640329
300.23293076
300.172045593
300.119506429
300.07371496
300.036982758
300.013096543
300.002807542
300.000340411
300.000025312
300.000003106
300.000000524
300
547.455507903
380.485031976
331.742298651
312.887426151
305.092776159
301.989331342
300.861093005
300.422382721
300.290138194
300.214083484
300.152645875
300.09956288
300.054841695
300.022713044
300.006225947
300.001080726
300.00012132
300.000009296
300.000000774
300
566.443354336
394.879810098
338.959615808
316.630199209
307.0037472
302.910000476
301.275920579
300.616306736
300.365551576
300.258339917
300.186979382
300.12716413
300.075725931
300.03573605
300.012033513
300.00280809
300.00047643
300.00004839
300.000005
300
576.583051674
402.848155502
343.230881533
319.001577991
308.355028772
303.665359258
301.673467153
300.841840211
300.463396178
300.306695121
300.220536969
300.153893012
300.096935621
300.050914409
300.020451729
300.006101951
300.001385842
300.000198738
300.000024348
300.000001914
582.231612652
405.762971483
344.484649475
319.703863911
308.830902269
303.97968077
301.854340838
300.935422564
300.528317502
300.345280525
300.247457033
300.176785472
300.115885099
300.065422911
300.029604627
300.010388938
300.002848342
300.000522641
300.000079735
300.000009351
585.926566293
405.162264296
343.255645271
318.917748461
308.497917045
303.884653783
301.844136439
300.948742524
300.552644632
300.366638538
300.264174044
300.19179411
300.129536494
300.076371646
300.037180782
300.014451816
300.004477291
300.000969804
300.000173373
300.000024097
587.589130374
401.797212731
339.755315205
316.79071568
307.460564073
303.437335666
301.667762281
300.88926122
300.544306174
300.371778895
300.2711727
300.198821246
300.136547004
300.082478259
300.041871916
300.01732339
300.005804517
300.001393709
300.000276649
300.000042041
587.683247152
395.958326266
334.317284631
313.661585334
305.949621269
302.770425923
301.397972807
300.797105857
300.515776082
300.364210305
300.269696555
300.198994276
300.137297341
300.083655417
300.043328951
300.01856093
300.00651627
300.001657904
300.000344438
300.000056159
584.344238757
387.423660849
328.749576233
310.604304328
304.412845136
302.106203897
301.142962815
300.705049651
300.478234048
300.348303201
300.261574371
300.193293438
300.132464925
300.080472004
300.041876105
300.018206549
300.006521731
300.001693368
300.000354431
300.000058914
575.275956056
378.464221265
323.479073675
308.091508873
303.308684334
301.663364473
300.969587103
300.625374108
300.440682068
300.328741601
300.248977961
300.182443792
300.122985527
300.073956676
300.038243643
300.016610339
300.005926382
300.0015109
300.000309868
300.00005202
560.942071472
368.685216075
319.589525019
306.469190297
302.72371449
301.424668473
300.847995029
300.563079096
300.407122628
300.307983304
300.232545258
300.166908365
300.110589312
300.065479059
300.033372625
300.014276694
300.004949463
300.001197858
300.000236684
300.000038432
543.529518928
364.588435591
317.21464072
305.662474856
302.422579111
301.258090361
300.756393568
300.512351438
300.376530829
300.285353064
300.211600048
300.148884924
300.097011238
300.056383972
300.028134013
300.011685747
300.003830982
300.00086029
300.000163826
300.000024637
544.915259629
361.925257409
315.455028787
305.054192708
302.126175207
301.101154843
300.673485047
300.4661482
300.345578144
300.258576271
300.188218491
300.130552646
300.083738586
300.047744868
300.023191442
300.009219105
300.002792596
300.000588145
300.000106876
300.000012799
560.470202192
364.794259393
316.156492301
304.82795204
301.88742243
300.963071006
300.600001518
300.421873351
300.311224388
300.229886909
300.165703
300.1138014
300.072125278
300.040363214
300.019012785
300.007170438
300.00201247
300.000402274
300.000064624
300.00000423
569.656934759
376.214137158
319.511402827
305.365639309
301.843028792
300.880631346
300.54064568
300.378077376
300.277539217
300.204103277
300.146617679
300.10039959
300.063156303
300.034753989
300.015866875
300.005668679
300.001479896
300.000269235
300.000034866
300
576.932111488
384.967626152
324.110283751
306.559247668
301.990600824
300.849380928
300.493946326
300.34017606
300.249024635
300.183726317
300.132771809
300.091228571
300.057118116
300.030948013
300.013641727
300.004582305
300.001093054
300.000172266
300.000014553
300
582.172210228
389.618348816
326.692300329
306.823961021
301.968680266
300.783405732
300.445132849
300.307351348
300.227780463
300.170106974
300.124534012
300.086114197
300.053892527
300.02874539
300.012187547
300.00380611
300.000811115
300.000103923
300.000003063
300
570.249116101
385.347107397
323.574073348
305.859233793
301.671085984
300.677958227
300.396882284
300.284052121
300.214912262
300.164151177
300.121909736
300.085174042
300.05356714
300.028214851
300.011483759
300.003302351
300.000616587
300.000060449
300
300
495.417058643
369.177150017
318.27668422
304.658642886
301.355923529
300.572422311
300.364136227
300.271884886
300.212951678
300.166058935
300.125799017
300.089398257
300.056480461
300.029653087
300.01174267
300.003143878
300.000529413
300.000043807
300
300
431.022323618
351.23077603
315.258787613
304.030971351
301.123026876
300.507646736
300.3496855
300.27669208
300.223385098
300.178924809
300.137917582
300.099045606
300.063735958
300.034187889
300.013769968
300.003691628
300.000642585
300.00007527
300.000012346
300.000003134
399.477313818
342.511244553
314.503220137
303.792363629
300.971435639
300.481866026
300.367846875
300
300
300
300
300
300
300
300
300
300
300
300
300
300
300
300
300
300
300
300
300
300
300
300
300
300
300
300
300
300
300
300
300
300
300
300
300
300
300
300.000000001
300
300
300
300
300
300
300
300
300
300
300
300
300
300
300
300
300
300
300
300.00000001
300
300
300
300
300
300
300
300
300
300
300
300
300
300
300
300
300
300
300
300.000000047
300
300
300
300
300
300
300
300
300
300
300
300
300
300
300
300
300
300
300
300.000000134
300
300
300
300
300
300
300
300
300
300
300
300
300
300
300
300
300
300
300
300.000000224
300
300
300
300
300
300
300
300
300
300
300
300
300
300
300
300
300
300
300
300.000000135
300
300
300
300
300
300
300
300
300
300
300
300
300
300
300
300
300
300
300
300
300
300
300
300
300
300
300
300
300
300
300
300
300
300
300
300
300
300
300
300
300
300
300
300
300
300
300
300
300
300
300
300
300
300
300
300
300
300
300
300
300
300
300
300
300
300
300
300
300
300
300
300
300
300
300
300
300
300.000000079
300
300
300
300
300
300
300
300
300
300
300
300
300
300
300
300
300
300
300
300
300
300
300
300
300
300
300
300
300
300
300
300
300
300
300
300
300
300
300
300
300
300
300
300
300
300
300
300
300
300
300
300
300
300
300
300
300
300
300
300
300
300
300
300
300
300
300
300
300
300
300
300
300
300
300
300
300
300
300
300
300
300
300
300
300
300
300
300
300
300
300
300
300
300
300
300
300
300
300
300
300
300
300
300
300
300
300
300
300
300
300
300
300
300
300
300
300
300
300
300
300
300
300
300
300
300
300
300
300
300
300
300
300
300
300
300
300
300
300
300
300
300
300
300
300
300
300
300
300
300
300
300
300
300
300
300
300
300.000000005
300.000000023
300
300
300
300
300
300
300
300
300
300
300
300
300
300
300
300
300
300.000000032
300.000000087
300.000000113
300
300
300
300
300
300
300
300
300
300
300
300
300
300
300
300
300.000000036
300.000000118
300.000000179
300.000000205
300
300
300
300
300
300
300
300
300
300
300
300
300
300
300
300.000000015
300.000000113
300.000000207
300.000000269
300.000000268
300.000000044
300
300
300
300
300
300
300
300
300
300
300
300
300
300
300.000000066
300.000000183
300.00000029
300.000000363
300.000000395
300.00000186
300
300
300
300
300
300
300
300
300
300
300
300
300
300.00000001
300.000000099
300.000000227
300.000000349
300.000000437
300.000000476
300.000004705
300
300
300
300
300
300
300.000000012
300
300
300
300
300
300
300.000000018
300.000000106
300.000000235
300.000000365
300.000000461
300.000000503
300.000006911
300.000000005
300
300
300
300
300
300.00000008
300
300.000000023
300.000000016
300
300
300
300.000000014
300.000000091
300.000000211
300.000000339
300.000000436
300.000000479
300.000007545
300
300
300
300
300
300
300.000000021
300
300
300.000000184
300.000000002
300
300
300.000000006
300.000000064
300.000000169
300.000000289
300.000000382
300.000000424
300.0000061
300
300
300
300
300
300
300
300
300
300.000000222
300.000000005
300
300
300
300.000000037
300.000000126
300.000000237
300.000000324
300.000000363
300.000003618
300
300
300
300
300
300
300
300
300
300.000000226
300.000000005
300
300
300
300.000000017
300.0000001
300.000000206
300.000000287
300.000000324
300.000000942
300
300
300
300
300
300
300
300
300
300.000000199
300.000000002
300
300
300
300.000000009
300.000000107
300.000000224
300.000000309
300.000000344
300
300
300
300
300
300
300
300
300
300
300.000000149
300.000000001
300
300
300
300.00000009
300.000000275
300.000000451
300.000000567
300.000000609
300
300
300
300
300
300
300
300
300
300
300.000000057
300
300
300
300.000000168
300.000000513
300.000000859
300.000001123
300.000001263
300.000001291
300
300
300
300
300
300
300
300
300
300
300.000000005
300
300
300.000000387
300.000000969
300.000001542
300.000001997
300.00000227
300.000002349
300.000002299
300
300
300
300
300
300
300
300
300
300
300
300.000000121
300.000000816
300.000001652
300.000002441
300.000003059
300.000003467
300.000003642
300.000003562
300.000003359
300
300
300
300
300
300
300
300
300
300
300.000000455
300.000001436
300.000002495
300.000003421
300.000004128
300.000004639
300.000004936
300.000004953
300.000004625
300.000004166
300
300
300
300
300
300
300
300
300
300.000000811
300.0000021
300.000003303
300.000004261
300.000005
300.000005576
300.000005988
300.000006195
300.00000608
300.000005485
300.000004653
300
300
300
300
300.000000282
300
300
300
300
300.000001332
300.000003125
300.000004469
300.00000539
300.000006046
300.000006542
300.000006912
300.000007129
300.000007091
300.000006607
300.000005736
300.000003485
300.000006495
300.000010787
300.000014251
300.000016937
300.000016158
300.000012679
300.000007229
300.000002203
300.000000909
300.000002601
300.00000382
300.000004427
300.000006106
300.000006874
300.000007232
300.000007479
300.000007558
300.000007331
300.000006714
)
;

boundaryField
{
    emptyPatch
    {
        type            empty;
    }
    minY
    {
        type            fixedValue;
        value           nonuniform List<scalar> 0();
    }
    maxY
    {
        type            inletOutlet;
        inletValue      nonuniform List<scalar> 0();
        value           nonuniform List<scalar> 0();
    }
    maxX
    {
        type            fixedValue;
        value           uniform 300;
    }
    water_to_heater
    {
        type            copiedFixedValue;
        sourceFieldName T.liquid;
        value           nonuniform List<scalar> 
60
(
795.751390779
795.746697014
795.746590719
795.74491763
795.747083115
795.746565495
795.748381605
795.749339156
795.750512149
795.753751373
795.753475322
795.76041859
795.759744099
795.78043493
795.781846313
795.83653639
795.835663565
795.88136474
795.877793097
795.923556632
795.939594019
795.987939903
795.988078565
796.053269199
796.042764388
796.117277846
796.12736226
796.325728701
796.350742929
796.384428319
796.393521513
796.426828516
796.433650439
796.467657259
796.469275973
796.509676542
796.509211087
796.548640998
796.549528259
796.585242019
796.582601978
796.608073853
796.603565355
796.608365533
796.59899308
796.601726083
796.602161209
796.599192067
796.608410567
796.608237175
796.61239788
796.637020857
796.638768875
796.666602043
796.656880274
796.664824692
796.536548265
796.547379825
796.488487409
796.522821466
)
;
    }
    procBoundary3to1
    {
        type            processor;
        value           nonuniform List<scalar> 
41
(
300.303399858
300.250935673
300.20355307
300.15915843
300.11714229
300.078096297
300.044160591
300.019185276
300.005758101
300.001238857
300.000233334
300.000062486
300.0000291
398.100165099
349.102593606
319.58881006
304.609057774
300.989115279
300.525790211
300.303399858
300.4188481
300.000025016
300.000033523
300.000046666
300.000059011
300.000065859
300.000064592
300.00005615
300.000041963
300.000025092
300.000011475
300.000003746
300.000003484
300.000004496
300.000004326
300.000005411
300.000006902
300.000007233
300.000007387
300.000007293
300.000006857
)
;
    }
    procBoundary3to2
    {
        type            processor;
        value           nonuniform List<scalar> 
41
(
406.831737926
339.504777455
313.75091998
304.831163986
301.893863218
300.851989926
300.44996647
300.277544339
300.18426387
300.118689626
300.067797107
300.030378797
300.009242404
300.00204159
300.000383613
300.000062489
300.000007465
300
300
300
300
300
300
300
300
300
300
300
300
300
300
300
300
300
300
300
300
300
300
300
300
)
;
    }
}


// ************************************************************************* //
