/*--------------------------------*- C++ -*----------------------------------*\
| =========                 |                                                 |
| \\      /  F ield         | OpenFOAM: The Open Source CFD Toolbox           |
|  \\    /   O peration     | Version:  2312                                  |
|   \\  /    A nd           | Website:  www.openfoam.com                      |
|    \\/     M anipulation  |                                                 |
\*---------------------------------------------------------------------------*/
FoamFile
{
    version     2.0;
    format      ascii;
    arch        "LSB;label=32;scalar=64";
    class       volScalarField;
    location    "0.32/water";
    object      rhom;
}
// * * * * * * * * * * * * * * * * * * * * * * * * * * * * * * * * * * * * * //

dimensions      [1 -3 0 0 0 0 0];

internalField   nonuniform List<scalar> 
6000
(
913.774198763
948.534513155
985.613234897
996.404667915
999.312128943
999.889642437
999.985420897
999.998858164
999.999976778
999.999999816
999.999999999
1000
1000
1000
1000
1000
1000
1000
1000
1000
693.767842673
869.368279102
946.082247766
981.680341055
994.155602987
998.403356477
999.628933024
999.933068674
999.99329491
999.999861121
999.999999611
999.999999999
1000
1000
1000
1000
1000
1000
1000
1000
693.682244294
826.448311402
914.262158359
963.421249845
985.83950793
995.194950486
998.624333002
999.68654341
999.953625115
999.997575724
999.999990483
999.999999988
1000
1000
1000
1000
1000
1000
1000
1000
693.682926074
787.734043127
875.266032708
936.156857902
971.17547758
988.772758363
996.345648057
999.048523494
999.824772365
999.984011509
999.99977379
999.999999738
1000
1000
1000
1000
1000
1000
1000
1000
699.931920854
764.379394967
835.840683053
899.474217123
946.327878171
975.778542844
991.086272233
997.438239416
999.466255368
999.935099533
999.997630925
999.999996015
999.999999997
1000
1000
1000
1000
1000
1000
1000
712.56799657
756.866650279
806.933432312
861.442338242
912.373802459
952.953725407
979.556810237
993.24288559
998.424697053
999.774770261
999.986561429
999.999915816
999.999999948
1000
1000
1000
1000
1000
1000
1000
725.20821607
758.57998813
791.588509484
831.575448175
877.292387406
922.514301212
959.516584568
983.73374029
995.467680805
999.236792205
999.939842765
999.998931721
999.999999327
1000
1000
1000
1000
1000
1000
1000
732.149401521
761.027685403
784.947722483
812.870841118
849.765292634
892.291072837
933.680719892
967.23497076
988.461781402
997.549209733
999.750289421
999.992000111
999.999990329
999.999999997
1000
1000
1000
1000
1000
1000
737.316404371
761.399746491
777.914833552
798.990057237
829.42358304
867.045550537
907.197147656
945.068583332
975.41272698
993.078618443
999.036295176
999.951772153
999.99961543
999.999999933
1000
1000
1000
1000
1000
1000
736.998891936
757.020381786
768.698177002
786.247069593
812.856717253
846.221271958
882.674628322
920.247547115
955.989690862
983.473485751
996.709519231
999.739055223
999.994526384
999.999998476
999.999999999
1000
1000
1000
1000
1000
721.795297432
744.821831566
758.209597844
773.977816722
797.198032981
826.912629166
859.978674655
895.176000128
931.856110833
966.721791593
990.378715106
998.759116682
999.948080811
999.99965656
999.999999945
1000
1000
1000
1000
1000
703.080582744
735.666189849
750.848836176
763.531430968
782.232153415
808.26638998
838.800107689
871.421378047
906.095119579
943.077670029
976.612446443
995.121164518
999.620058684
999.992454584
999.999996736
999.999999999
1000
1000
1000
1000
704.103661408
734.845844412
749.363467985
759.622709506
774.192049102
795.633992121
822.462246502
851.888126096
882.593724847
916.316890854
954.062817718
985.192696681
997.997273317
999.919930372
999.999447498
999.999999923
1000
1000
1000
1000
701.974762478
735.874692037
747.708274295
758.775554766
773.758890378
794.043323516
816.390157846
840.140080569
864.616094736
891.60034319
926.542748054
966.580589093
992.735053703
999.474901338
999.991281853
999.999995145
999.999999999
1000
1000
1000
703.938016136
738.835665624
747.275454742
758.896840065
775.030783117
795.865356003
817.398638036
836.016870047
853.389426788
872.594564624
901.095808999
942.841735649
981.859623828
997.853827636
999.936021257
999.999718043
999.999999971
1000
1000
1000
702.014122958
744.017673062
749.378525918
761.597938471
779.913040104
801.836480558
821.942302977
837.033362386
847.746898731
860.287322318
882.868775357
921.651504752
967.306361935
994.24449122
999.726383989
999.997577969
999.999999226
1000
1000
1000
704.028192373
750.725512422
756.753756212
770.130532127
790.071634383
812.444772716
829.915879226
839.483817885
844.952482629
853.261701896
872.038918377
907.011752955
953.612194373
989.05961065
999.244558743
999.989727847
999.999987449
999.999999997
1000
1000
702.753455293
757.827458195
769.314898859
784.753315288
804.480884352
824.634703512
837.266923362
841.020235972
842.990325333
848.776940322
864.876793879
896.615835572
942.464444511
983.364379595
998.458268668
999.970721067
999.999931122
999.999999981
1000
1000
704.21119822
763.447490525
779.057306756
796.936836731
815.219297214
831.082696445
839.002296166
840.33877293
840.164776286
843.776962664
857.237152652
885.863268687
931.15512739
976.643215008
997.17633589
999.923254471
999.999669741
999.999999945
1000
1000
704.142689204
767.065463991
781.584905488
798.517183297
815.958710958
830.615633123
837.057540317
836.218891485
834.317169483
835.866373083
845.803530155
870.284004427
914.032131883
965.249992894
994.293583004
999.754026022
999.997989747
999.999999868
1000
1000
712.776247889
770.026218096
780.107018744
794.252498269
810.53615841
823.956166758
828.791630625
827.173062507
825.230256022
826.2020437
832.526932222
848.489734726
884.801117976
941.305309548
986.104289093
998.99476584
999.984224131
999.999988588
1000
1000
726.50992392
767.787858163
769.284208251
776.750183268
791.854315567
806.967545709
814.145806197
816.024805506
818.22779139
823.949431062
828.336275936
830.579070014
847.495323686
899.269417883
964.625650539
995.664170597
999.867574733
999.999328359
999.999999983
1000
726.899644205
750.402569499
744.051538342
746.342119035
763.066866316
784.618491218
798.805351484
807.654157925
817.275547774
825.761983157
829.390728612
829.47510487
829.821017032
857.241115869
925.666256465
984.429211458
999.100899147
999.988767903
999.999994393
1000
718.917495042
720.830826543
711.583206038
715.193168226
735.671288209
763.849220177
786.165209554
802.777125742
818.633495897
831.917282724
835.237951528
830.992798436
829.862427523
834.677983073
884.649485623
961.098283203
995.879531161
999.896783944
999.999623179
999.999999988
704.389843158
697.787923717
690.016641951
695.371827955
715.844734351
747.100962281
776.150819999
800.37170215
822.4199865
841.790390764
845.537313873
838.098190749
830.444848466
831.220259493
861.128825827
933.083956977
987.92179373
999.436242589
999.994825467
999.999999447
691.875082583
688.001052498
683.926498118
686.763841335
703.677549586
735.476706562
769.381670932
800.065417205
828.051079501
849.455226776
850.421534022
847.207067063
836.194719306
832.913616459
852.217961347
911.382073462
975.993367505
998.131285257
999.969770846
999.999974696
682.740879081
684.519797133
683.530978922
684.167517425
698.400712478
729.903825245
766.989893347
801.914414127
835.337622426
850.421490914
850.540285925
850.421529197
846.272661168
838.638457372
850.105806359
896.707783736
963.060580824
995.726687928
999.892595816
999.99959383
674.375900348
683.311238674
683.444546989
684.126931468
698.083060427
729.439220202
767.89496108
807.665318246
843.733515135
850.538100324
850.421498983
850.697159691
850.415515079
847.005157844
849.566299056
884.136222448
949.81769075
992.152674268
999.714622803
999.99805226
667.646822356
683.414479211
683.547883986
684.763037525
699.719755856
731.978219048
773.319969155
817.167592529
849.466923473
850.421456639
850.802631747
850.421501116
850.794128386
850.421509134
847.272888361
870.520439307
934.6685102
986.84797099
999.324213248
999.993094432
665.53570005
685.765669747
683.638613276
687.400654533
705.500332275
740.25953193
784.567134736
829.325089852
850.421404096
850.682434266
850.421472393
851.040269731
850.421495697
850.829482468
837.996338768
852.940798109
915.939921491
978.52685939
998.443598611
999.977536099
662.493324328
689.821721519
686.632014694
693.278736151
715.526577446
753.609850829
799.385996202
841.532496876
850.54927567
850.421434078
851.04507827
850.421479187
851.242301174
850.421485909
825.440662023
836.135467326
894.474237084
965.825146812
996.538175246
999.929907827
662.000042907
694.898017483
693.680545581
702.802375872
728.840761505
769.754345796
815.215176651
849.219686484
850.421385403
850.919210956
850.421453716
851.339374389
850.421475472
848.699315519
818.831066002
825.745630416
874.313121083
949.809395204
993.082678911
999.801277373
659.682355804
700.650646291
704.297284895
717.004611192
745.674240192
787.636846214
830.985316452
850.421316645
850.743951148
850.421418806
851.279034926
850.421460417
851.462660884
837.912764999
818.445866734
820.555186664
859.796157879
934.27251624
988.046741355
999.509032546
661.66398171
707.534652762
716.349050822
734.552588039
765.572093358
806.419119681
844.620092656
850.599949615
850.421373127
851.17789069
850.421436727
851.482946726
850.421454218
827.578287852
818.345279142
818.789724072
851.871135607
921.812882051
981.855386716
998.949726395
658.970994972
716.521893652
730.256239794
754.183235737
787.290572126
824.656003023
850.40214588
850.421306344
851.030655201
850.421404266
851.482923848
850.421439912
848.042218831
818.783933499
818.445839711
819.036794508
847.50659133
911.222988947
974.700702693
998.036132714
661.230710003
728.6004692
747.668510381
775.4792821
808.038065474
838.876493282
850.421183744
850.898113725
850.421360354
851.411307903
850.421416035
851.484826268
831.507090358
818.445824305
818.402142517
819.520844998
842.403150339
898.892829676
966.026793043
996.705054437
658.970263803
745.727719602
770.160049913
797.9186612
823.943524983
843.965630195
850.684513631
850.421293684
851.31688151
850.421383043
851.465381831
846.099346138
826.970098245
821.021754249
819.891892932
819.373321145
833.096839382
881.945524755
954.89792328
994.79912382
661.662561757
769.714240205
797.192679723
819.368803652
832.639883439
842.556450381
847.795445519
846.773814142
844.080177563
844.085262095
845.846642571
842.665450077
836.546379001
831.904806134
825.350827937
817.124579726
817.838557218
861.119497056
940.570834992
991.784940158
660.887153491
799.039927007
818.449197999
829.850511692
832.59552069
834.120895348
833.621050293
832.529827348
834.487825455
841.212214807
849.17609727
853.59906424
853.311850903
845.767025559
829.483031418
810.263601986
804.833991399
842.673027133
921.970237323
986.465972351
677.967325222
823.475884583
825.724543733
829.035655878
826.593413936
825.920683052
828.027152701
831.635164385
838.450109435
850.760378897
863.406146023
869.116557867
866.329960612
853.300292746
827.964379068
804.730824214
804.912606271
826.829255212
898.988252889
977.182388781
735.512067275
825.265625758
825.503662305
821.618800383
818.334096394
825.775160903
832.471058948
840.632249875
853.904643593
868.471200467
877.245434387
878.989564682
873.71754138
856.475570847
825.951297505
804.912565887
804.601788307
807.172841553
873.940273032
962.039326879
785.718748736
820.720328854
807.582490383
802.3661591
816.873472433
834.657314803
847.028908551
858.964755431
871.74217003
880.892462917
884.566476636
884.836996465
879.249167679
860.870333656
827.433649419
804.76845079
804.912511964
804.643564175
853.126623673
939.375402396
770.702881568
752.839417501
751.806454046
773.179405564
811.643933001
838.378750881
857.282202231
870.438719462
880.462579397
886.456239772
888.457557312
888.684798271
885.283681841
870.558111674
836.182633191
807.135557981
804.580242996
804.912454825
835.539880992
910.405789248
684.021606957
650.990767505
679.442509534
710.848310503
760.034932309
809.57267388
847.792636645
869.292001345
881.237960594
888.243306022
890.590386082
890.77642991
889.771877829
883.45058531
854.41542243
816.614602222
804.912394269
804.58284186
814.510598223
878.467139971
595.800857243
603.222138259
625.227173223
641.204519687
665.109541288
711.635780413
783.719531747
843.860188083
874.018539658
887.390524812
891.481069046
891.551086325
891.311923744
890.379670672
876.197984411
834.142042143
804.769612378
804.912346392
804.68722402
848.912717871
571.732974896
593.55578347
604.777901512
610.176415509
617.927284778
639.608403411
694.893942685
781.855267545
846.987180626
880.860890559
891.640522514
891.739080624
891.60473546
891.518611382
889.259795018
856.070236443
809.330601351
804.586535426
804.912308639
826.746161452
572.218975765
591.429276343
598.452124673
601.718163394
607.031528876
621.669475682
656.389770113
728.866019863
809.430889485
866.208420515
891.742384071
891.776271785
891.743687428
891.630077612
891.557829118
875.136270873
824.185858981
804.912268448
804.672558939
813.342897226
570.855013423
590.646130845
596.075388268
599.280240754
604.576957217
618.313869361
648.135186048
705.927781497
782.368853972
849.882595908
890.955382264
891.88207193
891.776283167
891.766535419
891.685231097
887.259942107
844.673760405
804.795646214
804.912245128
807.154396143
571.936438033
590.694546547
595.288419779
598.696468892
604.168353588
617.959037432
647.028430542
699.376169856
769.756569403
839.177604782
886.959905453
891.853956492
891.933071323
891.776291916
891.801114989
891.645629954
860.950112783
810.338921818
804.761553442
805.092031413
570.82742611
591.295066998
595.625042412
599.464541872
605.373032799
619.756250007
648.823711058
699.584812867
767.050093839
835.582453035
884.203115739
891.968614495
891.853977859
891.977004645
891.776294897
891.818058203
870.850457342
822.60517059
804.912200799
804.823640838
571.838636421
591.866870176
598.08219358
603.442204439
610.709568998
626.847985839
656.847567552
705.709771554
770.08369032
837.033625904
884.469450381
891.853944501
892.108928258
891.85399157
891.99506972
891.776292815
875.079573871
834.564524925
806.585760077
804.930058424
570.969538927
591.656968261
604.63363053
612.929277455
622.466574232
641.210812342
673.407718354
721.700542283
782.719231626
845.953134267
887.43060634
892.000359471
891.853969082
892.166028557
891.853995508
891.996589519
874.179656628
842.045008899
811.590264929
804.328043684
571.975619955
593.44480544
616.595647088
628.967558989
641.671977632
663.739738029
698.932110506
747.776168938
806.313952596
863.397746688
891.152663941
891.85394208
892.180275278
891.85398144
892.186435357
889.202017811
871.535465148
846.85834
816.640595718
801.268886148
570.815516012
603.455242152
635.262661504
651.820613368
669.213685172
696.069998225
734.848090816
784.392087956
839.304035736
883.17166615
891.853912666
892.117902643
891.853962815
892.266490568
891.853980892
884.146961309
868.175427153
849.952234433
818.389913907
795.194686375
572.234365513
626.092759319
660.33288598
682.278064667
706.891910719
740.484132017
782.933423192
831.268482759
875.186872704
891.853880614
892.013577816
891.853939986
892.327832079
891.853967588
891.305105907
877.343338851
866.464452787
851.563182072
817.710153456
788.554686041
571.035817709
659.240868626
692.26516848
723.137997408
757.267340523
797.573488961
840.603030953
877.244584421
891.740984447
891.961479577
891.853913248
892.292483733
891.853949524
892.356039116
886.281734947
873.194602892
866.852175974
851.766157402
815.338588395
786.85545756
572.435270338
692.330638512
733.751662578
776.721447556
818.963046285
859.173024083
885.46570537
891.853783354
892.048085501
891.853881724
892.326866436
891.853926225
892.43629532
891.8539419
880.136556548
873.285946466
869.281432914
851.852888947
813.80100864
786.90760975
571.620507429
725.795571472
784.852618532
839.110007927
876.075257149
891.050296395
891.857513237
892.246827775
891.853842785
892.496603931
891.853897695
892.513061263
891.853921028
888.620825661
878.550707582
876.986806219
873.681399079
852.37293408
814.115209335
787.081500742
572.620836986
767.330457068
839.721382327
886.132719491
891.949907643
891.857281203
892.547200997
891.857631355
892.832574704
891.853864674
892.70712587
891.857120134
892.488676427
885.44059752
880.775227962
883.134352312
879.336067886
855.853455194
817.110679393
787.835699081
580.955268433
827.994362828
884.56521806
892.135377531
891.856759493
892.978833491
891.878703507
893.363271345
891.857665223
893.078952162
891.857086716
892.69402617
891.857102288
885.414768969
885.287361952
888.836000144
886.182254012
865.780373662
825.905305814
790.3163432
626.116434229
886.482844901
892.106456297
891.855428095
893.434718314
891.938599041
893.998634647
891.946336424
893.556198608
891.8576581
892.969835137
891.996135695
890.767196547
885.943594178
888.924758137
892.300146409
892.669538733
880.431221457
842.051173566
796.521972473
695.508379447
892.495127422
891.851468285
893.871351516
891.938323032
894.129715976
891.957810925
894.102392539
891.946320891
893.144171772
891.996083259
892.548583899
889.900514365
888.912630154
891.287249561
893.996018801
895.721299368
892.684775212
863.817979891
809.35824697
738.152912292
861.907118108
877.365656727
884.21878583
889.152387013
889.542394382
890.247700318
890.275658065
891.808493689
891.995998615
892.313859763
892.080505086
890.808529187
891.862132207
892.859096349
894.732006952
896.030940517
896.036301027
885.438163407
832.22694116
717.705005034
739.139470636
766.931141093
789.553191439
805.954816887
818.701052564
837.281424464
860.360496915
877.472129855
886.807909382
891.101467054
893.075787014
893.972486914
894.120500032
894.050432821
895.0416349
896.033125301
896.031227144
895.793858209
863.719341386
641.106453708
612.64605595
631.663592673
651.706237213
669.34642594
687.330122529
722.738629973
778.987315298
836.224515939
872.315346618
888.565320655
894.38414529
895.843478271
895.712251944
895.105275222
895.167196823
896.031182236
896.092331933
896.031187126
890.901475553
578.92733227
573.255895492
584.310582545
597.949749738
609.201460142
620.536225586
642.763159902
688.489664223
760.188314367
830.20747483
874.636857776
893.320539405
896.040757183
896.03110645
895.912053914
895.440533214
896.035158781
896.031149447
896.170423781
896.031154359
565.450887423
570.884995953
578.700952244
591.934593541
602.008272115
611.429519395
627.006318376
657.474238437
712.97793121
782.845815763
845.75284218
888.038847096
896.031047535
896.056815046
896.031098783
895.954846363
896.019476633
896.121887927
896.031123528
896.254121138
565.577642648
571.648695731
579.773579375
593.433699902
603.675721437
612.95391544
627.696762215
655.77845893
704.463323986
765.6956
827.460940667
880.158079903
896.086932265
896.031056325
896.101055539
896.031090832
896.038309721
896.031098956
896.234021347
896.031100847
565.38546201
576.455696352
586.237709731
600.480748449
611.095284608
620.493716852
634.717275114
661.658683292
707.393429124
765.493879016
825.770051886
878.428089992
896.031013942
896.182502102
896.03106317
896.158694462
896.030047367
896.113502214
896.031081429
896.389901237
565.576790905
587.953966464
598.795084652
611.475502704
621.311032473
631.266438926
647.032003432
676.250095344
720.452589538
774.587442434
832.536151737
882.370239069
896.10481823
896.031031537
896.280354577
896.031063289
896.208337303
896.031067682
896.220452714
896.031064255
574.6331707
603.620738453
612.434813689
620.44618662
627.274948594
637.407335886
656.714374729
691.18546956
738.599392809
792.996725148
849.560299385
891.13298765
896.030996895
896.259422717
896.031043069
896.352321201
896.031057259
896.258408756
896.031054246
896.388810914
598.703162419
617.569460947
622.32435451
625.018409991
628.261359019
637.718774702
660.496027586
700.310327799
752.867216068
810.937523477
867.045460911
895.58112559
896.143495842
896.031017505
896.374333889
896.031046221
896.386714773
896.031048025
896.322670431
896.243911916
617.86393186
626.803527462
628.282705746
627.522465309
628.56372736
637.41185735
661.803821934
704.82630476
761.192083052
822.541236289
877.13017614
896.039614049
896.030987218
896.3019874
896.031031142
896.442040425
896.031043306
896.40195263
896.243908956
896.432279213
621.180726634
632.71220485
633.594376792
630.816414195
630.157232548
638.320685984
663.812177503
708.527381199
766.557655015
829.074811838
881.501774614
896.030953314
896.199898474
896.031011021
896.430444075
896.031036902
896.471533665
896.243908425
896.422464039
896.32990502
619.830665397
641.876074103
642.711842959
637.748001698
635.749377735
643.471521396
669.370989041
714.611227739
772.823255657
835.026423064
884.891093225
896.101009796
896.03098643
896.384790194
896.031026367
896.505791201
896.243907926
896.482580855
896.328741857
896.473389593
620.628770543
664.72898758
661.307008512
652.28728409
649.542801249
657.060930859
682.427987308
726.737066268
783.778391704
844.415054527
889.722114589
896.030958654
896.314527586
896.031011354
896.509411179
896.24390448
896.526243289
896.329910198
896.47508408
896.378512152
620.047650415
715.833455105
694.277983505
680.24621855
676.983386083
684.068781783
707.757925925
749.535021844
804.031543061
861.19103843
895.032347532
896.177311904
896.030992686
896.47512725
896.243896303
896.528706017
896.329911422
896.498972368
896.378517268
896.457422296
620.635533795
769.868907356
740.28089591
727.543976986
723.542190398
729.481126064
750.106477724
787.692332044
837.711385978
885.164891311
896.128422697
896.030971735
896.468986928
896.031012552
896.483257651
896.243900987
896.402154469
893.972798221
894.391855348
896.181441439
623.019495402
792.038669087
787.879906109
788.636964083
787.627282128
793.077846604
810.216643052
841.846889681
880.587917245
896.082146451
896.030948991
896.518892329
896.0309969
896.59506764
895.861870844
890.232305295
886.50400181
886.092966428
890.038592125
895.393398837
652.75179497
791.796624529
807.006241572
830.854810352
844.970382821
856.27597549
871.608536432
890.435750996
896.15903708
896.030922727
896.745096132
896.030978104
896.717672641
889.998794247
880.599606364
879.966855938
881.867027961
885.137433913
889.913983629
895.12863384
699.4481132
778.023791104
802.591719688
831.457165608
854.852589827
873.625453027
889.367302949
896.287896432
896.030885158
896.823100623
896.030951502
890.72909519
878.622287586
870.109599804
872.720221507
879.732762204
883.525565632
886.813983858
890.862120906
895.541488722
719.988823829
748.288205659
774.365805317
807.234709855
837.581344414
860.331777083
876.318629366
883.557866791
880.238466296
868.870312153
853.569641203
841.808119061
844.180997822
857.732928574
872.657059433
883.566116464
888.713738729
890.826915032
892.896282158
896.333548217
704.788029235
697.14325493
710.272731462
734.312818403
763.406381835
786.297803549
797.085871608
794.187773188
775.856592134
749.481327057
733.072700135
750.10897841
794.702613267
838.411337138
867.956515439
884.631815864
894.357278252
895.96159565
895.997928809
897.56274148
663.381665239
650.679553474
655.223140897
661.230570428
666.71133383
669.438803629
667.627209455
659.354548237
644.472090104
630.272487286
626.442149441
655.774292211
720.649011396
790.588649047
844.465863274
879.09146331
896.052332758
899.83123099
899.347978219
899.411146602
631.663078042
634.921297613
641.622529818
638.207515571
626.871533248
613.349886789
604.178410713
598.706027969
594.370205426
591.254022085
593.201206411
614.766161044
668.524859996
739.058661865
806.894304458
862.816683509
895.595668512
901.04722136
901.034493291
900.919058678
631.17375067
636.819954219
641.373058322
635.784798333
621.403009892
605.262766139
594.809587812
589.983525025
587.815195141
587.734804799
590.218641533
610.308125838
657.916899712
721.606398648
787.698342366
850.039735224
894.555688925
901.05784766
901.077800545
901.07870088
634.267698055
643.523740681
641.656571418
635.160616514
622.524515151
607.636579954
597.040052512
591.625820697
589.250403868
588.891173697
592.588789712
613.970752356
660.378540584
721.75876784
786.605533836
849.353540821
894.993529285
901.096313091
901.057852089
901.100755237
644.42706196
646.069748329
640.713746839
634.937416917
628.647239982
619.256396986
610.082844707
603.257306013
599.536137099
598.445733442
604.630501588
629.839987877
674.954125704
731.22530815
793.531679923
855.964786408
898.432659908
901.044997363
901.187676247
901.057851334
646.52239688
646.098216773
637.544786101
633.77289722
636.301271672
640.177545384
640.564634004
634.89080487
628.291528805
625.451897049
633.708724249
663.059779694
706.175408311
757.529818878
816.924314257
875.673858972
901.044983263
901.189207814
901.045001702
900.850098314
646.381055728
641.489652806
631.06764942
628.645248323
635.870177217
660.553576622
685.275079239
690.446344483
681.306580979
675.187212452
683.029573806
711.669740438
751.28012324
799.902416946
855.807379999
897.219196035
901.127971962
901.04499158
901.203203933
882.045174976
630.054655556
629.271140987
622.080144607
620.076256226
628.746064952
656.569963347
716.679696381
754.420091112
752.914073543
745.899473093
750.152942537
772.789793111
806.941114447
851.636550629
892.36723362
901.10379517
901.044974637
901.203192587
891.495329109
826.848452753
599.966357352
613.150507396
611.82963811
610.697499038
616.450304576
637.049332422
696.735655002
769.32465557
813.601148428
823.822747387
828.196111221
841.973159308
866.40074428
893.321166044
901.090665895
901.044952266
901.203174031
893.629897712
825.540557579
765.234909178
592.998899567
601.684098066
602.585173899
602.278480702
604.577672638
616.186935084
653.409739179
733.946546174
805.888783421
844.436455332
870.678354237
890.167296534
899.58990282
901.107720197
901.044926232
901.203150297
893.513930177
821.728096591
734.31620017
735.521255242
591.784840788
596.272489402
596.610386946
596.523815681
596.979201923
601.452742613
619.239279212
668.006162641
748.770150522
820.600044896
864.416043686
892.029286835
901.125870602
901.044899664
901.202871808
894.620391996
821.287263988
714.812811259
691.463236659
725.934462176
592.866586432
594.305158985
594.260856602
594.176608334
594.199362752
595.133799682
601.159390828
621.452669228
669.88245417
747.239068031
821.02363182
872.74493539
897.691220875
900.53186959
892.646239555
831.154684102
714.076826515
670.418610736
681.681797721
722.774286966
591.678944485
593.892832286
594.006929868
594.083812648
594.139218938
594.198118747
595.798674684
603.953045444
626.387988278
673.425823954
745.026191922
818.379013982
867.855076066
870.684201462
836.077096013
730.955025546
670.314600068
668.905238371
680.800780691
723.309898083
592.766736769
594.162918847
594.206264287
594.258243414
594.190473552
594.248096534
595.235631731
601.621773568
617.579941287
646.962837642
695.076811757
757.072081751
804.639978714
799.424121398
745.371045214
675.347464821
668.905193841
668.84225442
683.678953963
731.741030121
591.729574687
595.457162737
595.520750577
596.078451124
595.278912804
594.792230217
596.027982131
602.743728923
618.818178563
647.399376816
688.053007377
725.836297287
744.97683902
730.144712282
685.920841812
668.905137367
668.750356301
669.330272341
695.185934942
753.291076034
592.680374161
598.066611402
598.452924445
600.689025863
599.547382277
598.430023742
600.312736686
608.270871864
625.410446956
653.936803699
692.280636406
722.955745132
720.97059577
698.2823295
669.34549864
668.728561493
668.905215805
676.211185181
717.606299834
784.222249367
591.960620574
601.542747426
602.316909392
606.812978841
607.549749828
607.757028445
611.649198667
622.560221683
642.332765918
671.607581558
705.469974508
726.976711421
719.25101956
687.401834416
668.725963329
668.905170607
669.027671062
692.139167024
748.207762091
817.31039089
592.768804277
605.229773736
606.190589322
612.129083884
616.813781282
622.647386564
632.69974385
649.240674805
673.277317744
703.748678329
731.501164526
739.577316779
721.978273959
682.10937804
668.905120964
668.799785651
677.043181205
717.887451767
782.516494289
846.495999877
592.64274309
609.427499801
610.165856749
616.052958938
623.956181175
639.660754388
663.172092739
689.173711503
718.797011175
749.613492371
768.611537137
762.977633687
726.631603553
680.614061871
668.840419418
672.042983348
697.27486094
751.000665465
816.220676372
867.048964567
594.811874392
615.713653714
615.404967438
619.266647726
628.047416904
653.841376406
696.538145472
736.989488938
774.351065476
804.384023103
809.343008924
789.025010092
729.671886064
682.735285698
675.380264825
688.135947976
728.064861333
786.798074953
845.149638521
876.126849805
608.539336081
626.470499674
622.963554292
623.07128585
631.104808632
662.300494759
721.350914097
780.434660659
824.80823656
847.071155993
842.363704168
807.960632003
736.112465673
695.234892815
696.077722134
718.470653587
764.763440755
820.840852556
864.73041224
876.841547966
627.112896848
641.762265151
633.159676913
628.387453578
635.425626624
667.919842146
732.733938748
804.196855873
848.946855723
855.514118455
855.354404931
823.492391668
755.389703184
723.833628594
729.929035191
756.952745242
802.020187364
848.381278195
871.729006815
874.257724195
628.894518337
660.122160947
647.129697515
637.441177086
643.132198847
674.343140661
737.327306755
807.779607027
850.383502118
855.50826433
855.632400761
840.030489353
790.205072146
765.078223082
771.272393521
796.017126789
833.837159755
864.821054498
871.77092757
871.807856808
629.665150228
683.307621946
668.276363895
653.902278207
657.251018046
684.568607406
742.160749671
808.311333994
849.524327195
855.623776573
855.558384618
854.408347701
829.005029205
808.611587525
811.211719323
828.395838107
855.258886305
871.296997859
871.734907404
871.723240378
629.770454138
714.535607422
698.62694788
680.373484945
680.161986788
701.08485915
750.792732479
810.529160479
849.080833378
855.558338217
855.726978936
855.665644874
852.823636591
840.532482816
838.993342732
849.386588675
866.92192162
874.382086724
872.10957036
871.66485973
630.684421852