/*--------------------------------*- C++ -*----------------------------------*\
| =========                 |                                                 |
| \\      /  F ield         | OpenFOAM: The Open Source CFD Toolbox           |
|  \\    /   O peration     | Version:  2312                                  |
|   \\  /    A nd           | Website:  www.openfoam.com                      |
|    \\/     M anipulation  |                                                 |
\*---------------------------------------------------------------------------*/
FoamFile
{
    version     2.0;
    format      ascii;
    arch        "LSB;label=32;scalar=64";
    class       volScalarField;
    location    "0.95/water";
    object      d.gas;
}
// * * * * * * * * * * * * * * * * * * * * * * * * * * * * * * * * * * * * * //

dimensions      [0 1 0 0 0 0 0];

internalField   nonuniform List<scalar> 
1496
(
0.00499409547943
0.00499417642827
0.00499417721305
0.00499421387076
0.00499426120373
0.0049943078175
0.00499435747839
0.00499441134511
0.00499446183307
0.00499450038766
0.00499453492506
0.00499457308958
0.00499461911253
0.00499467985156
0.00499475613524
0.00499484844468
0.00499497126612
0.00499511052476
0.00499534660036
0.00499571868207
0.00499410356952
0.00499419207374
0.00499421883364
0.00499426018707
0.00499430899723
0.00499435812372
0.00499441079672
0.00499446967491
0.0049945213637
0.00499456186843
0.00499460225737
0.00499464862624
0.00499470851073
0.00499478814125
0.00499489625928
0.0049950472529
0.00499522745929
0.00499548995856
0.00499580889001
0.00499573461356
0.0049940589765
0.00499418627987
0.00499422956737
0.00499426482726
0.00499431105176
0.00499435883999
0.0049944154957
0.00499448039438
0.00499453618019
0.0049945857404
0.00499464315922
0.00499471560285
0.00499481378572
0.00499495047248
0.00499512476431
0.00499532489473
0.00499558683013
0.00499582392921
0.00499575930664
0.00499575720992
0.00499386795099
0.00499405417456
0.00499411430608
0.00499415954641
0.00499421691442
0.00499428302844
0.00499436278362
0.0049944441297
0.00499451583726
0.00499459380028
0.00499469224203
0.0049948231731
0.00499498995589
0.00499517602056
0.0049953807652
0.004995632299
0.00499581879003
0.00499578142582
0.00499577987555
0.00499577875214
0.00499364315009
0.00499388057362
0.00499397600384
0.00499405014051
0.00499411595301
0.00499420449126
0.00499430782246
0.00499441089288
0.0049945217893
0.00499465396681
0.00499481333695
0.00499499435042
0.00499518651264
0.0049953945754
0.0049956284741
0.0049957935904
0.00499580891154
0.00499579741546
0.00499579767937
0.00499579771922
0.00499378359924
0.00499407407506
0.00499420496557
0.00499422570727
0.00499422867799
0.00499430323003
0.00499441634676
0.00499454915327
0.00499470044413
0.00499486451864
0.00499503344778
0.00499520584611
0.00499538958678
0.00499558568345
0.00499574548323
0.00499581278059
0.00499581830377
0.00499581503661
0.00499581500593
0.00499581515577
0.00499472277838
0.00499503748468
0.00499507695362
0.00499498841913
0.00499489206028
0.00499488050841
0.00499494395816
0.00499504531875
0.00499516016623
0.00499527432001
0.00499538522358
0.00499549757549
0.00499561621649
0.00499572709803
0.00499580096304
0.00499583183424
0.00499583340379
0.00499582961648
0.00499583013103
0.00499583036115
0.00499624725297
0.00499650387498
0.00499645761823
0.00499636010994
0.00499624792564
0.00499612161677
0.00499600563793
0.00499594838308
0.00499592712186
0.00499591865913
0.00499591427395
0.00499590987634
0.00499590473783
0.00499590383012
0.00499590241967
0.00499589162321
0.00499587124919
0.00499585214397
0.00499584441546
0.00499584399835
0.00499738495149
0.00499751934215
0.00499747027018
0.00499746273889
0.00499742548546
0.00499734818091
0.00499719486157
0.00499697610858
0.00499678274897
0.00499663274049
0.00499650743858
0.0049963887012
0.00499626506711
0.0049961574523
0.00499608379554
0.00499602971327
0.00499598448732
0.00499594656974
0.00499592151399
0.00499590480873
0.00499757663087
0.00499761578238
0.00499759257186
0.00499759294186
0.00499759457975
0.00499759433382
0.00499757737457
0.00499750561441
0.00499734088607
0.00499714852503
0.00499697376661
0.00499681175333
0.00499664250092
0.00499646713819
0.00499632524411
0.0049962322346
0.00499617236219
0.00499612979102
0.00499609441877
0.00499606757845
0.00499762896391
0.00499762988042
0.00499762953033
0.00499762945621
0.00499762994665
0.0049976310678
0.00499763206193
0.00499762848633
0.00499759358992
0.00499748179319
0.00499732186529
0.00499715832734
0.00499699634857
0.00499682002808
0.00499663540961
0.00499649023242
0.00499640559785
0.00499636209966
0.0049963383266
0.00499632164854
0.00499765139508
0.00499765157423
0.00499765165999
0.00499765196473
0.00499765251123
0.00499765315495
0.00499765391014
0.00499765481931
0.00499765333571
0.00499763096434
0.00499755348713
0.00499742738517
0.00499728503563
0.00499713721978
0.00499697340088
0.00499680080698
0.00499667007239
0.00499660312809
0.00499657947143
0.00499657572396
0.00499766957792
0.00499766978767
0.00499766993087
0.00499767018714
0.004997670591
0.00499767111009
0.00499767172741
0.00499767242341
0.0049976732054
0.00499767284851
0.00499765554069
0.00499759593263
0.00499749696522
0.00499737641464
0.00499724676327
0.00499710267049
0.00499695327264
0.00499684438667
0.00499679538916
0.00499678488297
0.00499768544502
0.00499768561383
0.00499768573808
0.00499768592066
0.00499768619887
0.00499768656673
0.00499768701671
0.00499768756039
0.00499768820316
0.00499768895965
0.00499769009165
0.00499766877494
0.00499761752603
0.00499753725531
0.00499743676131
0.00499732611478
0.00499720549929
0.00499708406328
0.0049969997252
0.00499696563153
0.00499769917518
0.00499769932482
0.00499769942747
0.00499769955497
0.00499769973629
0.00499769995753
0.00499770021399
0.00499770049548
0.00499770078762
0.00499770106853
0.00499770256578
0.00499769658671
0.0049976715676
0.00499762442401
0.00499755517721
0.00499747037154
0.00499737903289
0.0049972825339
0.00499718795889
0.00499712835264
0.00499771135432
0.00499771148694
0.00499771158181
0.00499771169982
0.00499771186086
0.00499771204436
0.0049977122521
0.00499771247895
0.00499771273329
0.00499771303996
0.00499771358247
0.00499771114628
0.00499769609975
0.00499766563759
0.00499761900212
0.00499755765372
0.00499748793455
0.00499741481509
0.00499734146191
0.00499727960947
0.00499772237072
0.00499772248663
0.00499772258752
0.0049977227036
0.00499772285811
0.00499772302976
0.00499772321398
0.00499772340855
0.0049977236157
0.00499772385533
0.00499772394224
0.00499772123936
0.00499771006936
0.0049976878585
0.00499765414075
0.00499761109939
0.00499756132695
0.00499750724884
0.00499745387105
0.00499741154797
0.00499773233791
0.00499773249252
0.00499773262023
0.00499773273166
0.00499773285836
0.00499773299476
0.00499773314003
0.00499773329225
0.00499773345923
0.00499773367201
0.0049977334686
0.00499773062938
0.00499772212019
0.00499770558586
0.00499768136289
0.00499765338739
0.00499762219806
0.00499758257571
0.00499754575723
0.00499752717399
0.00499773997387
0.00499774295816
0.00499774228824
0.00499774222925
0.00499774223052
0.00499774225341
0.00499774229564
0.00499774235348
0.00499774243447
0.00499774255807
0.00499774202875
0.00499774014596
0.00499773515404
0.00499772488542
0.00499771008979
0.00499769565747
0.00499767987917
0.00499765887242
0.00499763480569
0.00499763430131
0.00499775186789
0.00499776615923
0.00499775741732
0.0049977529427
0.00499775176904
0.00499775148454
0.00499775131038
0.00499775125004
0.0049977513317
0.00499775146658
0.00499775094878
0.00499775090759
0.00499774975871
0.00499774540487
0.00499773932349
0.00499773983642
0.00499774565887
0.0049977363831
0.0049977334497
0.00499775830006
0.00499777925454
0.00499780109551
0.00499778497355
0.00499778122807
0.00499778201777
0.00499778357963
0.00499778447387
0.00499778454392
0.00499778410901
0.00499778307013
0.00499778120859
0.00499778037436
0.00499777986537
0.00499777844479
0.00499778302941
0.00499780731946
0.0049978292455
0.00499784417507
0.00499785730196
0.00499790498537
0.00499781837776
0.00499783521032
0.00499781457601
0.00499781606807
0.00499782119194
0.00499782328199
0.00499782444112
0.00499782486892
0.004997824925
0.00499782528629
0.00499782562668
0.00499782703
0.00499782981684
0.00499783806443
0.00499786930004
0.00499791533898
0.0049979504607
0.00499796926903
0.00499801126529
0.00499811258518
0.00499789409353
0.00499792349017
0.00499790562086
0.00499791777078
0.00499793568958
0.00499793941416
0.00499793173475
0.00499792400584
0.00499792012541
0.00499791991609
0.00499792270571
0.00499792898322
0.00499794321547
0.00499797753126
0.0049980300624
0.00499807486419
0.00499809495387
0.00499813360244
0.0049981946858
0.004998341284
0.00499819067514
0.0049982482326
0.00499822336444
0.00499823389623
0.00499825577593
0.00499826611304
0.00499825627156
0.00499823699144
0.00499821824985
0.00499820531011
0.00499819944899
0.00499820245774
0.0049982178349
0.0049982443495
0.00499826431996
0.00499826477325
0.00499827526402
0.00499831716512
0.00499849664766
0.0049985958938
0.00499870613881
0.00499875823007
0.00499873546466
0.00499873762903
0.00499875289193
0.00499876140521
0.00499875039345
0.00499872467715
0.00499869403469
0.00499866485205
0.00499864080411
0.00499862353463
0.00499861411602
0.00499861494828
0.00499862954066
0.0049986803158
0.00499879947803
0.00499895408015
0.00499895705617
0.00499885777489
0.0049991926348
0.00499920717848
0.00499917455318
0.00499917144871
0.00499918271327
0.00499919907058
0.00499920327311
0.00499918388416
0.0049991489858
0.00499911018268
0.00499907918264
0.00499906923857
0.00499909982803
0.00499919028606
0.004999331277
0.00499945269353
0.00499946973885
0.00499939038166
0.00499929319042
0.00499919423596
0.00499926035926
0.00499926332623
0.00499926239298
0.0049992629165
0.00499926458932
0.00499927458706
0.00499929659935
0.00499931966531
0.0049993322779
0.00499933539728
0.00499934217451
0.00499937821105
0.00499945818045
0.00499953923928
0.00499952573452
0.00499947052734
0.00499944752637
0.00499944697454
0.00499944641572
0.00499941071086
0.00499927176619
0.00499927259872
0.00499927326713
0.00499927381638
0.00499927430856
0.00499927481859
0.00499927640164
0.00499928412378
0.00499929824881
0.00499932121486
0.00499936262308
0.00499942293489
0.00499947653507
0.004999463442
0.00499945471735
0.00499945462521
0.00499945447457
0.00499945442635
0.00499945452269
0.00499944909964
0.00499928480587
0.00499928511864
0.00499928532729
0.00499928553203
0.0049992857587
0.00499928599167
0.00499928619809
0.00499928862774
0.00499930055882
0.00499933184223
0.00499938588301
0.0049994446873
0.00499946313493
0.00499946084687
0.00499946104022
0.00499946130328
0.00499946159149
0.00499946184434
0.00499946206447
0.00499946085345
0.00499929600692
0.0049992962996
0.00499929651215
0.00499929671148
0.00499929692905
0.00499929715641
0.0049992977726
0.00499930247106
0.00499932116065
0.00499936372034
0.00499942287554
0.00499946617464
0.00499946869743
0.00499946881994
0.00499946903656
0.00499946932357
0.00499946959334
0.00499946981488
0.00499946996302
0.00499946842905
0.00499930645939
0.00499930663849
0.00499930678386
0.0049993069644
0.00499930706115
0.00499930714355
0.00499931057228
0.00499932257826
0.00499935366327
0.00499940607481
0.00499945837928
0.00499947766413
0.00499947726311
0.0049994773995
0.00499947757616
0.00499947773102
0.00499947784759
0.0049994778802
0.00499947785489
0.00499947369005
0.00499931963143
0.00499932602772
0.00499932104977
0.00499932074111
0.00499932118494
0.00499932507303
0.00499933502496
0.00499935754238
0.00499939930566
0.00499944698824
0.00499948117895
0.00499948648756
0.00499948635208
0.00499948624667
0.00499948618137
0.00499948610803
0.00499948595532
0.00499948568989
0.00499948530323
0.00499947419073
0.00499933776889
0.00499935452748
0.00499934581619
0.00499934684554
0.00499935121086
0.00499935878017
0.00499937444476
0.00499940399449
0.00499944164758
0.00499947451373
0.00499949302852
0.00499949452672
0.00499949447952
0.00499949442971
0.00499949434454
0.00499949418268
0.00499949393808
0.00499949359272
0.00499948801449
0.00499946805956
0.00499934044453
0.00499937974302
0.0049993726592
0.00499937578497
0.00499938461157
0.00499939552896
0.00499941551034
0.00499944463965
0.00499947276359
0.00499949404503
0.00499950328232
0.00499950245085
0.00499950233521
0.00499950230788
0.00499950221195
0.00499950204538
0.00499950178169
0.00499950026652
0.00499948063698
0.00499945312278
0.0049993967992
0.00499945416407
0.00499944875261
0.00499945367329
0.00499946492028
0.00499947420793
0.00499948642362
0.004999501302
0.00499951135769
0.00499951868995
0.0049995191808
0.00499951285872
0.00499951121163
0.00499951085095
0.00499951067881
0.0049995106669
0.00499950970184
0.00499949891224
0.00499947350264
0.00499946102764
0.00499955701473
0.00499961479821
0.00499959630031
0.00499960175066
0.00499961378345
0.00499962378654
0.00499962513747
0.00499962397017
0.00499961781577
0.00499960725896
0.00499959598394
0.00499958456623
0.00499958141858
0.00499958033968
0.00499957860655
0.00499957520248
0.00499956606421
0.00499955282926
0.00499955388996
0.00499957287528
0.00499979845685
0.004999846432
0.00499981450007
0.00499981641017
0.00499982254604
0.00499983017778
0.00499983749771
0.00499984717902
0.00499985878902
0.00499986753257
0.0049998729373
0.00499987851232
0.00499988745944
0.0049998932389
0.00499989182853
0.00499988223154
0.00499986607669
0.00499985198488
0.00499984760506
0.00499983078009
0.00499566537656
0.00499566233683
0.00499566030265
0.00499565890735
0.00499565783056
0.00499565705299
0.00499565653642
0.00499565632539
0.00499565633794
0.00499565811439
0.00499565772238
0.00499565428095
0.00499564949314
0.00499564507943
0.00499564440576
0.00499564685943
0.00499571907712
0.00499569916361
0.00499569634727
0.00499569205664
0.00499568760908
0.00499568184581
0.00499567760751
0.00499567529448
0.00499567421342
0.00499567341179
0.00499567295238
0.00499567271687
0.00499567272266
0.00499567361813
0.00499567330021
0.00499567131457
0.00499566862471
0.00499566628475
0.00499566693944
0.00499567014246
0.00499573273087
0.00499572830539
0.00499572577088
0.00499572388115
0.00499572224105
0.0049957155236
0.0049956967466
0.00499568692707
0.00499568516302
0.00499568505488
0.00499568495058
0.00499568493678
0.00499568498056
0.00499568542806
0.00499568511027
0.00499568322426
0.00499568066794
0.0049956786177
0.00499567940057
0.00499568268506
0.00499575553062
0.00499575443388
0.00499575363223
0.0049957531848
0.00499575325737
0.0049957466814
0.00499571818357
0.00499569731234
0.00499569379873
0.00499569450823
0.00499569463362
0.00499569464013
0.00499569456215
0.00499569484555
0.00499569471716
0.00499569276299
0.00499568997521
0.00499568791197
0.00499568870094
0.00499569175721
0.00499577802385
0.00499577747998
0.00499577704245
0.00499577678101
0.00499577655024
0.00499576925715
0.00499574361495
0.00499571896123
0.00499570801612
0.00499570378174
0.00499570424041
0.0049957043525
0.00499570446611
0.00499570496842
0.00499570484326
0.00499570276494
0.00499569959326
0.00499569749385
0.00499569835656
0.00499570099097
0.00499579770834
0.00499579750023
0.00499579737799
0.00499579713017
0.00499579625146
0.00499579199479
0.00499577479875
0.0049957543051
0.00499573348631
0.00499571602155
0.00499571672212
0.00499571639885
0.00499571659926
0.00499571737648
0.00499571759359
0.00499571572747
0.00499571241015
0.0049957105394
0.0049957117049
0.00499571399495
0.00499581519224
0.00499581527173
0.00499581526416
0.00499581551701
0.00499581400642
0.00499581246649
0.0049957958761
0.00499578167735
0.00499576894544
0.0049957382126
0.00499572914549
0.00499572960542
0.00499573295656
0.00499573629807
0.00499573834514
0.0049957378566
0.00499573517084
0.00499573418521
0.00499573619074
0.00499573838669
0.00499583044722
0.00499583027723
0.00499582993249
0.00499582927614
0.00499582092052
0.00499581992691
0.00499581171973
0.00499581423871
0.00499582364586
0.00499580316022
0.0049957839258
0.00499578103706
0.00499578204822
0.00499578520968
0.00499578828347
0.0049957888713
0.00499578580882
0.00499578461702
0.00499578679949
0.00499578846976
0.004995843769
0.00499584360034
0.00499584361089
0.00499584296448
0.00499583828843
0.0049958397924
0.0049958481766
0.00499586504708
0.00499589351768
0.00499589273622
0.00499586742342
0.00499586069867
0.00499585933036
0.00499586161928
0.00499586568448
0.00499586813403
0.00499586511547
0.00499586340269
0.004995865569
0.00499586659886
0.00499589546908
0.00499589179214
0.00499589002498
0.00499588389045
0.00499588573928
0.00499590097602
0.0049959278022
0.00499596218734
0.00499599720387
0.0049960056227
0.00499598061626
0.00499596995708
0.0049959652668
0.00499596531256
0.00499596969703
0.00499597406146
0.00499597266291
0.00499597089896
0.00499597296471
0.00499597373287
0.00499604815293
0.00499603256089
0.00499602083966
0.00499602157046
0.00499603473709
0.00499606422931
0.00499609764152
0.00499611240498
0.00499613734319
0.00499615140004
0.00499613017617
0.00499611640758
0.00499610740712
0.00499610397202
0.00499610717059
0.00499611286118
0.00499611364336
0.00499611161471
0.00499611259333
0.00499611295076
0.00499630954399
0.00499629849722
0.00499628946303
0.00499629111345
0.00499629820349
0.00499631029759
0.00499631387678
0.00499631837288
0.00499632325853
0.00499632777826
0.00499631741923
0.00499629892284
0.00499628444185
0.00499627679131
0.00499627682422
0.00499628249566
0.00499628455842
0.00499628237122
0.00499628142388
0.00499628082408
0.00499658009304
0.00499658533349
0.0049965818537
0.00499657520605
0.00499656475927
0.00499655512384
0.00499654831291
0.00499653325222
0.00499652762802
0.00499653339087
0.00499652612067
0.00499650038275
0.00499647965384
0.0049964669641
0.00499646147764
0.0049964644693
0.00499646707742
0.00499646533445
0.00499646297962
0.00499646128216
0.00499678891883
0.00499679668563
0.00499680280672
0.00499680039451
0.00499678809082
0.00499677211176
0.00499675515038
0.00499674413163
0.00499672461562
0.00499672260631
0.0049967294712
0.00499669595229
0.00499667054492
0.0049966536354
0.00499664264146
0.00499664091532
0.00499664423968
0.00499664350593
0.00499664092673
0.00499663859923
0.00499696368029
0.00499696475471
0.00499696796205
0.00499696761648
0.00499695682716
0.00499693894552
0.00499692371453
0.00499690254133
0.00499689547691
0.00499689930311
0.00499690860152
0.0049968738057
0.0049968462896
0.00499682839524
0.00499681564512
0.00499681050519
0.00499681384449
0.00499681406735
0.00499681165273
0.00499680896014
0.00499711251686
0.00499710224754
0.00499709728641
0.00499709201727
0.00499707949495
0.0049970626343
0.00499704492539
0.00499703867339
0.00499702383263
0.00499705516851
0.00499708297037
0.00499703583662
0.00499700902131
0.00499699238567
0.0049969805464
0.00499697420814
0.00499697655119
0.00499697743165
0.0049969751962
0.00499697220569
0.00499724982466
0.00499723446093
0.00499722337546
0.00499721149054
0.00499719601317
0.00499717804982
0.004997167216
0.00499714558171
0.00499714527684
0.00499725472923
0.00499721953392
0.00499717676346
0.00499715565643
0.00499714421263
0.00499713524539
0.00499713006487
0.00499713211613
0.00499713388548
0.00499713214845
0.00499712912545
0.00499738197383
0.00499736110206
0.00499734591259
0.00499733094444
0.00499731219387
0.00499729443669
0.00499727689856
0.00499728190214
0.00499736634893
0.00499740409186
0.00499734624043
0.00499731749627
0.00499730231457
0.00499729529584
0.0049972893541
0.00499728644083
0.00499728914351
0.00499729182765
0.00499729063188
0.00499728762607
0.00499750649467
0.00499747968083
0.0049974606798
0.00499744153427
0.00499742065685
0.00499741298809
0.0049974296764
0.00499745223143
0.00499757715984
0.00499753441855
0.00499748891235
0.0049974671536
0.0049974592845
0.00499745596568
0.00499745296839
0.00499745247693
0.0049974563582
0.00499745997229
0.00499745936809
0.00499745631761
0.00499763036778
0.00499759587092
0.00499757245199
0.0049975544465
0.00499754919128
0.00499757009411
0.00499760056742
0.00499776963773
0.00499776108063
0.00499769999399
0.00499766736964
0.00499765130326
0.00499764396965
0.00499763962207
0.00499763612906
0.00499763590311
0.00499764008453
0.00499764392595
0.0049976436234
0.0049976404055
0.00499776677108
0.0049977300892
0.004997711311
0.00499771190238
0.00499773927802
0.0049978089359
0.00499798895141
0.00499799187518
0.00499792964784
0.00499789323964
0.00499786760064
0.00499785304833
0.00499784394661
0.00499783761055
0.00499783264251
0.00499783132919
0.00499783475504
0.00499783838956
0.00499783829068
0.00499783506022
0.00499794257636
0.00499792039424
0.00499792704018
0.00499796376595
0.0049980464693
0.00499820661946
0.00499821088746
0.00499815831062
0.00499812601819
0.00499809645817
0.00499807325268
0.00499805799834
0.00499804716581
0.00499803907796
0.0049980328284
0.00499803083391
0.00499803337252
0.00499803650639
0.00499803653801
0.00499803353062
0.00499815684363
0.00499815812799
0.0049981936904
0.0049982690405
0.00499839065077
0.00499840882904
0.00499837045475
0.00499834352119
0.00499832110785
0.00499829609139
0.00499827399284
0.00499825803389
0.00499824624346
0.00499823728312
0.00499823064532
0.00499822856868
0.00499823056575
0.00499823304623
0.004998232973
0.00499823046929
0.00499837374331
0.00499839945519
0.0049984649544
0.00499854871228
0.00499858315767
0.00499856409988
0.00499854201808
0.0049985275853
0.00499851067811
0.00499848680946
0.0049984658842
0.00499844979769
0.0049984374879
0.00499842810792
0.0049984213423
0.00499841939269
0.00499842116543
0.00499842303591
0.00499842267373
0.00499842072573
0.00499858964585
0.00499864021502
0.00499870129718
0.00499873645094
0.00499873937398
0.00499872717448
0.00499871783387
0.00499870687538
0.00499869031509
0.00499867056568
0.00499865064591
0.00499863428641
0.00499862096827
0.00499861062539
0.00499860305085
0.00499860093036
0.00499860236022
0.00499860367125
0.00499860290439
0.00499860122035
0.00499885005526
0.00499887844135
0.00499889939197
0.00499890602205
0.00499890438069
0.00499889858649
0.00499888792496
0.00499887674675
0.00499886424486
0.00499884591862
0.00499882743797
0.00499881061327
0.00499879559022
0.00499878336869
0.0049987740536
0.00499877085073
0.00499877163779
0.00499877241556
0.00499877121651
0.00499876945701
0.00499913782797
0.00499911188399
0.00499909493834
0.00499908161157
0.00499906995558
0.00499905922895
0.00499904607337
0.00499903480995
0.0049990210659
0.00499900681389
0.00499898976077
0.00499897267633
0.00499895569132
0.00499894110475
0.00499892930327
0.00499892415365
0.00499892410819
0.00499892447201
0.00499892295037
0.00499892071712
0.00499934328576
0.00499928895598
0.00499925366124
0.00499922719831
0.00499920518331
0.00499919054322
0.00499917612764
0.00499916395171
0.0049991544396
0.0049991413587
0.00499912618597
0.00499911018426
0.0049990926257
0.00499907658618
0.00499906275264
0.00499905536077
0.00499905435284
0.00499905449092
0.00499905299193
0.00499905010104
0.0049994201691
0.00499937917506
0.00499934828456
0.00499932451897
0.00499930242835
0.00499928485322
0.00499927230214
0.00499926239843
0.00499925150362
0.00499924046009
0.00499922781737
0.00499921483197
0.00499919905935
0.00499918337096
0.00499916939452
0.00499916092046
0.00499915872906
0.00499915888858
0.00499915783709
0.00499915425693
0.00499944816487
0.00499942292029
0.00499940101076
0.00499938410447
0.00499936826733
0.00499935183801
0.00499933964569
0.00499932851437
0.00499931920247
0.00499930842773
0.00499929748142
0.00499928676047
0.00499927327214
0.00499925939038
0.00499924834225
0.00499924029056
0.00499923660451
0.00499923701627
0.00499923689844
0.00499923285883
0.00499946113495
0.00499944619088
0.00499943113425
0.00499941940935
0.00499940945442
0.00499939591817
0.00499938437967
0.00499937459949
0.0049993631917
0.00499935208533
0.00499934229273
0.00499933292103
0.00499932144949
0.00499931060587
0.00499930388709
0.00499929702411
0.0049992921691
0.00499929258247
0.00499929348051
0.004999289341
0.00499946691815
0.00499945747696
0.00499944678156
0.00499943845932
0.00499943258264
0.0049994241428
0.00499941099632
0.00499939719984
0.00499938468016
0.00499937347654
0.00499936533905
0.00499935752716
0.00499934954673
0.00499934417363
0.00499934154213
0.00499933633393
0.00499933205716
0.0049993324548
0.00499933419899
0.00499933025104
0.00499946411707
0.00499945672953
0.00499944879307
0.00499944322517
0.00499943998543
0.00499943425276
0.00499942007754
0.00499940356905
0.00499938885595
0.00499937880726
0.00499937333753
0.00499936950462
0.00499936922966
0.00499937067529
0.00499937076015
0.0049993686948
0.00499936488388
0.00499936534805
0.00499936864176
0.00499936517504
0.00499945242446
0.00499944557757
0.00499944001606
0.00499943732198
0.00499943617534
0.00499943281048
0.00499941983795
0.00499940196405
0.00499938718628
0.00499937976744
0.00499937936799
0.00499938612166
0.00499939601613
0.00499940255923
0.00499940544739
0.00499940671843
0.004999404545
0.00499940555253
0.00499941130061
0.00499941032106
0.0049994415665
0.00499943634801
0.00499943548547
0.00499943622546
0.00499943746846
0.00499943714881
0.0049994253983
0.00499940625922
0.00499939417846
0.00499939421955
0.00499940918098
0.00499942914554
0.0049994439144
0.00499945380156
0.00499946002532
0.00499946456957
0.00499946742853
0.00499946929632
0.00499947827832
0.00499948447475
0.00499946552545
0.00499946324238
0.00499946958275
0.00499947244363
0.0049994749998
0.00499947667899
0.00499946307643
0.00499944113791
0.00499943846693
0.00499946124862
0.00499949295209
0.0049995148118
0.00499952958833
0.00499954045261
0.00499954770076
0.00499955300615
0.00499955836511
0.00499956221708
0.00499957129845
0.00499957883414
0.00499958071969
0.00499959632009
0.00499961086152
0.00499961157043
0.00499961271144
0.00499961057914
0.00499958841925
0.00499956610227
0.00499958541385
0.0049996229862
0.00499964757151
0.00499966267264
0.0049996728744
0.00499967947115
0.00499968295559
0.00499968514324
0.00499969090032
0.00499970227726
0.00499970771519
0.00499971006427
0.00499981863421
0.00499982032407
0.00499981911338
0.00499981992174
0.0049998261303
0.00499982961165
0.00499982108308
0.00499981575681
0.00499983869422
0.00499985944958
0.00499986941398
0.00499987347479
0.00499987342721
0.00499987022244
0.00499986492999
0.00499986067694
0.00499986552102
0.00499987659164
0.00499987343297
0.00499987459251
)
;

boundaryField
{
    emptyPatch
    {
        type            empty;
    }
    minY
    {
        type            calculated;
        value           nonuniform List<scalar> 0();
    }
    maxY
    {
        type            calculated;
        value           uniform 0.005;
    }
    water_to_cooler
    {
        type            calculated;
        value           nonuniform List<scalar> 
38
(
0.00499564685943
0.00499567014246
0.00499568268506
0.00499569175721
0.00499570099097
0.00499571399495
0.00499573838669
0.00499578846976
0.00499586659886
0.00499597373287
0.00499611295076
0.00499628082409
0.00499646128216
0.00499663859924
0.00499680896015
0.0049969722057
0.00499712912546
0.00499728762607
0.00499745631761
0.0049976404055
0.00499783506023
0.00499803353062
0.00499823046929
0.00499842072573
0.00499860122033
0.00499876945698
0.00499892071706
0.00499905010094
0.00499915425674
0.00499923285842
0.00499928934014
0.00499933024924
0.00499936517111
0.00499941031099
0.00499948444891
0.00499957878962
0.00499971001449
0.00499987454438
)
;
    }
    water_to_heater
    {
        type            calculated;
        value           nonuniform List<scalar> 
59
(
0.0049940885805
0.00499410602058
0.00499409989174
0.00499405486724
0.00499382767038
0.00499387613394
0.00499361081597
0.00499366826989
0.00499376465028
0.00499382679604
0.00499471934247
0.00499624367283
0.00499734045564
0.00499739446506
0.00499754992988
0.00499759441201
0.00499761598189
0.00499764894798
0.00499764745244
0.0049976661264
0.00499766637593
0.00499768745212
0.00499768558575
0.00499770639749
0.00499770295545
0.00499772402752
0.00499771926692
0.00499772920759
0.00499772085991
0.00499774187901
0.0049977376341
0.00499775875236
0.00499777016328
0.00499779141713
0.00499781409912
0.00499788943733
0.00499815323283
0.00499819688588
0.00499867789507
0.00499872480729
0.00499917644913
0.00499922117776
0.00499925511152
0.00499926682811
0.00499926110368
0.00499928664368
0.00499927878977
0.00499930433301
0.00499929548044
0.00499932114303
0.00499931474797
0.00499933257911
0.00499930703663
0.00499934449957
0.00499937027929
0.00499941273291
0.00499954023568
0.00499958647494
0.00499979324614
)
;
    }
    procBoundary0to1
    {
        type            processor;
        value           nonuniform List<scalar> 
41
(
0.00499408191056
0.00499417096684
0.00499415118345
0.00499416138652
0.00499419378769
0.00499422808285
0.00499426630108
0.00499430791919
0.00499434976507
0.0049943870025
0.00499442108993
0.00499445782069
0.00499450034011
0.00499455596986
0.00499462577334
0.00499470349325
0.00499478491291
0.00499487477315
0.0049949896446
0.00499517918516
0.0049956447665
0.00499564086681
0.00499564057306
0.00499563914298
0.00499563715151
0.00499563585329
0.00499563516824
0.00499563503751
0.00499563532408
0.00499563697637
0.00499563113264
0.00499561776972
0.00499560274846
0.00499559021688
0.00499558448629
0.00499558441316
0.00499553209589
0.00499570657575
0.00499566926953
0.00499566740876
0.00499566740876
)
;
    }
}


// ************************************************************************* //
