/*--------------------------------*- C++ -*----------------------------------*\
| =========                 |                                                 |
| \\      /  F ield         | OpenFOAM: The Open Source CFD Toolbox           |
|  \\    /   O peration     | Version:  2312                                  |
|   \\  /    A nd           | Website:  www.openfoam.com                      |
|    \\/     M anipulation  |                                                 |
\*---------------------------------------------------------------------------*/
FoamFile
{
    version     2.0;
    format      ascii;
    arch        "LSB;label=32;scalar=64";
    class       volScalarField;
    location    "0.49/water";
    object      d.gas;
}
// * * * * * * * * * * * * * * * * * * * * * * * * * * * * * * * * * * * * * //

dimensions      [0 1 0 0 0 0 0];

internalField   nonuniform List<scalar> 
6000
(
0.00497657927042
0.00497664202806
0.00497665906958
0.00497667216557
0.00497668338352
0.00497669343662
0.00497670266932
0.00497671107461
0.00497671857789
0.00497672521064
0.00497673100976
0.00497673603125
0.00497674035384
0.00497674405296
0.00497674719082
0.00497674981924
0.0049767519799
0.00497675370606
0.00497675502144
0.00497675594355
0.0049768928149
0.00497692360064
0.00497692119125
0.00497692119471
0.0049769260885
0.00497693062141
0.00497693497787
0.00497693923288
0.00497694349551
0.0049769476578
0.00497695150112
0.00497695494595
0.00497695802925
0.00497696079097
0.0049769632441
0.00497696538557
0.0049769672058
0.00497696869493
0.00497696984263
0.00497697064025
0.00497717609072
0.00497720699446
0.00497719388448
0.0049771839548
0.00497718121175
0.0049771791728
0.0049771777922
0.00497717723251
0.0049771773958
0.00497717813858
0.00497717924013
0.00497718044775
0.00497718162425
0.00497718274366
0.0049771838036
0.0049771847903
0.0049771856761
0.00497718642685
0.00497718700585
0.00497718738096
0.00497741264139
0.00497743372307
0.00497742010023
0.00497741376053
0.00497741373949
0.00497741290946
0.00497741131341
0.00497740970981
0.00497740842341
0.00497740752954
0.00497740700957
0.0049774067423
0.00497740658482
0.00497740646604
0.0049774063724
0.00497740630347
0.00497740624997
0.00497740619227
0.00497740610234
0.00497740595254
0.00497764913782
0.00497766274863
0.00497764464796
0.00497763787022
0.00497763844923
0.004977638671
0.00497763767825
0.00497763613795
0.0049776346072
0.00497763325721
0.00497763212278
0.00497763117799
0.00497763034141
0.00497762954609
0.00497762877362
0.00497762803302
0.00497762733482
0.00497762668209
0.00497762606808
0.00497762548345
0.00497787257392
0.00497788706805
0.0049778691319
0.00497786138139
0.00497786082444
0.00497786124876
0.0049778609059
0.00497785967133
0.00497785807996
0.0049778565075
0.00497785505208
0.00497785373395
0.00497785251538
0.00497785134289
0.00497785019333
0.00497784907443
0.00497784800348
0.00497784699556
0.00497784605783
0.00497784519455
0.00497809865954
0.00497811717902
0.00497809999183
0.00497809084248
0.00497808747632
0.00497808577086
0.00497808442421
0.00497808269684
0.00497808056541
0.00497807842742
0.00497807647404
0.00497807473353
0.00497807317234
0.00497807172775
0.00497807035508
0.00497806904396
0.0049780678016
0.00497806663948
0.00497806556531
0.00497806458592
0.00497831281446
0.00497833503216
0.0049783232171
0.00497831511878
0.00497831109502
0.00497830794393
0.00497830539245
0.00497830304193
0.00497830047081
0.00497829784431
0.00497829548527
0.00497829347549
0.00497829176941
0.00497829027381
0.0049782889108
0.00497828764348
0.00497828646074
0.00497828536227
0.00497828434851
0.00497828342388
0.00497852528096
0.00497854780749
0.00497853320986
0.00497852599664
0.00497852328658
0.0049785208018
0.00497851855811
0.00497851655
0.00497851450437
0.00497851232502
0.00497851035413
0.00497850877186
0.00497850752929
0.00497850650532
0.00497850559668
0.00497850475103
0.00497850394709
0.00497850317805
0.00497850244229
0.00497850174217
0.00497872219894
0.00497874751123
0.00497873256323
0.00497872720345
0.00497872689149
0.00497872651948
0.00497872554675
0.0049787243471
0.00497872312086
0.00497872194503
0.00497872115019
0.00497872082505
0.00497872080313
0.00497872088027
0.00497872092837
0.00497872089845
0.00497872077547
0.00497872056062
0.00497872025989
0.0049787198832
0.00497891434771
0.00497894565623
0.00497893316041
0.0049789295159
0.00497893131126
0.00497893243622
0.00497893220522
0.00497893133336
0.00497893056706
0.00497893030218
0.00497893083369
0.00497893216257
0.00497893383819
0.00497893539348
0.0049789366474
0.00497893757694
0.00497893819707
0.00497893853391
0.00497893861726
0.00497893848138
0.00497911053021
0.00497914903772
0.00497914252711
0.00497914127463
0.00497914422865
0.00497914567322
0.00497914519101
0.00497914393745
0.00497914320486
0.00497914349902
0.00497914497016
0.00497914757904
0.00497915070369
0.00497915347151
0.00497915557204
0.00497915705174
0.00497915798959
0.0049791584577
0.00497915852449
0.00497915825837
0.00497932445951
0.00497937204914
0.00497937422274
0.00497937438259
0.00497937683001
0.00497937692865
0.00497937501776
0.00497937296033
0.00497937168506
0.00497937120222
0.00497937178952
0.00497937381482
0.00497937672934
0.00497937924688
0.00497938081831
0.00497938159431
0.00497938174968
0.00497938140391
0.00497938065424
0.00497937959139
0.00497958805791
0.00497963896489
0.00497963659559
0.00497963505413
0.00497963570316
0.00497963335904
0.00497962958011
0.00497962626505
0.00497962333432
0.00497962028718
0.00497961749232
0.00497961580699
0.00497961532185
0.00497961486036
0.00497961360397
0.00497961173395
0.00497960952778
0.00497960711549
0.00497960456906
0.00497960195409
0.00497989903467
0.00497994573243
0.00497993117304
0.00497992353311
0.00497991895133
0.00497991266906
0.00497990587504
0.00497989942619
0.00497989270294
0.0049798852269
0.00497987737137
0.0049798698596
0.00497986296072
0.00497985665284
0.00497985042466
0.00497984428392
0.00497983848823
0.00497983312557
0.00497982816802
0.00497982359039
0.00498021250275
0.00498023587869
0.00498020675158
0.00498019262826
0.00498018389852
0.00498017505956
0.00498016593936
0.00498015672321
0.0049801470389
0.00498013672904
0.00498012620845
0.00498011586905
0.00498010480389
0.00498009318374
0.00498008216114
0.00498007205421
0.00498006301287
0.00498005505389
0.00498004805407
0.00498004188611
0.00498039460273
0.00498040870954
0.00498038951599
0.0049803820549
0.00498037882491
0.00498037472569
0.00498036908708
0.00498036240501
0.00498035509125
0.00498034743764
0.00498033956062
0.00498033165128
0.00498032279924
0.00498031136937
0.00498029904753
0.00498028761529
0.00498027751409
0.00498026872153
0.00498026111293
0.00498025453908
0.00498056037587
0.00498057497167
0.0049805596376
0.00498055208325
0.00498054897089
0.00498054571762
0.00498054166978
0.00498053752426
0.00498053375543
0.00498053005753
0.00498052590683
0.00498052098952
0.00498051535203
0.00498050781946
0.00498049811171
0.0049804884701
0.00498047996014
0.00498047258253
0.00498046621249
0.0049804607546
0.00498070702811
0.00498072205498
0.00498070810209
0.00498070420568
0.00498070449606
0.00498070440837
0.0049807032712
0.00498070158283
0.00498070013162
0.00498069961433
0.00498069878632
0.00498069559297
0.00498069148792
0.00498068738221
0.00498068220614
0.00498067672666
0.00498067200891
0.00498066799658
0.00498066450717
0.00498066152978
0.00498087909275
0.00498089488285
0.00498087367472
0.00498086699037
0.00498086574575
0.00498086456974
0.00498086268328
0.00498086115887
0.00498086207666
0.00498086510744
0.00498086670278
0.00498086550054
0.00498086239946
0.00498085966358
0.00498085836324
0.00498085773504
0.00498085801114
0.00498085853104
0.0049808589494
0.00498085931373
0.00498101200292
0.00498103391657
0.00498101834626
0.0049810146918
0.00498101599102
0.0049810171114
0.00498101776463
0.00498102042745
0.00498102748773
0.00498103458861
0.00498103739397
0.00498103833222
0.0049810362268
0.00498103428857
0.00498103522933
0.00498103873893
0.00498104393134
0.00498104909674
0.00498105357568
0.00498105742314
0.00498117889376
0.00498120715411
0.00498118864409
0.00498118204482
0.00498118206941
0.00498118326267
0.00498118633035
0.00498119581977
0.0049812082491
0.00498121170539
0.00498121629601
0.00498121975089
0.00498121951799
0.00498121817272
0.0049812201501
0.00498122675993
0.00498123589039
0.00498124482032
0.00498125259788
0.00498125929442
0.00498133307672
0.00498137016713
0.00498136076876
0.00498135755461
0.00498136065013
0.00498136559427
0.00498137503927
0.00498139046842
0.00498139711811
0.00498140473868
0.0049814099628
0.00498141444523
0.00498141940845
0.00498141765896
0.00498141933241
0.00498142750699
0.00498143888713
0.0049814499246
0.00498145948211
0.00498146772689
0.00498154607239
0.00498158616311
0.00498156841964
0.00498156425465
0.00498156863638
0.0049815762864
0.00498159002301
0.00498160181058
0.00498161220915
0.00498161767462
0.00498162496944
0.00498164329481
0.00498164419775
0.00498163907051
0.00498163837327
0.00498164521688
0.00498165599252
0.00498166679483
0.00498167613558
0.00498168422761
0.00498177043136
0.00498181085372
0.00498179043119
0.00498178823855
0.00498179591528
0.00498180692664
0.00498182067317
0.00498183517279
0.00498184216945
0.00498185168896
0.00498187799575
0.00498188339142
0.00498187826949
0.00498187375536
0.00498187319655
0.00498187736962
0.00498188544057
0.00498189434096
0.00498190198676
0.00498190851044
0.0049819915151
0.0049820386692
0.00498202144079
0.00498202220506
0.00498203205522
0.00498204385001
0.00498205932565
0.00498207109837
0.00498208425419
0.00498211170676
0.00498212067557
0.0049821199659
0.00498211932589
0.00498211895025
0.0049821180598
0.00498211933199
0.00498212376427
0.00498212998791
0.00498213519794
0.0049821392592
0.00498221821755
0.00498227553385
0.00498226819472
0.00498227079795
0.00498228116793
0.00498229491646
0.00498231325982
0.00498233505888
0.00498235963246
0.004982370978
0.0049823716046
0.00498237136242
0.00498237236006
0.00498237283
0.00498237103208
0.0049823700868
0.00498237019377
0.00498237258731
0.00498237452269
0.00498237527229
0.00498248606981
0.00498256208115
0.00498256793361
0.00498257229908
0.0049825832689
0.00498259826684
0.00498261782706
0.00498263538193
0.00498264282381
0.00498264119168
0.00498263770228
0.00498263676395
0.00498263782889
0.00498263509566
0.00498263316595
0.00498262841258
0.00498262455101
0.00498262166753
0.0049826189868
0.00498261531123
0.00498288874977
0.00498296781267
0.00498296104696
0.00498295734784
0.0049829555364
0.00498295457802
0.00498295460214
0.00498294904999
0.00498293811267
0.00498292700148
0.00498291902731
0.00498291419952
0.00498290924142
0.00498290487105
0.00498289700846
0.00498288947498
0.00498288326144
0.00498287493671
0.00498286633453
0.00498285713452
0.00498336167569
0.00498342147146
0.00498339174213
0.00498337397047
0.00498335611992
0.00498333401525
0.00498331004237
0.00498328399846
0.00498325792278
0.00498323454105
0.00498321548893
0.00498319998821
0.0049831862494
0.00498317384927
0.0049831615171
0.00498315062833
0.00498314104399
0.00498312803009
0.00498311263138
0.00498309709439
0.00498374155264
0.00498376090637
0.00498372752308
0.00498371203473
0.0049836971213
0.00498367372468
0.00498364212217
0.00498360703026
0.00498357164561
0.00498353806876
0.00498350841211
0.00498348119697
0.00498345589472
0.00498343450482
0.00498341656106
0.0049834016913
0.00498338831277
0.00498337229276
0.00498335123751
0.00498332973209
0.00498395724572
0.00498395087596
0.00498393127704
0.0049839233766
0.00498391775788
0.00498390706633
0.00498388575424
0.00498385659214
0.00498382373055
0.00498379010674
0.00498375800221
0.00498372646914
0.00498369615067
0.00498366947481
0.0049836482864
0.00498363129726
0.0049836153505
0.00498359791963
0.00498357435054
0.00498354890146
0.00498406529975
0.00498405989519
0.00498405054466
0.00498404717073
0.00498404642888
0.00498404471748
0.00498403586996
0.00498401852421
0.00498399556957
0.00498397009296
0.00498394410753
0.00498391787723
0.00498389131082
0.00498386723629
0.00498384781546
0.00498383207871
0.00498381571989
0.00498379814999
0.00498377566395
0.00498374958986
0.00498416348069
0.00498415475776
0.00498414336495
0.00498413957639
0.0049841393742
0.00498413972845
0.00498413641795
0.00498412687089
0.00498411272765
0.00498409683991
0.00498408105404
0.00498406298527
0.00498404464005
0.00498402764317
0.00498401422154
0.00498400244785
0.00498398770129
0.00498397101733
0.00498395212547
0.00498392923245
0.00498423986904
0.00498423274705
0.00498422163952
0.00498421836174
0.00498421838128
0.00498421914304
0.00498421808274
0.00498421300681
0.0049842051335
0.00498419704303
0.0049841892142
0.0049841804977
0.00498416907981
0.00498415940228
0.00498415324964
0.0049841468085
0.00498413330204
0.00498411853242
0.00498410485624
0.00498408851758
0.00498431740975
0.00498431047957
0.00498429890909
0.00498429524507
0.00498429476648
0.00498429548597
0.00498429547493
0.00498429280714
0.00498428838569
0.00498428569519
0.00498428578186
0.00498428167389
0.00498427776175
0.00498427392088
0.00498427380036
0.00498427402043
0.00498426312205
0.00498425174619
0.00498424223
0.00498423307061
0.00498437941612
0.00498437613895
0.00498436697081
0.00498436437096
0.00498436411051
0.00498436527458
0.00498436629765
0.00498436563464
0.00498436512524
0.00498436976813
0.00498437576349
0.00498437883992
0.00498437921006
0.00498438234034
0.00498439257155
0.00498439516314
0.0049843887274
0.004984379806
0.00498437327317
0.00498437050211
0.00498445119496
0.00498444960388
0.00498444018466
0.00498443720116
0.00498443667772
0.00498443794064
0.00498443957107
0.00498444105143
0.00498444590748
0.00498445878147
0.00498447165571
0.0049844779954
0.00498448617779
0.00498449486431
0.00498450737301
0.00498451851979
0.00498451527523
0.00498450882373
0.00498450526457
0.00498450799195
0.00498452966121
0.0049845280319
0.00498451439081
0.00498451154025
0.00498451267544
0.0049845162066
0.0049845206288
0.00498452661931
0.0049845399726
0.00498456113345
0.00498457560035
0.00498458829519
0.00498459926953
0.00498461369349
0.00498463686059
0.0049846488363
0.00498464843343
0.00498464486335
0.0049846444755
0.00498465164283
0.00498463535179
0.00498463444998
0.00498461218846
0.00498460793878
0.0049846104278
0.00498461589157
0.00498462271941
0.00498463401365
0.00498465732311
0.00498468085945
0.00498469902223
0.00498471383343
0.00498473119651
0.004984750952
0.00498477504539
0.00498479247024
0.00498479372707
0.00498479382051
0.00498479656897
0.00498480650546
0.00498474004484
0.00498474402464
0.00498471914046
0.00498471665396
0.00498472301065
0.00498473238046
0.00498474425364
0.00498476622328
0.00498479604318
0.00498482059402
0.00498483899117
0.00498485949866
0.00498487966038
0.0049849036115
0.00498493739593
0.00498495076443
0.00498495586145
0.00498496093201
0.0049849656085
0.00498497575029
0.00498486069631
0.0049848769004
0.00498485001891
0.00498484808965
0.00498485745152
0.00498487069636
0.00498489110563
0.0049849241527
0.00498495563015
0.00498497721557
0.00498500121405
0.00498502427828
0.00498504889641
0.00498508321152
0.00498511194359
0.00498512672248
0.0049851381553
0.00498514717197
0.00498515160144
0.00498516003215
0.00498497739923
0.00498500920398
0.00498499076416
0.00498499348095
0.00498500913829
0.00498503147558
0.00498506678757
0.00498510437977
0.00498512849778
0.00498515567769
0.0049851813882
0.00498520918531
0.00498524071573
0.00498527418131
0.00498530530618
0.00498532290498
0.00498533973009
0.0049853505615
0.00498535417337
0.00498536110498
0.00498510832269
0.00498516253077
0.00498514145251
0.00498515206944
0.00498518065858
0.00498521940341
0.00498526268731
0.00498529068945
0.00498532152217
0.00498535048201
0.00498538132674
0.00498541621921
0.00498545020842
0.00498549086228
0.00498551784782
0.00498554064511
0.00498556190339
0.00498557388355
0.00498557923607
0.00498558608629
0.00498524684282
0.00498532361068
0.00498531384165
0.00498533786929
0.0049853808918
0.00498542846359
0.00498546467938
0.00498550170479
0.00498553611266
0.00498557239159
0.00498561249798
0.00498564933872
0.00498569317777
0.0049857295181
0.00498576032183
0.00498578950182
0.00498581405814
0.00498582882908
0.00498583787313
0.00498584352659
0.00498541086925
0.00498552112169
0.00498553687517
0.00498556584323
0.00498561147063
0.00498566058462
0.00498571177181
0.00498575617824
0.00498579877519
0.00498584773771
0.00498588830937
0.00498593405654
0.00498597333356
0.00498600993585
0.00498604372172
0.00498607710653
0.0049861030909
0.00498612074597
0.00498613180528
0.00498613560013
0.00498575957079
0.00498591361606
0.00498593872978
0.0049859590247
0.00498599396132
0.00498604288205
0.00498609461068
0.00498614022296
0.00498619243385
0.0049862313689
0.00498626523631
0.00498629493445
0.00498632408859
0.00498635080812
0.00498637853493
0.00498640411972
0.00498642481613
0.00498644103256
0.00498644944476
0.0049864532321
0.00498663767132
0.00498681571353
0.00498683294467
0.00498682277541
0.00498680788451
0.00498679600277
0.00498679146553
0.00498679193294
0.00498678502088
0.00498677338009
0.0049867644079
0.00498676155398
0.00498676086194
0.00498676120132
0.00498676252065
0.00498676457336
0.00498676815186
0.00498677335139
0.0049867747634
0.00498677316785
0.00498765174133
0.00498776059529
0.00498772245921
0.00498769944862
0.00498767696961
0.00498764071056
0.00498758563409
0.00498751610804
0.00498744415217
0.00498737875251
0.00498732378824
0.00498727804808
0.00498723805436
0.00498720189884
0.00498716887124
0.00498713994954
0.00498711740549
0.00498710332098
0.00498709391168
0.0049870821464
0.00498809851129
0.00498810887933
0.0049880757844
0.00498806471436
0.00498806050065
0.00498805350806
0.00498803333802
0.00498799095575
0.00498792843433
0.00498785781487
0.00498778605047
0.00498771703416
0.00498765325609
0.00498759408002
0.00498753940822
0.00498748947113
0.00498744580964
0.00498741281421
0.00498739287127
0.00498737474435
0.00498824517607
0.00498822819027
0.00498820568643
0.00498819854325
0.00498819794197
0.00498819978046
0.00498820033336
0.00498819349791
0.00498817091745
0.00498813166704
0.00498807895054
0.00498801706095
0.00498795340825
0.00498789176365
0.00498783348495
0.0049877790092
0.00498772877622
0.00498768599849
0.00498765695348
0.00498763582165
0.00498833557007
0.00498831949323
0.00498830106153
0.00498829394318
0.0049882928825
0.00498829415809
0.00498829613969
0.0049882966902
0.00498829083845
0.00498827320402
0.00498824343294
0.00498820221655
0.00498815344761
0.00498810255085
0.00498805213353
0.00498800349744
0.00498795768623
0.00498791598353
0.00498788302388
0.00498786195596
0.00498840950734
0.00498839924171
0.00498838689792
0.00498838209168
0.00498838149705
0.00498838254774
0.00498838359625
0.00498838413425
0.00498838115118
0.00498837050699
0.0049883520365
0.00498832600522
0.00498829302559
0.00498825600323
0.00498821706947
0.00498817812327
0.00498814068718
0.0049881064458
0.00498807703658
0.0049880574582
0.0049885041503
0.0049884910369
0.00498847450542
0.00498846821875
0.00498846687847
0.00498846760921
0.00498846847064
0.00498846865683
0.0049884659089
0.00498845729788
0.00498844322864
0.00498842494533
0.00498840289674
0.00498837758133
0.00498834935336
0.00498832012609
0.00498829155545
0.00498826594675
0.00498824452702
0.00498822722468
0.00498857254876
0.00498856404366
0.00498854892899
0.00498854423631
0.00498854418569
0.00498854550417
0.00498854677241
0.00498854687303
0.00498854439007
0.00498853698848
0.00498852570942
0.00498851261505
0.00498849861892
0.00498848245159
0.00498846282514
0.0049884417898
0.004988421117
0.00498840322599
0.00498839019512
0.00498837645871
0.00498864359124
0.00498863887893
0.00498862422124
0.00498861949231
0.00498861897452
0.00498861999714
0.00498862066553
0.00498862049303
0.00498861793025
0.00498861143861
0.00498860256994
0.00498859362654
0.00498858587762
0.00498857714383
0.00498856458212
0.00498855054282
0.00498853706184
0.00498852584894
0.0049885201617
0.00498851533071
0.00498869558406
0.00498869811236
0.00498868870045
0.00498868594794
0.00498868646274
0.00498868756759
0.00498868840712
0.00498868782424
0.00498868508866
0.00498867924814
0.00498867213327
0.00498866641841
0.00498866480705
0.00498866353617
0.00498865765437
0.00498865080023
0.0049886441812
0.00498863809769
0.00498864059463
0.00498864635527
0.00498875168769
0.00498876093092
0.00498875366427
0.00498875133138
0.00498875130543
0.00498875209504
0.00498875202552
0.00498875045936
0.00498874668354
0.00498874066543
0.00498873506527
0.00498873355593
0.00498873973606
0.00498874607987
0.00498874718813
0.00498874779917
0.00498874692835
0.00498874783132
0.0049887584658
0.00498877345936
0.00498880428204
0.0049888182242
0.00498880955172
0.00498880841904
0.00498880958552
0.00498881055947
0.00498881046859
0.00498880838254
0.00498880413387
0.00498879922544
0.00498879687707
0.0049888019167
0.00498881769065
0.0049888311392
0.0049888396427
0.00498884758421
0.00498885185617
0.00498885772707
0.00498887517131
0.00498889923403
0.00498886628779
0.00498888750199
0.00498887192709
0.00498886996567
0.0049888708573
0.00498887185003
0.00498887152157
0.0049888692079
0.00498886560349
0.00498886318937
0.00498886551343
0.00498888026587
0.00498890554803
0.00498892429154
0.00498894173449
0.00498895479891
0.00498896189591
0.00498897425387
0.00498899862761
0.00498902800086
0.00498893935063
0.00498896675404
0.00498894657859
0.00498894406976
0.00498894604285
0.00498894794642
0.00498894804095
0.00498894625696
0.00498894439494
0.00498894501857
0.00498895397173
0.00498898231364
0.00498901452256
0.00498903969907
0.00498906475294
0.00498907652734
0.0049890855221
0.00498910190191
0.00498913115063
0.00498916508954
0.00498904361438
0.00498907962331
0.00498905683264
0.00498905319531
0.00498905643477
0.00498905936181
0.00498906003604
0.00498905935258
0.00498905922848
0.00498906384428
0.00498908521161
0.00498912392553
0.00498915750574
0.00498919189968
0.00498921132612
0.00498921502605
0.00498922594312
0.00498924883245
0.00498928058242
0.00498931277297
0.00498918706623
0.00498923175466
0.004989213643
0.00498921040412
0.0049892147646
0.00498921817528
0.00498921927635
0.00498921936187
0.00498922129772
0.00498923342829
0.0049892670689
0.00498930614631
0.00498934596682
0.00498937526916
0.00498937506101
0.00498937483903
0.00498939005509
0.00498941310757
0.00498944190439
0.00498947081176
0.00498936090373
0.00498941471904
0.00498939208703
0.00498939191924
0.00498939926722
0.00498940445692
0.00498940785366
0.00498941164575
0.0049894208022
0.00498944649053
0.00498948606727
0.00498953043063
0.00498956835194
0.00498956697678
0.00498955425267
0.00498955687349
0.00498957500174
0.00498959565443
0.00498961943229
0.00498964133498
0.00498955008107
0.00498961907608
0.00498958990336
0.00498959008037
0.0049895973732
0.00498960368117
0.00498961175892
0.00498962434039
0.00498964773524
0.00498968637367
0.00498973315413
0.00498977591573
0.00498977815332
0.00498975899921
0.00498975007039
0.00498975936536
0.00498977742372
0.00498979250912
0.00498980669318
0.00498982604671
0.00498977822663
0.00498986506592
0.00498982687578
0.00498982126218
0.00498982353611
0.00498982876939
0.00498984148347
0.00498986380445
0.00498989837184
0.00498994110945
0.00498998071193
0.00498999079423
0.00498997585566
0.00498996375635
0.00498996252685
0.0049899750058
0.00498998827961
0.0049899977317
0.00499000840898
0.00499002896105
0.00499011296667
0.00499019811197
0.00499015603862
0.00499013630715
0.00499012653236
0.0049901233798
0.00499012898741
0.00499014514442
0.00499016994968
0.00499019498334
0.00499020984876
0.00499020484613
0.00499019544756
0.00499018832038
0.00499018876776
0.00499019843713
0.00499020780495
0.00499021458594
0.00499022465357
0.00499024641269
0.00499054313884
0.00499058888907
0.00499054596175
0.00499051759813
0.00499049473935
0.00499047359443
0.00499045558819
0.00499044575398
0.0049904445684
0.00499044537426
0.00499044303769
0.00499043374211
0.00499042268292
0.00499041327082
0.00499041263375
0.00499041894528
0.0049904251829
0.00499043088758
0.00499044279789
0.00499046038899
0.0049908076881
0.00499080670398
0.00499078205268
0.00499076657168
0.00499075500498
0.00499073785998
0.00499071367886
0.00499069001548
0.00499067132455
0.00499065733437
0.00499064346162
0.00499062934116
0.00499061666592
0.00499060970207
0.00499061112151
0.00499061782281
0.00499062451358
0.00499063237187
0.00499064514478
0.00499066868932
0.00499085543683
0.00499085644186
0.00499085315637
0.0049908494903
0.00499085258137
0.00499085563595
0.00499084815155
0.00499083293395
0.00499081692827
0.00499080350507
0.00499079023454
0.00499077855595
0.0049907710952
0.00499077075232
0.00499077795468
0.00499078920375
0.00499080116488
0.00499081584193
0.00499083761612
0.0049908658141
0.00499088703644
0.0049908875914
0.00499088743594
0.00499088589637
0.00499088977581
0.00499089904953
0.0049909042468
0.00499090309656
0.00499090252477
0.00499090438559
0.00499090454985
0.00499090369863
0.00499090481888
0.00499091106307
0.00499092350778
0.00499093925433
0.0049909570381
0.00499097873833
0.00499100547796
0.00499104393107
0.0049909146712
0.00499091500145
0.00499091412817
0.00499091269128
0.0049909160649
0.00499092592495
0.00499093624273
0.00499094545143
0.00499096101042
0.00499097921271
0.00499099234602
0.00499100353449
0.00499101767657
0.00499103309381
0.00499105006811
0.00499106864968
0.00499108993744
0.00499111684163
0.00499115238725
0.00499119677448
0.00499094403809
0.00499094951495
0.0049909436399
0.00499094126824
0.00499094465972
0.00499095404785
0.00499096522136
0.00499097875343
0.00499100465206
0.00499103545042
0.00499105554492
0.00499107608333
0.00499109703002
0.00499112062801
0.00499114632923
0.00499117059143
0.00499119623134
0.00499122726615
0.0049912662987
0.00499131550284
0.00499097282591
0.00499099643165
0.00499097284646
0.00499096653963
0.00499096960449
0.0049909779035
0.00499098811553
0.00499100603541
0.00499104374432
0.00499107892833
0.00499110611183
0.00499113019461
0.00499115748578
0.00499118689656
0.00499121635994
0.00499124855555
0.004991279926
0.00499131456313
0.00499135624078
0.00499140691489
0.00499100188632
0.00499105109921
0.00499100656879
0.00499099558604
0.0049909987413
0.00499100664485
0.00499101918301
0.0049910514878
0.0049910980957
0.00499113438952
0.0049911594518
0.00499118863228
0.00499121851598
0.00499124911379
0.00499128343804
0.00499131621724
0.00499135240176
0.00499138857973
0.00499142890889
0.00499147492122
0.004991036074
0.00499111416308
0.0049910621686
0.004991047077
0.00499105100943
0.00499106229666
0.0049910886472
0.00499113813111
0.00499118402305
0.00499120820225
0.00499123640525
0.00499126410594
0.00499129337362
0.00499132647933
0.00499135793024
0.0049913939172
0.00499142715333
0.00499146232434
0.00499149825177
0.00499153764865
0.00499107588918
0.00499117878372
0.00499114795017
0.00499113892122
0.00499115248749
0.00499117876067
0.00499122335542
0.00499127110108
0.00499129373132
0.00499131876707
0.00499134240451
0.00499136702756
0.00499139903974
0.00499142741476
0.00499146188574
0.00499149116141
0.00499152274833
0.00499155174596
0.00499158160641
0.00499161388617
0.0049912085087
0.00499134427725
0.00499134237128
0.00499134221783
0.004991358573
0.00499138198477
0.00499141444693
0.00499143914059
0.0049914606252
0.00499148222579
0.00499150135801
0.0049915340283
0.00499156021042
0.00499158698279
0.00499160938877
0.00499163197991
0.00499165180141
0.00499167127858
0.00499169115251
0.00499171362224
0.00499170482474
0.00499184651924
0.00499182917353
0.00499181869901
0.00499181662754
0.00499181571937
0.00499182174764
0.00499182900891
0.00499183443009
0.00499183274445
0.00499183238735
0.00499182622345
0.00499182025676
0.00499181630333
0.00499181577158
0.00499181635162
0.00499181750793
0.00499181908319
0.00499182371224
0.0049918322053
0.00499236945716
0.00499247706217
0.00499245226024
0.00499244497794
0.00499244512756
0.00499244202125
0.0049924305017
0.00499240539139
0.0049923626491
0.0049923025874
0.00499223474543
0.00499217254737
0.00499211909485
0.00499207623196
0.00499204257446
0.00499201575603
0.00499199367373
0.00499197569474
0.00499196289995
0.00499195580351
0.0049924583206
0.00499246641588
0.00499246711817
0.0049924693824
0.00499247565347
0.00499248332621
0.00499248732173
0.00499248449079
0.00499247366529
0.00499245104484
0.00499241367851
0.0049923682995
0.00499231951521
0.00499226996214
0.00499222317633
0.0049921813794
0.00499214499432
0.00499211365523
0.00499208782714
0.00499206847847
0.00499247159038
0.00499247213239
0.00499247240968
0.00499247255395
0.00499247270841
0.00499247285806
0.00499247296768
0.00499247300904
0.00499247296756
0.00499247073657
0.00499245809746
0.00499243451131
0.00499240416642
0.00499236797665
0.00499232793293
0.0049922875681
0.00499224937321
0.00499221390263
0.00499218313173
0.00499215726172
0.00499247999345
0.00499248009638
0.00499248012058
0.00499248011563
0.0049924801002
0.00499248007606
0.00499248004197
0.00499247999457
0.00499247993222
0.00499247984998
0.00499247341869
0.00499245809141
0.00499243654574
0.00499240948313
0.00499237828373
0.00499234471498
0.00499231030941
0.00499227726702
0.00499224658677
0.00499222127883
0.00499248792486
0.00499248800906
0.00499248802359
0.00499248798805
0.00499248793028
0.0049924878524
0.00499248775513
0.00499248764283
0.0049924875276
0.00499248724493
0.00499248261738
0.00499247144768
0.00499245436476
0.00499243202769
0.00499240604167
0.00499237771514
0.00499234796388
0.00499231763818
0.0049922910434
0.00499226654398
0.00499249622664
0.00499249628754
0.0049924962678
0.00499249619255
0.0049924960806
0.00499249592961
0.00499249574683
0.00499249554031
0.00499249532718
0.00499249437281
0.0049924901679
0.00499248073404
0.00499246570243
0.00499244541942
0.0049924229363
0.00499240023769
0.00499237426624
0.00499234984861
0.00499232589556
0.00499230497437
0.00499250535478
0.00499250538292
0.00499250531006
0.00499250515091
0.0049925049231
0.00499250461568
0.00499250422012
0.0049925039415
0.00499250334331
0.00499250095844
0.00499249521518
0.00499248497191
0.00499246992334
0.00499245216431
0.00499243724722
0.00499242147183
0.00499240300744
0.00499238277947
0.0049923640141
0.00499234514715
0.00499251646133
0.00499251647911