/*--------------------------------*- C++ -*----------------------------------*\
| =========                 |                                                 |
| \\      /  F ield         | OpenFOAM: The Open Source CFD Toolbox           |
|  \\    /   O peration     | Version:  2312                                  |
|   \\  /    A nd           | Website:  www.openfoam.com                      |
|    \\/     M anipulation  |                                                 |
\*---------------------------------------------------------------------------*/
FoamFile
{
    version     2.0;
    format      ascii;
    arch        "LSB;label=32;scalar=64";
    class       volScalarField;
    location    "0.005/water";
    object      alphat.gas;
}
// * * * * * * * * * * * * * * * * * * * * * * * * * * * * * * * * * * * * * //

dimensions      [1 -1 -1 0 0 0 0];

internalField   nonuniform List<scalar> 
6000
(
2.06072711611e-07
7.96585383328e-08
3.20747630888e-08
1.09974900236e-08
9.91575791977e-09
1.36008512072e-08
1.94714795599e-08
3.25000054228e-08
8.44767840585e-08
3.5434576887e-07
1.40062332262e-06
2.6625051874e-06
3.98755377655e-06
4.87845603336e-06
5.05000658698e-06
5.06774580503e-06
5.07245373359e-06
5.07691570733e-06
5.08173653283e-06
5.08686839955e-06
4.81947870632e-07
3.08840245477e-07
1.20856727895e-07
3.11669570924e-08
3.68610334883e-09
7.68926007375e-10
6.79993082572e-10
1.14005830029e-09
1.77598124702e-09
2.33939831135e-09
3.3628623931e-09
6.06151987295e-09
2.10918115743e-08
1.30396515281e-07
6.09856514654e-07
8.57106277161e-07
8.73320674998e-07
8.71919027848e-07
8.69949498986e-07
8.68066240666e-07
6.40490006905e-07
4.6653678896e-07
2.01736308264e-07
4.5758214709e-08
4.04368137603e-09
2.99538000688e-10
1.00554636118e-10
1.05753780886e-10
1.41293073177e-10
1.86102678456e-10
2.51805730495e-10
4.09090976576e-10
7.720334587e-10
1.71764544534e-09
8.09275864605e-09
5.94328721445e-08
1.47769454574e-07
1.59073954469e-07
1.59177429009e-07
1.58875773791e-07
7.27932199042e-07
5.53114049649e-07
2.51347251527e-07
4.90994543941e-08
4.01915629968e-09
1.99127347705e-10
4.64993306919e-11
3.98754736678e-11
4.67513521893e-11
6.23458910474e-11
8.86310929772e-11
1.26610257544e-10
1.73937434186e-10
2.62448171592e-10
5.2699640028e-10
2.08182864475e-09
1.65363403789e-08
5.12318792108e-08
5.62885788349e-08
5.64219789698e-08
7.82081699913e-07
6.05574476193e-07
2.78453707381e-07
4.81483594839e-08
3.67041451175e-09
1.53915436602e-10
3.03799337859e-11
2.40125610995e-11
2.59133141594e-11
3.12875354939e-11
4.15749258118e-11
5.92911072803e-11
8.70131617169e-11
1.27605448677e-10
1.96611534138e-10
3.77499095136e-10
1.35813204509e-09
1.09993370857e-08
3.59007525647e-08
3.93586859147e-08
8.09790947146e-07
6.2989576721e-07
2.9013164508e-07
4.72996941332e-08
3.24328240481e-09
1.20142027296e-10
2.22521633602e-11
1.73816754309e-11
1.80216851215e-11
2.08121213351e-11
2.60372929987e-11
3.44447920145e-11
4.75342312215e-11
6.74504266032e-11
1.00440648769e-10
1.67446941909e-10
3.60489070225e-10
1.28389839259e-09
1.01138939047e-08
3.34449649372e-08
8.24444237226e-07
6.42248358952e-07
2.95626010462e-07
4.70825132815e-08
2.93641776244e-09
9.23004862073e-11
1.70292050026e-11
1.35707391106e-11
1.37690060808e-11
1.52891221687e-11
1.83155574768e-11
2.32404871766e-11
3.10308531195e-11
4.341733435e-11
6.19924686066e-11
9.07262123778e-11
1.624638101e-10
3.84886760987e-10
1.46926907159e-09
1.19890268887e-08
8.31038097553e-07
6.4990353065e-07
3.00177780706e-07
4.73963620537e-08
2.70105207494e-09
6.85675204794e-11
1.35447861578e-11
1.09925330534e-11
1.0921783461e-11
1.17163677901e-11
1.34547030889e-11
1.64799754913e-11
2.15774163965e-11
3.02997546844e-11
4.27206802126e-11
5.94008394241e-11
9.81303776422e-11
2.11080501331e-10
5.3870019189e-10
2.32782892875e-09
8.36539454135e-07
6.54145465735e-07
3.01907997661e-07
4.74246712375e-08
2.69186471221e-09
7.02575731003e-11
1.34168937939e-11
1.05032919383e-11
1.00272764469e-11
1.03308682154e-11
1.13814978509e-11
1.34065445399e-11
1.70564785003e-11
2.30340734263e-11
3.13473962995e-11
4.61626716675e-11
7.81037738394e-11
1.45553804234e-10
3.19466789391e-10
1.01941487029e-09
8.41159343911e-07
6.5698262715e-07
3.02704029881e-07
4.74882077665e-08
2.82153234926e-09
8.16909675547e-11
1.43549645076e-11
1.06499787586e-11
9.94855694365e-12
9.98916146846e-12
1.07372209767e-11
1.23331570344e-11
1.5241609413e-11
1.95473102084e-11
2.61685028756e-11
4.12564632113e-11
6.70926032333e-11
1.12715397548e-10
2.32956886375e-10
6.96547062977e-10
8.44216949812e-07
6.58942949402e-07
3.03573146891e-07
4.78806935226e-08
2.93585017473e-09
8.67358008315e-11
1.41803583618e-11
1.04182043642e-11
9.77984486384e-12
9.76592803243e-12
1.03990747178e-11
1.18005319658e-11
1.4388630126e-11
1.81729305534e-11
2.44828289721e-11
3.93190850376e-11
5.98617079308e-11
9.60859970448e-11
1.93950858913e-10
5.74278556987e-10
8.46817745495e-07
6.61834082575e-07
3.0547275058e-07
4.85206752106e-08
2.94534531962e-09
8.1101427621e-11
1.34532087963e-11
1.00239288782e-11
9.37325951119e-12
9.27402828345e-12
9.84756311697e-12
1.11826656337e-11
1.35486733588e-11
1.70311582025e-11
2.32821834648e-11
3.78571108511e-11
5.5437793088e-11
8.67095571667e-11
1.71231913261e-10
4.98230459257e-10
8.48064911312e-07
6.65718339803e-07
3.0962890825e-07
4.98742804169e-08
2.87031897573e-09
6.71577691075e-11
1.20235219482e-11
9.20261376777e-12
8.53452543868e-12
8.40695244172e-12
8.94138723749e-12
1.02284177418e-11
1.24023367349e-11
1.55335206642e-11
2.14892765751e-11
3.52701443206e-11
5.0914856e-11
7.92938047425e-11
1.5488878672e-10
4.4104060333e-10
8.48945437575e-07
6.66963169122e-07
3.11462426586e-07
5.07414901031e-08
2.99646993479e-09
7.36580026091e-11
1.26790830014e-11
9.40015398628e-12
8.57954331896e-12
8.33434040536e-12
8.69693894413e-12
9.80105440786e-12
1.16799509079e-11
1.44737149566e-11
2.00831065164e-11
3.2854231413e-11
4.65173801685e-11
7.25403103996e-11
1.42060607744e-10
4.0365052046e-10
8.53782607133e-07
6.6967130277e-07
3.12081169875e-07
5.09333173017e-08
3.17651134592e-09
8.83272477076e-11
1.39925182071e-11
9.91103468403e-12
8.97271177374e-12
8.67630859849e-12
8.94591040662e-12
9.96521691535e-12
1.1702300071e-11
1.43989484353e-11
1.99145599758e-11
3.17250488926e-11
4.36090726959e-11
6.78211651314e-11
1.34821847813e-10
3.84531076861e-10
8.52031067205e-07
6.6990136259e-07
3.12775377368e-07
5.13557995952e-08
3.3103352372e-09
9.47523227668e-11
1.43602949988e-11
1.02642732057e-11
9.28114886973e-12
9.01991268461e-12
9.39582467639e-12
1.03709870263e-11
1.20723629016e-11
1.47619043456e-11
2.0306512958e-11
3.15592308336e-11
4.29307569764e-11
6.66188202998e-11
1.31419104907e-10
3.69813034531e-10
8.51151557669e-07
6.71424268287e-07
3.14625439838e-07
5.20442343835e-08
3.31775725396e-09
8.99970950338e-11
1.37421523015e-11
9.96285187747e-12
9.09860512114e-12
8.89714025375e-12
9.31144628865e-12
1.03618296704e-11
1.20992887635e-11
1.48640718364e-11
2.03875891296e-11
3.16305662545e-11
4.29286713496e-11
6.6107899924e-11
1.28359247711e-10
3.55384057822e-10
8.53582719832e-07
6.76325965745e-07
3.1885689121e-07
5.34732933492e-08
3.23626340354e-09
7.5142797523e-11
1.23248809679e-11
9.16294237522e-12
8.36984340102e-12
8.18473776992e-12
8.66997703522e-12
9.79154551404e-12
1.15693853474e-11
1.43098560544e-11
1.97370361021e-11
3.06949847149e-11
4.18026949344e-11
6.4603420495e-11
1.23498364884e-10
3.39359990177e-10
8.5296541037e-07
6.76474084721e-07
3.20599331831e-07
5.41308781417e-08
3.31281846575e-09
8.18357851569e-11
1.30793118354e-11
9.4121830353e-12
8.49430426562e-12
8.15963360695e-12
8.50187450127e-12
9.52739584688e-12
1.12230205724e-11
1.3834581848e-11
1.8902809008e-11
2.9360800603e-11
4.03427158431e-11
6.26107008403e-11
1.16788927681e-10
3.26633810352e-10
8.55143306487e-07
6.77020796961e-07
3.20955297421e-07
5.4217391892e-08
3.4945958366e-09
9.68092397309e-11
1.44390098644e-11
1.00048788898e-11
8.94079730154e-12
8.56092400831e-12
8.85765396146e-12
9.76590208371e-12
1.13645592335e-11
1.38839578649e-11
1.89034316627e-11
2.91462969473e-11
3.98267708049e-11
6.12686352401e-11
1.11786510235e-10
3.26379090058e-10
8.55127874549e-07
6.76579796522e-07
3.21545534524e-07
5.46484955134e-08
3.6280722706e-09
1.03309994947e-10
1.49115271696e-11
1.03791935054e-11
9.30375959823e-12
8.95955128066e-12
9.30837947648e-12
1.02569959085e-11
1.18418836793e-11
1.43151602432e-11
1.93431099809e-11
2.9679129268e-11
4.01856823091e-11
6.13461770349e-11
1.10275081684e-10
3.34544423462e-10
8.57793799986e-07
6.78634096679e-07
3.23260181694e-07
5.53856134491e-08
3.64118040632e-09
9.80737387666e-11
1.43303211537e-11
1.01513588612e-11
9.14843110484e-12
8.86616870651e-12
9.21412035572e-12
1.02438836264e-11
1.1969861194e-11
1.45762668892e-11
1.9708180778e-11
3.02414482071e-11
4.05983238683e-11
6.15598197527e-11
1.10648894861e-10
3.42826051063e-10
8.6147566647e-07
6.83530325172e-07
3.27501965438e-07
5.69971530916e-08
3.57313784895e-09
8.28743604009e-11
1.27463083618e-11
9.28044699985e-12
8.36134455896e-12
8.17836482261e-12
8.60474567175e-12
9.66329452096e-12
1.14314342904e-11
1.40978383525e-11
1.92780171094e-11
2.97594528495e-11
3.99015611426e-11
6.07242676934e-11
1.10075956296e-10
3.42952153384e-10
8.63234294477e-07
6.84853795613e-07
3.29491147991e-07
5.77249711877e-08
3.65950761067e-09
8.99445518274e-11
1.35231835e-11
9.51129431058e-12
8.46993721707e-12
8.13174088614e-12
8.46865070132e-12
9.40067086172e-12
1.10207748392e-11
1.35402374849e-11
1.85486311276e-11
2.87261568221e-11
3.87898211252e-11
5.91275708116e-11
1.08229850697e-10
3.39384553609e-10
8.65309503005e-07
6.85834019813e-07
3.29907833988e-07
5.77393257693e-08
3.84120004359e-09
1.05796453582e-10
1.49807587787e-11
1.01679227169e-11
8.95598386469e-12
8.56537031187e-12
8.8307093345e-12
9.67213316472e-12
1.11774158078e-11
1.36096865534e-11
1.84721190553e-11
2.83933288046e-11
3.84202288838e-11
5.81771818548e-11
1.06968060789e-10
3.41179047069e-10
8.65629800312e-07
6.85431532411e-07
3.30304312961e-07
5.80979788002e-08
3.99675218512e-09
1.15446113572e-10
1.556096854e-11
1.05393483659e-11
9.35510990045e-12
8.95904211531e-12
9.24521474258e-12
1.01349699894e-11
1.16763556374e-11
1.40655226335e-11
1.88534586474e-11
2.87728564525e-11
3.88495723696e-11
5.8317383994e-11
1.07208070144e-10
3.47755645507e-10
8.66604149593e-07
6.86915403753e-07
3.32006386233e-07
5.8939464512e-08
4.0347492586e-09
1.10287864596e-10
1.50562156051e-11
1.03878029975e-11
9.24954767084e-12
8.88536168391e-12
9.19395526772e-12
1.0196972081e-11
1.1893845314e-11
1.43924447452e-11
1.92221161857e-11
2.92932683806e-11
3.93252305576e-11
5.86207031084e-11
1.07863546607e-10
3.5388476107e-10
8.70655825795e-07
6.92532348723e-07
3.36457779467e-07
6.07536553866e-08
3.96754661413e-09
9.23427894433e-11
1.34577763728e-11
9.64410605577e-12
8.57588539648e-12
8.29622862224e-12
8.63390099258e-12
9.68706149687e-12
1.14812789738e-11
1.40451955695e-11
1.88912392787e-11
2.89067820326e-11
3.88632348695e-11
5.8006498572e-11
1.0722897728e-10
3.52797025341e-10
8.70526594469e-07
6.93146288479e-07
3.38580144939e-07
6.15985036196e-08
4.06443217616e-09
9.99791510823e-11
1.41878937859e-11
9.84037728185e-12
8.64484249968e-12
8.27700878139e-12
8.53339277423e-12
9.42873670769e-12
1.10860996452e-11
1.35739684234e-11
1.83403406141e-11
2.81857726039e-11
3.8075947959e-11
5.668728362e-11
1.05225511378e-10
3.47880818029e-10
8.73881610652e-07
6.94049273465e-07
3.39074061846e-07
6.16632090359e-08
4.26844810184e-09
1.18914826257e-10
1.57741785434e-11
1.05092260068e-11
9.16995641809e-12
8.71151452031e-12
8.87720504966e-12
9.67605863446e-12
1.12347119315e-11
1.36423030296e-11
1.83293847612e-11
2.79553381728e-11
3.77900024434e-11
5.57383281493e-11
1.03738498091e-10
3.4789943758e-10
8.72665320528e-07
6.9361424106e-07
3.39686854073e-07
6.20324261049e-08
4.42704538058e-09
1.29106357352e-10
1.6365665653e-11
1.08431486147e-11
9.55199093012e-12
9.08059352983e-12
9.31202816845e-12
1.01695927596e-11
1.16654930795e-11
1.40221384752e-11
1.86649918096e-11
2.83610859931e-11
3.82629974086e-11
5.58639963682e-11
1.03961080459e-10
3.53116171985e-10
8.72775606941e-07
6.95092483448e-07
3.41514657744e-07
6.29741984918e-08
4.47667015121e-09
1.23989635564e-10
1.57433945297e-11
1.06281722762e-11
9.40579887373e-12
8.95990495889e-12
9.27427934059e-12
1.03076260538e-11
1.19109729175e-11
1.43258100647e-11
1.90401747025e-11
2.88578117466e-11
3.88343430275e-11
5.63712074273e-11
1.04941827586e-10
3.59025298774e-10
8.75360108705e-07
6.99703776511e-07
3.45903827682e-07
6.50990866096e-08
4.43616070813e-09
1.0489980839e-10
1.40728879826e-11
9.87645587727e-12
8.75319744182e-12
8.42158587256e-12
8.76466416695e-12
9.81731440653e-12
1.15274160019e-11
1.40494928268e-11
1.87694291981e-11
2.85536482358e-11
3.84892625283e-11
5.60343234054e-11
1.05009110891e-10
3.59228515839e-10
8.75503800061e-07
7.0105795827e-07
3.48347695156e-07
6.60708116664e-08
4.53519678526e-09
1.11953232984e-10
1.48051439042e-11
1.00798881198e-11
8.8019821383e-12
8.34333390804e-12
8.58464214803e-12
9.52338462977e-12
1.12041059746e-11
1.36653927375e-11
1.82774256473e-11
2.78857092108e-11
3.77632124762e-11
5.49402520414e-11
1.03547626526e-10
3.55266824924e-10
8.78247454626e-07
7.01845792063e-07
3.48955156045e-07
6.60971851707e-08
4.74158430001e-09
1.31892734328e-10
1.63729226265e-11
1.07205397382e-11
9.32156976627e-12
8.76618753912e-12
8.88258982063e-12
9.69867201023e-12
1.12942906558e-11
1.37218536686e-11
1.82688719692e-11
2.76871875703e-11
3.75020050592e-11
5.40589424007e-11
1.02409790075e-10
3.54923706304e-10
8.78200446866e-07
7.01129132419e-07
3.49595907631e-07
6.65001320045e-08
4.93079374385e-09
1.45618797133e-10
1.69405576966e-11
1.09552803489e-11
9.62389408512e-12
9.1175102179e-12
9.31994889589e-12
1.01321881456e-11
1.169944401e-11
1.41099718662e-11
1.86627912551e-11
2.81436553164e-11
3.79883445969e-11
5.42523922058e-11
1.02625428451e-10
3.58766321786e-10
8.80558873998e-07
7.03274523068e-07
3.51565013448e-07
6.75648260034e-08
5.00964934337e-09
1.41913442829e-10
1.63458201111e-11
1.07220754445e-11
9.48803594742e-12
9.03981559598e-12
9.33395424089e-12
1.02489619942e-11
1.1850455374e-11
1.43284934096e-11
1.90334204878e-11
2.86887845178e-11
3.8652805423e-11
5.48926234393e-11
1.03591164793e-10
3.640018429e-10
8.84427035104e-07
7.08648598567e-07
3.56102460492e-07
6.99026045198e-08
4.98121207812e-09
1.19986829241e-10
1.46198321796e-11
9.98218916221e-12
8.85803577967e-12
8.48584155433e-12
8.81794850619e-12
9.82878326955e-12
1.15029716639e-11
1.40387978058e-11
1.87329547478e-11
2.83576326541e-11
3.8337900007e-11
5.46643751838e-11
1.03712303234e-10
3.64239249623e-10
8.86770978546e-07
7.10203730166e-07
3.58672742341e-07
7.1140037796e-08
5.09657749829e-09
1.27136863799e-10
1.54345563581e-11
1.02513352463e-11
8.93885566626e-12
8.44036831457e-12
8.64645687926e-12
9.60549036135e-12
1.12402872202e-11
1.36737883567e-11
1.82110303326e-11
2.7628101371e-11
3.755086851e-11
5.3448461107e-11
1.02283459514e-10
3.59835857351e-10
8.89321641586e-07
7.1151323358e-07
3.59810558219e-07
7.1291097342e-08
5.32363675846e-09
1.50829331823e-10
1.71382345327e-11
1.08497430456e-11
9.44700322726e-12
8.83965195606e-12
8.89007219595e-12
9.73181891331e-12
1.14040282359e-11
1.3794732212e-11
1.82156828163e-11
2.74382892905e-11
3.72491915913e-11
5.25772556359e-11
1.00930429276e-10
3.58398535646e-10
8.88792214119e-07
7.11372675347e-07
3.60677623477e-07
7.16310639393e-08
5.51176610901e-09
1.65017373056e-10
1.76943792828e-11
1.11921602764e-11
9.76779207422e-12
9.18788449365e-12
9.36531995907e-12
1.02389737464e-11
1.18337427515e-11
1.42272060251e-11
1.86787550452e-11
2.79495462389e-11
3.77664361133e-11
5.28407578907e-11
1.00935144132e-10
3.61435777347e-10
8.89377143296e-07
7.12868727879e-07
3.6259150767e-07
7.28035181401e-08
5.59772722509e-09
1.59310026414e-10
1.70716530283e-11
1.09944622319e-11
9.65493853993e-12
9.16145963611e-12
9.39843633838e-12
1.03599131932e-11
1.19856838835e-11
1.44794085723e-11
1.91214516475e-11
2.86431852802e-11
3.86230065007e-11
5.36539054323e-11
1.01912701715e-10
3.66460459501e-10
8.9124225404e-07
7.18245898051e-07
3.67537379276e-07
7.55681462534e-08
5.59055651217e-09
1.36018204372e-10
1.51477874046e-11
1.01269985732e-11
8.95132840557e-12
8.56923145485e-12
8.88442850593e-12
9.88916266743e-12
1.16011831956e-11
1.41773977611e-11
1.88865174312e-11
2.84868435535e-11
3.85565175878e-11
5.37023534032e-11
1.02247147438e-10
3.66967048901e-10
8.91793134471e-07
7.19500874247e-07
3.70162121211e-07
7.69031415218e-08
5.71800053959e-09
1.44786900353e-10
1.60115194397e-11
1.03487434561e-11
9.04269180816e-12
8.51365903952e-12
8.73457484148e-12
9.61658978934e-12
1.12892167156e-11
1.37602645876e-11
1.83387915874e-11
2.77401572545e-11
3.78095854805e-11
5.26654827692e-11
1.00944739829e-10
3.62588092193e-10
8.94928946202e-07
7.20149776115e-07
3.70961583771e-07
7.69816593623e-08
5.95933889596e-09
1.69471601629e-10
1.78874574845e-11
1.10427537789e-11
9.54911471697e-12
8.88296231132e-12
9.01657178922e-12
9.81600939883e-12
1.13928297824e-11
1.38610256396e-11
1.82955823579e-11
2.74094949495e-11
3.74226377849e-11
5.18118043132e-11
9.94963790459e-11
3.60121402594e-10
8.94533931257e-07
7.20238652646e-07
3.72187459051e-07
7.73707294989e-08
6.18446324192e-09
1.85346324298e-10
1.8796623939e-11
1.15745909351e-11
9.99238762962e-12
9.34267268101e-12
9.50402106557e-12
1.03207525376e-11
1.18792684897e-11
1.42641065396e-11
1.86587846685e-11
2.77980055585e-11
3.78605368094e-11
5.20240456905e-11
9.93578422936e-11
3.62080302633e-10
8.96479639748e-07
7.21963165571e-07
3.74169554484e-07
7.86389542137e-08
6.30275621151e-09
1.80549920632e-10
1.80087101712e-11
1.13304096677e-11
9.87753726029e-12
9.33855057501e-12
9.56517755536e-12
1.04836550784e-11
1.21445670954e-11
1.46011130737e-11
1.90477157456e-11
2.84501485142e-11
3.86961350621e-11
5.28753695424e-11
1.00364171426e-10
3.66766838895e-10
9.0019066086e-07
7.27369824281e-07
3.78838313971e-07
8.17164327247e-08
6.33116769424e-09
1.56292507263e-10
1.58575115197e-11
1.036125176e-11
9.09594514855e-12
8.72047166852e-12
9.02131872585e-12
1.00554688056e-11
1.1817449271e-11
1.43580070071e-11
1.88665634198e-11
2.83814010298e-11
3.87532381709e-11
5.31006204063e-11
1.00959804284e-10
3.68047577597e-10
8.99928783322e-07
7.29265291497e-07
3.82319486103e-07
8.35222382373e-08
6.48403197254e-09
1.64500028496e-10
1.68358494005e-11
1.06369648235e-11
9.18213574176e-12
8.65205578362e-12
8.83284472155e-12
9.72068550453e-12
1.14130313033e-11
1.39325361754e-11
1.84437534832e-11
2.78247270221e-11
3.81608033262e-11
5.2229819575e-11
9.99455564024e-11
3.6427763672e-10
9.02214848756e-07
7.29840536569e-07
3.83690005791e-07
8.37793711495e-08
6.74413031741e-09
1.91098346169e-10
1.87713537915e-11
1.14189189246e-11
9.75330519128e-12
9.09498315878e-12
9.14720219176e-12
9.90257896464e-12
1.14936272362e-11
1.39515105041e-11
1.83932189471e-11
2.75240798447e-11
3.78116422544e-11
5.14400858291e-11
9.85047392173e-11
3.60886895788e-10
9.03854149733e-07
7.30612225301e-07
3.85141484814e-07
8.4169249028e-08
6.97752009878e-09
2.08475995184e-10
1.94423552086e-11
1.17379456266e-11
1.01676288957e-11
9.51238922284e-12
9.6131177654e-12
1.03732664e-11
1.19159337713e-11
1.4311877605e-11
1.87013226972e-11
2.78733830004e-11
3.82216717015e-11
5.16317066884e-11
9.8200704959e-11
3.61387225491e-10
9.07455491212e-07
7.33045591344e-07
3.87418766331e-07
8.56110253564e-08
7.10799317781e-09
2.03525126447e-10
1.87318536816e-11
1.14606706869e-11
9.99330463314e-12
9.43538394928e-12
9.65798865968e-12
1.05770761302e-11
1.2201259881e-11
1.46507050366e-11
1.90498206723e-11
2.84378606388e-11
3.90194144911e-11
5.2479349232e-11
9.9099772803e-11
3.6480837589e-10
9.11415685975e-07
7.3877354928e-07
3.92363210567e-07
8.91071801662e-08
7.15401746018e-09
1.76299606097e-10
1.66239790718e-11
1.06425213289e-11
9.31572351727e-12
8.88060615452e-12
9.17009660108e-12
1.01748672607e-11
1.19023340097e-11
1.44381229736e-11
1.88714876605e-11
2.83372473216e-11
3.90896131624e-11
5.28371938486e-11
9.98143942633e-11
3.66042844809e-10
9.12678687838e-07
7.41216492365e-07
3.95728428334e-07
9.11077072689e-08
7.33105847658e-09
1.85442579546e-10
1.74712035481e-11
1.0864067702e-11
9.35483127412e-12
8.79278966443e-12
9.00247881681e-12
9.87686153361e-12
1.1555703289e-11
1.40677139293e-11
1.8476083814e-11
2.77634431292e-11
3.85159363216e-11
5.21131377063e-11
9.90290990159e-11
3.6276349817e-10
9.14471978355e-07
7.4201029068e-07
3.97113297122e-07
9.12990783815e-08
7.60598735147e-09
2.14578596092e-10
1.93763521591e-11
1.1602621963e-11
9.93032555606e-12
9.24057689521e-12
9.25923358239e-12
9.99932555252e-12
1.16387671396e-11
1.41467141448e-11
1.84608866816e-11
2.74905624428e-11
3.81675317003e-11
5.13694267569e-11
9.77085168317e-11
3.59046882324e-10
9.13057878254e-07
7.41864800737e-07
3.9863565787e-07
9.1685259701e-08
7.87767409901e-09
2.36668443611e-10
2.02023624946e-11
1.18016500397e-11
1.02573532695e-11
9.56593321896e-12
9.63442281324e-12
1.04142412729e-11
1.2080685316e-11
1.45866143388e-11
1.88981551279e-11
2.79480360487e-11
3.86469273473e-11
5.15930673601e-11
9.73700305147e-11
3.58484570487e-10
9.14890960007e-07
7.44251321483e-07
4.01191456714e-07
9.33469890452e-08
8.06000480451e-09
2.33155422553e-10
1.93258243164e-11
1.14963994343e-11
1.00869579894e-11
9.49345430642e-12
9.69217578109e-12
1.05603488228e-11
1.22713279774e-11
1.48465111262e-11
1.93476717268e-11
2.86233993026e-11
3.95680626769e-11
5.25403604302e-11
9.81584586616e-11
3.60678986511e-10
9.16780541361e-07
7.49656184874e-07
4.06378482211e-07
9.72625289305e-08
8.14923215314e-09
2.03695548348e-10
1.71349859448e-11
1.06918133727e-11
9.39358124247e-12
8.93895754589e-12
9.20133242853e-12
1.02001882819e-11
1.19349694072e-11
1.45870608064e-11
1.91914817132e-11
2.8553568591e-11
3.97804433949e-11
5.30779401977e-11
9.88348409249e-11
3.61349504786e-10
9.1684120394e-07
7.50704331627e-07
4.09861897207e-07
9.97891741172e-08
8.36817481126e-09
2.13520251713e-10
1.80774170075e-11
1.08897969979e-11
9.43822406921e-12
8.88891674555e-12
9.02895938223e-12
9.90498355017e-12
1.1606046728e-11
1.42370393017e-11
1.87436792496e-11
2.79578919593e-11
3.92407626861e-11
5.24717819296e-11
9.80998391099e-11
3.57899429417e-10
9.19452451406e-07
7.51577747157e-07
4.11562056489e-07
1.00231586542e-07
8.69676914691e-09
2.48664883557e-10
2.02446407573e-11
1.15185272924e-11
9.90378598763e-12
9.2309872944e-12
9.26705345404e-12
1.0043922263e-11
1.16991530525e-11
1.42755628397e-11
1.86493625301e-11
2.76763301932e-11
3.88265852784e-11
5.17035875754e-11
9.67174519475e-11
3.53553235942e-10
9.19009789827e-07
7.51635984456e-07
4.13323303169e-07
1.00645733881e-07
9.01417347103e-09
2.75159838166e-10
2.12597158701e-11
1.19832386046e-11
1.03469633923e-11
9.68408459457e-12
9.79990359905e-12
1.05775841718e-11
1.21499823961e-11
1.46831736984e-11
1.90340481495e-11
2.80344790838e-11
3.92086675886e-11
5.18533455605e-11
9.62564521438e-11
3.52307490576e-10
9.21174782284e-07
7.53336230602e-07
4.15664187346e-07
1.02467622802e-07
9.25097085734e-09
2.74525111858e-10
2.06550954929e-11
1.18210343185e-11
1.02601980204e-11
9.69708868557e-12
9.90303751707e-12
1.07946418339e-11
1.24634396607e-11
1.50037230209e-11
1.94675639004e-11
2.86885019215e-11
4.01227292748e-11
5.27953821318e-11
9.688573205e-11
3.54031495581e-10
9.25011628154e-07
7.59359767984e-07
4.20807771286e-07
1.06902989345e-07
9.38849258457e-09
2.41171168903e-10
1.79657099214e-11
1.08198447399e-11
9.50103789922e-12
9.09378994123e-12
9.38905376213e-12
1.04011463327e-11
1.21781223799e-11
1.48034030153e-11
1.93479522423e-11
2.87036087753e-11
4.0434176276e-11
5.34168403088e-11
9.75124995577e-11
3.552349172e-10
9.24794722484e-07
7.60911927713e-07
4.24713475826e-07
1.09881929464e-07
9.65748576832e-09
2.50308742584e-10
1.85923117707e-11
1.09148751437e-11
9.5141839576e-12
8.95897711882e-12
9.16075951702e-12
1.00447926256e-11
1.17949167848e-11
1.44718449447e-11
1.89895044649e-11
2.82100154343e-11
4.00216210756e-11
5.30121972875e-11
9.68810725262e-11
3.52485063805e-10
9.26913416241e-07
7.6151192708e-07
4.2676884135e-07
1.10462707822e-07
1.0024376497e-08
2.9057853183e-10
2.11723313466e-11
1.17838347411e-11
1.00839529639e-11
9.41695109724e-12
9.4309081851e-12
1.02028156633e-11
1.18479747299e-11
1.4478337709e-11
1.89377617365e-11
2.79343545453e-11
3.96257852856e-11
5.22922357535e-11
9.54873725918e-11
3.47782298925e-10
9.29838376818e-07
7.62470070916e-07
4.28642634606e-07
1.10837782487e-07
1.03815960692e-08
3.19814226412e-10
2.24236804365e-11
1.22633171485e-11
1.05703362058e-11
9.91540359476e-12
9.97906649816e-12
1.06866467087e-11
1.22553076813e-11
1.47832003022e-11
1.9226200845e-11
2.82401774993e-11
3.99937380465e-11
5.24126742389e-11
9.48772757814e-11
3.45622079218e-10
9.32354871143e-07
7.64976319984e-07
4.31379316172e-07
1.12900855108e-07
1.06631653183e-08
3.17264174826e-10
2.14936853002e-11
1.18993464221e-11
1.03710254745e-11
9.832549804e-12
1.00175971254e-11
1.0896686034e-11
1.25524170171e-11
1.51381531513e-11
1.96283900781e-11
2.8865954278e-11
4.09399014828e-11
5.33589672256e-11
9.53617213214e-11
3.46425190983e-10
9.34761339059e-07
7.70683118816e-07
4.36864580981e-07
1.17880939661e-07
1.08438444473e-08
2.82522401387e-10
1.91151041144e-11
1.11223145926e-11
9.7019619932e-12
9.27900605992e-12
9.54356177548e-12
1.05248005212e-11
1.2251930924e-11
1.49703992005e-11
1.9481238224e-11
2.8894857324e-11
4.13418169202e-11
5.41285303789e-11
9.60505929375e-11
3.4795486817e-10
9.3554769912e-07
7.72787311428e-07
4.40775040672e-07
1.21338510899e-07
1.11516862587e-08
2.93732722486e-10
1.98867186816e-11
1.12492389437e-11
9.6594726226e-12
9.12992527525e-12
9.35104677638e-12
1.02217347138e-11
1.19120611983e-11
1.46160063699e-11
1.91224181619e-11
2.84396065566e-11
4.10182512855e-11
5.39640080513e-11
9.57008030416e-11
3.46052714988e-10
9.38706079766e-07
7.73956301497e-07
4.42826244175e-07
1.22062552057e-07
1.15584374184e-08
3.36231437714e-10
2.23247458919e-11
1.19748228049e-11
1.01967098271e-11
9.53933448968e-12
9.57408147107e-12
1.0354767984e-11
1.19859488199e-11
1.46506086578e-11
1.9062401927e-11
2.81499306435e-11
4.06509652672e-11
5.33520725806e-11
9.44319757548e-11
3.41578565706e-10
9.38990136011e-07
7.74879129022e-07
4.45183043927e-07
1.22510820056e-07
1.19840420521e-08
3.74522660183e-10
2.36151540649e-11
1.22585368081e-11
1.05568799781e-11
9.91957836362e-12
9.92760360195e-12
1.07500180303e-11
1.24399067002e-11
1.51321095071e-11
1.94810103988e-11
2.84787508091e-11
4.10320128292e-11
5.34796615819e-11
9.37876794871e-11
3.38735865714e-10
9.40809731787e-07
7.77044996416e-07
4.48074897427e-07
1.24843274471e-07
1.23462933905e-08
3.76947954899e-10
2.27198057684e-11
1.19702409539e-11
1.04092287315e-11
9.85144166105e-12
9.98313633029e-12
1.08902930321e-11
1.26739457895e-11
1.54851862294e-11
1.99833792655e-11
2.91601871094e-11
4.19968606753e-11
5.44928934056e-11
9.42705113917e-11
3.38508109003e-10
9.44896470409e-07
7.83398209029e-07
4.53722153909e-07
1.30469686993e-07
1.26252349623e-08
3.35400073791e-10
1.95843134494e-11
1.10302025593e-11
9.68059826031e-12
9.27068924184e-12
9.53021257841e-12
1.04908293644e-11
1.23767376987e-11
1.52597082774e-11
1.98754284559e-11
2.91776559037e-11
4.2442702346e-11
5.54053830214e-11
9.50425298792e-11
3.39356226437e-10
9.44350190398e-07
7.85560880623e-07
4.5857383867e-07
1.34796020823e-07
1.30344715896e-08
3.47037876791e-10
2.0489577635e-11
1.11478304192e-11
9.65496630133e-12
9.1618865366e-12
9.31692065412e-12
1.02330576968e-11
1.19866740387e-11
1.48965086157e-11
1.94925519376e-11
2.86817074549e-11
4.21159411187e-11
5.53226668523e-11
9.4775443367e-11
3.37119837987e-10
9.44914190847e-07
7.86416171226e-07
4.61857257943e-07
1.36033984738e-07
1.34958404143e-08
3.98388892026e-10
2.3382587325e-11
1.18585203548e-11
1.01575625623e-11
9.49984953213e-12
9.57868822064e-12
1.03662454763e-11
1.20849129453e-11
1.488076421e-11
1.93933716879e-11
2.83982060746e-11
4.16985673306e-11
5.46999707113e-11
9.34430789025e-11
3.32102689623e-10
9.46518262821e-07
7.86767957027e-07
4.64416351303e-07
1.36624644443e-07
1.39588497056e-08
4.39647220092e-10
2.45482649274e-11
1.22749605752e-11
1.05627229934e-11
9.99608350356e-12
1.01271763239e-11
1.08750846987e-11
1.250763189e-11
1.52350423835e-11
1.97131130502e-11
2.86878497562e-11
4.19850060826e-11
5.47515575769e-11
9.26921474643e-11
3.28349827723e-10
9.4920936892e-07
7.89611772932e-07
4.67812446286e-07
1.39346592903e-07
1.439746715e-08
4.43530394272e-10
2.37790668283e-11
1.20608046159e-11
1.04736082843e-11
9.9952811527e-12
1.02329615522e-11
1.11438102923e-11
1.2888241916e-11
1.56295011486e-11
2.0149124234e-11
2.93181026759e-11
4.28990218775e-11
5.56865874914e-11
9.308956933e-11
3.27015718507e-10
9.52751946826e-07
7.95994589336e-07
4.73991115989e-07
1.45625621814e-07
1.47506983702e-08
4.05240132207e-10
2.08909718557e-11
1.11520333173e-11
9.7198763417e-12
9.36745544976e-12
9.7216990283e-12
1.07924355832e-11
1.26678012163e-11
1.54833529172e-11
2.00584399082e-11
2.94158788598e-11
4.33762842154e-11
5.65835589824e-11
9.38957352931e-11
3.27307531445e-10
9.55037306044e-07
7.98228123362e-07
4.7838928738e-07
1.50499493549e-07
1.52151234177e-08
4.14977955231e-10
2.12317896428e-11
1.11211294036e-11
9.62818252457e-12
9.20048334537e-12
9.49189676245e-12
1.04638958048e-11
1.22766826122e-11
1.51692399753e-11
1.97792762357e-11
2.90382061043e-11
4.31324611161e-11
5.65957713627e-11
9.38714100424e-11
3.25354901493e-10
9.58916334736e-07
7.99920369607e-07
4.80981966351e-07
1.51851069327e-07
1.57574905131e-08
4.71504015475e-10
2.46668017183e-11
1.20832679316e-11
1.02721010225e-11
9.64377399762e-12
9.74844236354e-12
1.05521864873e-11
1.23051518395e-11
1.51555906642e-11
1.97182594681e-11
2.87727080533e-11
4.27830480859e-11
5.612828067e-11
9.27460325074e-11
3.20543212296e-10
9.60199735012e-07
8.01661184816e-07
4.84016185296e-07
1.52497526542e-07
1.63485407858e-08
5.24875421262e-10
2.65414482088e-11
1.25534006894e-11
1.06661522652e-11
1.00998608467e-11
1.02113881475e-11
1.09579315438e-11
1.27043863283e-11
1.5528387819e-11
2.00331483786e-11
2.90287367194e-11
4.30692623812e-11
5.62036480442e-11
9.19591292343e-11
3.16381450678e-10
9.61940473902e-07
8.04174927081e-07
4.87432737791e-07
1.55505351357e-07
1.69262537844e-08