/*--------------------------------*- C++ -*----------------------------------*\
| =========                 |                                                 |
| \\      /  F ield         | OpenFOAM: The Open Source CFD Toolbox           |
|  \\    /   O peration     | Version:  2312                                  |
|   \\  /    A nd           | Website:  www.openfoam.com                      |
|    \\/     M anipulation  |                                                 |
\*---------------------------------------------------------------------------*/
FoamFile
{
    version     2.0;
    format      ascii;
    arch        "LSB;label=32;scalar=64";
    class       volScalarField;
    location    "0.76/water";
    object      d.gas;
}
// * * * * * * * * * * * * * * * * * * * * * * * * * * * * * * * * * * * * * //

dimensions      [0 1 0 0 0 0 0];

internalField   nonuniform List<scalar> 
1496
(
0.00499638856737
0.00499641496003
0.00499639108705
0.00499638569756
0.00499639105976
0.00499639763969
0.00499640296784
0.00499640614265
0.00499641104019
0.00499642947581
0.00499647272445
0.00499652356903
0.00499655927967
0.00499659390742
0.00499663124028
0.00499667104656
0.00499671754539
0.00499674949594
0.00499676340227
0.00499677066893
0.00499644365236
0.00499646128614
0.00499644999426
0.00499647050847
0.00499649547772
0.00499651503647
0.00499653177351
0.00499654916072
0.00499657530385
0.00499661359842
0.00499665490184
0.00499669078687
0.00499672640595
0.00499676252199
0.00499679729595
0.00499683039584
0.00499685512665
0.00499687561237
0.00499689073249
0.00499689975683
0.00499677033234
0.00499679320642
0.0049967525813
0.00499676586776
0.00499679029312
0.00499680865689
0.0049968228496
0.00499683891796
0.00499685867067
0.00499688178644
0.0049969099116
0.00499693952482
0.00499696305582
0.00499697881231
0.00499698894768
0.00499699591888
0.00499700524038
0.00499701687531
0.00499702679744
0.00499703488509
0.004997262935
0.00499728058789
0.00499723219682
0.00499722107756
0.0049972200667
0.00499721824506
0.00499721532149
0.00499721473964
0.00499722009156
0.00499723112978
0.00499723900151
0.00499723504575
0.00499722106551
0.00499720229747
0.00499718435678
0.00499717226781
0.00499716634499
0.00499716498598
0.00499716703803
0.00499717118977
0.00499742917062
0.00499743942263
0.00499743751494
0.0049974401174
0.00499745177849
0.00499746906928
0.00499748487602
0.00499749428094
0.00499749360099
0.00499748032082
0.00499745622717
0.00499742693296
0.00499739672201
0.00499736810456
0.00499734314139
0.00499732368953
0.00499730984273
0.00499730232014
0.00499730034811
0.00499730212649
0.00499743862216
0.00499743944669
0.00499744003871
0.00499744065343
0.00499744508607
0.00499745670129
0.00499747027957
0.00499747884088
0.00499747994927
0.00499747484193
0.00499746557661
0.00499745384369
0.00499744096796
0.00499742787104
0.00499741540933
0.00499740583076
0.00499740062464
0.0049973998769
0.00499740446339
0.00499740941659
0.0049974496984
0.00499744996785
0.00499745017126
0.00499745043977
0.0049974507718
0.00499745110957
0.00499745142651
0.00499745189815
0.00499745241414
0.00499745161373
0.00499744925175
0.00499744602024
0.00499744263477
0.00499743947485
0.0049974371621
0.00499743824641
0.0049974445229
0.00499745529275
0.00499747137771
0.00499748222334
0.00499745817067
0.00499745837361
0.00499745852136
0.00499745866859
0.00499745879709
0.00499745889602
0.00499745897592
0.00499745904713
0.00499745894275
0.00499745809714
0.0049974564333
0.0049974542978
0.00499745211432
0.00499745014494
0.00499744929674
0.00499745387504
0.00499746869137
0.00499749025833
0.00499751913275
0.00499752543043
0.00499746641543
0.00499746673717
0.00499746702359
0.00499746720996
0.00499746731438
0.00499746733083
0.00499746725695
0.00499746726632
0.00499746729115
0.0049974666657
0.00499746488512
0.00499746192994
0.00499745799409
0.00499745368864
0.00499745288863
0.00499746565333
0.0049974904431
0.00499752329383
0.00499755111074
0.00499754478469
0.00499747222459
0.00499747867902
0.00499747759906
0.00499747769015
0.00499747768115
0.00499747755827
0.00499747750882
0.00499747732185
0.00499747613976
0.00499747359413
0.00499746952202
0.00499746383572
0.00499745714574
0.0049974535341
0.00499746471598
0.00499749062976
0.00499752216962
0.00499756219253
0.00499756332237
0.00499755655465
0.00499747968994
0.00499750720287
0.00499749332377
0.00499749082977
0.00499749076312
0.00499749070075
0.00499749090324
0.00499748981989
0.00499748693021
0.00499748239841
0.00499747633454
0.00499747027545
0.00499747030166
0.00499748560124
0.0049975118754
0.00499753803738
0.00499757400329
0.00499758545418
0.00499757219943
0.00499757435451
0.00499749729617
0.00499754569722
0.00499752388625
0.00499751828695
0.00499751759292
0.00499751827072
0.00499751906855
0.00499751786374
0.00499751521086
0.00499751232404
0.0049975126085
0.00499752336799
0.00499754571817
0.00499756741296
0.00499758376295
0.00499761015843
0.00499762845306
0.00499760817013
0.00499759985097
0.00499760454381
0.00499754175392
0.00499760776023
0.00499758801482
0.00499758472748
0.00499758603887
0.00499758738796
0.0049975894707
0.00499759237738
0.00499759808844
0.00499761120741
0.00499763402073
0.00499765892517
0.00499767131265
0.00499767753372
0.00499769513854
0.00499771511984
0.00499768869073
0.00499766503197
0.00499765891554
0.00499767030135
0.00499773249548
0.00499782493927
0.00499780108576
0.0049977946594
0.00499779202441
0.00499778707589
0.00499778712467
0.00499779442002
0.00499780973289
0.00499782925902
0.00499784607757
0.00499784761184
0.00499784273093
0.00499784866221
0.00499785880753
0.00499783057182
0.004997790304
0.00499777036681
0.00499776759515
0.00499779317287
0.00499820164855
0.00499829526071
0.00499826808172
0.00499825394309
0.00499823767326
0.00499821571864
0.00499819744433
0.00499818387125
0.00499817252011
0.0049981608485
0.00499814547444
0.00499812781237
0.00499812010363
0.00499811340192
0.00499807917243
0.00499802112515
0.00499798021871
0.00499795609782
0.00499795947612
0.00499798481245
0.0049989351036
0.00499898486002
0.0049989363169
0.00499890865639
0.00499887487985
0.00499883644189
0.00499879561492
0.00499875353192
0.00499871309498
0.00499867639085
0.00499864157558
0.00499861241905
0.00499857575179
0.00499851579776
0.00499844037906
0.00499837183959
0.00499831312085
0.00499826624893
0.00499824159381
0.00499823077889
0.00499934829759
0.0049993494813
0.00499934987868
0.00499934860415
0.0049993380169
0.00499932360452
0.00499930804843
0.00499929023354
0.0049992711424
0.00499924726126
0.00499921434154
0.00499916812801
0.00499910354629
0.00499902199966
0.00499893171566
0.00499884581103
0.00499875859349
0.00499865356865
0.00499856145026
0.0049985017376
0.0049993699656
0.00499937010741
0.00499937010536
0.00499937018547
0.00499937036407
0.00499937065066
0.00499937267229
0.0049993748101
0.00499937537379
0.00499937220406
0.00499936409239
0.0049993526136
0.00499934147506
0.00499932372575
0.00499928416345
0.00499922526434
0.0049991381241
0.0049989940224
0.00499884139497
0.00499874706419
0.00499938062189
0.00499938065682
0.00499938064012
0.00499938060513
0.00499938059048
0.00499938057737
0.00499938054736
0.00499938047149
0.00499938029283
0.00499937998527
0.00499937954226
0.00499937898952
0.00499937840706
0.00499937780363
0.00499937107867
0.00499935788345
0.00499932400677
0.00499922544979
0.00499905323714
0.00499892540647
0.00499938951514
0.0049993895004
0.00499938946919
0.00499938941004
0.00499938933551
0.00499938923051
0.00499938907721
0.00499938886737
0.00499938859798
0.00499938827205
0.00499938789333
0.00499938747104
0.00499938701604
0.00499938651452
0.00499938353097
0.00499937714451
0.00499936235319
0.00499932260255
0.00499920878965
0.00499905152881
0.00499939904009
0.00499939902747
0.00499939900164
0.0049993989423
0.0049993988497
0.00499939871014
0.00499939851022
0.00499939823799
0.0049993978806
0.00499939743523
0.00499939691487
0.00499939632148
0.00499939566758
0.00499939494227
0.00499939259739
0.00499938451311
0.00499936121591
0.00499931845106
0.0049992495657
0.00499911515469
0.00499940948004
0.00499940945696
0.00499940941797
0.00499940935319
0.0049994092528
0.00499940909364
0.00499940885505
0.00499940851517
0.00499940804951
0.00499940743183
0.00499940662999
0.00499940565423
0.00499940500854
0.00499940344667
0.00499940065444
0.00499938899573
0.00499935828775
0.00499930061174
0.00499922324981
0.00499912216848
0.0049994206754
0.00499942065639
0.00499942063425
0.00499942060443
0.00499942055442
0.00499942045321
0.00499942027447
0.00499941998656
0.00499941954479
0.00499941890608
0.00499941843945
0.00499941873135
0.00499942034872
0.00499941818225
0.00499941211326
0.00499939563399
0.00499936182661
0.00499931337333
0.00499925096836
0.00499922925555
0.00499943279928
0.0049994327733
0.00499943276273
0.00499943278413
0.00499943282376
0.00499943285845
0.00499943287623
0.00499943286705
0.00499943281629
0.00499943306279
0.00499943545144
0.00499943884669
0.00499944085193
0.00499944196358
0.00499943947498
0.00499943176901
0.00499943126852
0.00499944031569
0.0049995012496
0.00499960528851
0.00499944538115
0.0049994453519
0.00499944535669
0.00499944541451
0.00499944550696
0.00499944561471
0.00499944573501
0.00499944586796
0.00499944586447
0.00499944754413
0.00499945314249
0.00499946047767
0.00499946750549
0.00499947314037
0.00499948106191
0.00499951083384
0.00499957227507
0.00499968293036
0.00499976872375
0.0049997600246
0.00499945836615
0.00499945831533
0.00499945831206
0.00499945836198
0.00499945842525
0.00499945846886
0.00499945846904
0.00499945849941
0.00499945952871
0.00499946477557
0.00499947299576
0.00499948264656
0.0049994925832
0.00499950745949
0.0049995505566
0.00499963120629
0.00499975608526
0.00499979945621
0.00499976876048
0.00499976870621
0.00499947200038
0.00499947195895
0.0049994720142
0.00499947214508
0.00499947229947
0.00499947244479
0.00499947252199
0.004999473024
0.00499947623822
0.00499948293621
0.00499949282348
0.00499950451688
0.00499952283559
0.00499956945064
0.00499965463328
0.00499978688189
0.00499981258249
0.00499977600572
0.00499977590455
0.00499977605672
0.00499948626126
0.00499948627809
0.0049994864269
0.00499948665657
0.00499948692559
0.00499948708134
0.00499948698193
0.00499948879527
0.00499949407993
0.00499950312278
0.00499951567755
0.00499953620787
0.00499958590491
0.00499966653334
0.00499979792029
0.00499982702088
0.00499978276876
0.00499978265992
0.0049997827981
0.00499978302426
0.00499950037947
0.00499950063152
0.00499950091148
0.00499950120224
0.00499950151818
0.00499950130815
0.00499950239094
0.00499950671931
0.00499951466065
0.00499952694469
0.00499954785103
0.0049995985605
0.00499967038957
0.00499978587809
0.00499984517738
0.00499978929626
0.00499978918967
0.00499978930851
0.00499978947199
0.00499978956598
0.00499951555653
0.00499951579198
0.00499951604273
0.00499951630116
0.0049995160917
0.00499951630515
0.00499951910773
0.00499952551833
0.00499953601792
0.00499955357726
0.00499959314741
0.00499966952781
0.00499976841395
0.00499986230859
0.00499979563328
0.00499979555922
0.0049997957071
0.00499979590669
0.00499979603573
0.00499979599408
0.00499953587246
0.0049995409896
0.00499953640983
0.0049995332745
0.00499953190536
0.0049995326343
0.0049995363443
0.0049995441947
0.00499955771376
0.00499958485078
0.00499964474132
0.00499973093052
0.0049998614341
0.00499980838454
0.00499980152174
0.00499980182848
0.0049998021602
0.0049998024092
0.00499980251627
0.00499980250808
0.00499955101596
0.00499956992246
0.00499955373068
0.00499954587327
0.00499954487244
0.00499954711008
0.00499955215565
0.00499956127011
0.00499957839683
0.00499961968151
0.00499969516652
0.00499982522743
0.00499985302988
0.00499980816397
0.00499980821513
0.00499980844577
0.00499980867778
0.00499980880681
0.00499980881102
0.00499980855869
0.0049995629031
0.00499960338032
0.00499957676265
0.00499956546171
0.00499956502041
0.00499956859403
0.00499957452259
0.00499958457834
0.00499960886274
0.0049996687983
0.00499976792767
0.0049998815683
0.00499981430959
0.00499981431143
0.00499981447925
0.00499981471846
0.00499981489308
0.00499981500325
0.00499981498576
0.00499981432859
0.00499957758715
0.00499964966812
0.00499961692797
0.0049996003905
0.00499959980918
0.0049996037975
0.00499961062678
0.0049996269622
0.00499966950829
0.00499973841144
0.00499985407256
0.00499985600579
0.00499981958054
0.00499981990293
0.00499982025278
0.00499982052206
0.00499982069469
0.00499982071396
0.0049998205911
0.00499981618239
0.00499959954234
0.00499970374725
0.00499968080014
0.00499966252045
0.00499966165302
0.00499966609263
0.00499967850227
0.00499970704354
0.00499974452682
0.00499981856482
0.00499988406296
0.00499984248779
0.00499982559323
0.00499982585175
0.00499982610531
0.00499982631098
0.00499982644673
0.00499982654645
0.00499982407637
0.00499981611529
0.00499962892546
0.00499974132595
0.00499972771919
0.00499971503434
0.00499971829304
0.00499972761418
0.00499974634302
0.00499977883954
0.00499983172548
0.00499988704206
0.00499987502956
0.00499985233767
0.00499984136489
0.00499983937648
0.00499983929325
0.00499983953778
0.00499983957533
0.00499983753245
0.00499983292394
0.00499982975973
0.00499971554756
0.00499981944787
0.00499978584272
0.00499977536369
0.0049997836313
0.00499979879999
0.00499982252631
0.00499985373856
0.0049998812752
0.00499989152966
0.00499989546004
0.0049999070338
0.00499991771094
0.00499992720191
0.00499993363449
0.00499993814658
0.00499994038146
0.00499994031087
0.00499993972601
0.00499993823351
0.00499665231335
0.0049966411597
0.00499662164976
0.00499659481884
0.00499656755991
0.00499653904185
0.00499651006224
0.00499648560883
0.00499646539586
0.00499645337404
0.0049964504984
0.00499643777876
0.00499641304718
0.00499640789865
0.00499641315229
0.00499641714779
0.00499677573442
0.00499677945368
0.00499678075843
0.00499677896594
0.00499677251147
0.00499675873162
0.00499673439803
0.00499669967249
0.00499666279613
0.00499662018241
0.00499656759853
0.00499652094909
0.00499648133638
0.00499645100101
0.0049964285273
0.00499643983213
0.00499640948123
0.00499639635875
0.00499639954473
0.0049964029291
0.00499690539841
0.00499690891692
0.00499690964736
0.00499690584908
0.00499689529184
0.00499687533719
0.00499684265521
0.0049967961437
0.00499674214915
0.00499668388861
0.00499660568821
0.00499652315369
0.00499645264301
0.00499639658624
0.0049963556031
0.00499637900659
0.00499634350469
0.00499632497351
0.00499632576973
0.00499632869957
0.0049970400016
0.00499704264139
0.00499704242581
0.00499703617598
0.00499702041368
0.00499699237888
0.00499694827736
0.00499688585251
0.004996806983
0.00499671514507
0.0049966066511
0.00499647673445
0.00499634781624
0.00499624519861
0.00499618075157
0.00499624096553
0.00499619479442
0.00499617568362
0.0049961795366
0.00499618525044
0.00499717431486
0.00499717490013
0.00499717345053
0.00499716635617
0.00499715015672
0.00499712109826
0.00499707331653
0.00499700106415
0.00499690004577
0.00499676772017
0.00499660069892
0.00499640357484
0.00499618867081
0.00499598941977
0.00499598109276
0.00499604432155
0.00499603032916
0.00499604846534
0.00499608335532
0.00499610421171
0.00499730225172
0.00499730186322
0.0049973028835
0.00499730259614
0.00499729912895
0.00499728847413
0.00499726395141
0.00499721799427
0.00499714343832
0.0049970333669
0.00499688697513
0.00499670618247
0.00499655948344
0.00499660164966
0.00499655864612
0.00499643428282
0.004996466817
0.00499652452294
0.00499657203965
0.00499659817314
0.00499740746515
0.00499740852081
0.00499741478896
0.00499742522172
0.00499744104271
0.0049974606688
0.00499748280824
0.00499750843145
0.00499754306753
0.00499760105166
0.00499769197406
0.00499791631279
0.00499824554323
0.00499825516526
0.00499825471053
0.00499810559085
0.00499795658108
0.00499786662459
0.00499781125554
0.00499778509635
0.00499747840002
0.0049974799046
0.00499748833233
0.00499750486791
0.00499753042177
0.00499756345502
0.00499760723088
0.00499767063742
0.00499776093386
0.00499787722716
0.00499805552249
0.00499836059009
0.00499829440613
0.00499829325784
0.00499829286597
0.00499828506531
0.00499822908782
0.00499819739559
0.00499817836294
0.0049981684447
0.00499751958264
0.00499752339711
0.00499753602469
0.00499755982257
0.00499759325852
0.00499764054681
0.00499771196948
0.00499780702195
0.00499791493599
0.00499803919784
0.00499835553639
0.00499831775903
0.00499831685028
0.00499831635475
0.00499831627995
0.00499833210961
0.00499830768301
0.00499829719766
0.0049982927617
0.0049982896591
0.00499754405666
0.00499755326114
0.0049975740464
0.0049976082839
0.00499765929543
0.00499773594914
0.00499783434643
0.00499794555973
0.00499807365575
0.00499829900225
0.00499838712461
0.004998335458
0.00499833541049
0.00499833542879
0.00499833554846
0.00499838397448
0.00499835859825
0.00499835065033
0.00499834852809
0.00499834661436
0.00499756286794
0.00499757911154
0.00499761179619
0.00499766366736
0.00499773768632
0.00499782805077
0.00499793136384
0.00499804861352
0.00499820388475
0.00499845137775
0.00499835552604
0.00499835466377
0.00499835414635
0.00499835388435
0.0049983538523
0.00499839147108
0.00499837685778
0.00499837303377
0.00499837298634
0.00499837190381
0.00499758473225
0.00499761348351
0.00499766543432
0.00499773583445
0.0049978148457
0.00499790571885
0.00499801033466
0.00499813367492
0.00499841751569
0.00499837154474
0.00499837068286
0.00499837007152
0.00499836970908
0.00499836946893
0.00499836942504
0.00499840386457
0.00499839268383
0.00499838914954
0.00499838898481
0.00499838798963
0.00499762753186
0.00499767668546
0.0049977453488
0.00499781724932
0.0049978999974
0.00499800152444
0.00499812458736
0.00499837169634
0.00499838428299
0.00499838371729
0.00499838323836
0.0049983829302
0.00499838264317
0.004998382406
0.00499838217387
0.00499840434778
0.00499839738767
0.00499839521695
0.00499839571961
0.00499839523797
0.00499771039145
0.00499777070573
0.0049978342965
0.00499790781258
0.00499799908769
0.00499811622793
0.00499835314916
0.00499840871774
0.00499839398899
0.00499839406589
0.00499839409182
0.00499839401922
0.00499839392925
0.0049983937572
0.00499839324382
0.00499840481587
0.00499840156323
0.00499840093883
0.00499840212102
0.00499840223947
0.004997840006
0.00499788749646
0.00499793979924
0.00499801590002
0.0049981231615
0.00499836504254
0.00499844613438
0.00499840598745
0.00499840547824
0.0049984050832
0.00499840486014
0.00499840476592
0.00499840473236
0.00499840478519
0.00499841468642
0.00499841899466
0.0049984163991
0.0049984141829
0.0049984143418
0.00499841443921
0.00499801087947
0.00499803550527
0.00499807680421
0.00499816501699
0.00499837089016
0.0049984560022
0.00499841282914
0.00499841285009
0.00499841292605
0.00499841299604
0.00499841303609
0.00499841302162
0.0049984130009
0.00499841291183
0.00499841748342
0.00499841753769
0.00499841582837
0.00499841405414
0.00499841428778
0.00499841556125
0.00499822074938
0.00499821980882
0.00499825718694
0.00499837412883
0.00499844343639
0.00499842697682
0.00499841888953
0.00499841909263
0.0049984191976
0.00499841933364
0.00499841942811
0.0049984194739
0.00499841941289
0.0049984192743
0.0049984176508
0.00499841329257
0.00499841052886
0.00499840972091
0.00499840664056
0.00499840951275
0.00499845640822
0.00499843428667
0.00499846011719
0.00499848163127
0.00499845840225
0.00499843867267
0.00499842662427
0.00499842471709
0.00499842479356
0.004998424995
0.00499842519715
0.00499842524183
0.00499842523122
0.00499842472493
0.00499842079386
0.00499841736569
0.00499841577542
0.00499841594885
0.00499840791471
0.00499841145469
0.00499868341998
0.00499864790045
0.00499862982133
0.00499858658025
0.00499853863831
0.00499849893407
0.0049984665093
0.00499845062704
0.00499844479619
0.0049984434178
0.00499844340705
0.00499844499613
0.00499844791729
0.00499845191183
0.00499846114859
0.00499847377904
0.00499849622105
0.00499848426571
0.00499847406281
0.00499848745817
0.00499886192541
0.00499882342395
0.00499878993823
0.00499873973851
0.0049986912505
0.00499864196034
0.00499859186678
0.0049985581855
0.00499855092829
0.00499856074736
0.00499856977237
0.00499857907913
0.00499859464891
0.00499862311661
0.00499866219948
0.00499869610131
0.00499869088852
0.0049986812635
0.00499867406303
0.00499867784314
0.00499897471092
0.00499894645212
0.00499893020334
0.00499889436012
0.0049988606899
0.00499882673951
0.00499879302324
0.00499877313563
0.0049987786292
0.00499879997676
0.00499881905344
0.00499883526457
0.00499885696177
0.00499887183563
0.00499887148415
0.00499886590266
0.00499885975047
0.00499885623646
0.00499885552468
0.0049988545031
0.0049990075164
0.0049990034952
0.00499902138282
0.00499899967281
0.00499898278483
0.00499897320546
0.00499897271386
0.0049989864546
0.00499899858792
0.00499899906486
0.00499899750951
0.0049989945805
0.00499898658339
0.00499897862572
0.00499897458765
0.00499897423399
0.00499897637603
0.0049989786672
0.00499898092262
0.00499897978029
0.00499902242885
0.00499907273539
0.00499910775966
0.00499909461766
0.00499908827014
0.00499908898518
0.00499909675358
0.00499909896844
0.00499908597167
0.00499907469119
0.00499906437391
0.0049990539912
0.00499904582495
0.00499904406849
0.00499904916542
0.00499905599221
0.0049990615175
0.00499906614983
0.00499907192259
0.00499907161149
0.00499928156068
0.00499933428037
0.00499930700666
0.00499928530048
0.00499927003361
0.00499925203628
0.00499922966707
0.00499919647958
0.00499916617817
0.00499914991585
0.004999138636
0.00499912773293
0.00499912079982
0.00499912132677
0.00499912848389
0.0049991375899
0.00499914502604
0.00499915052405
0.00499915712796
0.00499915810617
0.00499965664641
0.00499964134555
0.0049996028809
0.00499956906971
0.0049995353463
0.00499949127786
0.00499943597294
0.00499936982173
0.00499931371429
0.00499927874023
0.0049992578563
0.00499924353392
0.00499923343151
0.00499922844399
0.00499922853622
0.00499923520369
0.00499924212813
0.00499924926334
0.00499925812113
0.00499925931883
0.00499976039115
0.00499976075346
0.00499975787222
0.0049997458608
0.00499972423907
0.00499968876626
0.00499963602469
0.00499957107952
0.00499950643688
0.00499945457745
0.00499941867494
0.00499939404968
0.00499937396953
0.00499935680468
0.00499934230958
0.00499933817853
0.00499934419531
0.00499935156507
0.0049993608138
0.00499936530582
0.00499976893253
0.00499976947822
0.0049997729313
0.00499977663909
0.00499977540319
0.00499976463313
0.00499974182264
0.00499970623874
0.0049996614407
0.00499961561398
0.00499957422641
0.00499953904523
0.00499950848455
0.00499948110461
0.00499945610336
0.00499943812625
0.00499943640652
0.00499944443451
0.00499945098318
0.00499945898737
0.00499977638934
0.00499977679183
0.0049997765057
0.0049997768116
0.00499977698569
0.00499977376351
0.00499976509613
0.00499974918916
0.00499972723121
0.00499970025203
0.00499966958228
0.00499963756674
0.00499960773262
0.00499958053219
0.00499955350768
0.00499952719902
0.00499951247205
0.00499951540394
0.00499952127852
0.00499953117794
0.00499978323351
0.00499978338341
0.00499977995982
0.00499977623742
0.00499977324389
0.00499976895818
0.00499976167156
0.00499975147132
0.00499973963422
0.00499972474269
0.00499970645131
0.00499968576015
0.00499966610477
0.0049996477019
0.0049996266392
0.00499960371149
0.00499958167411
0.00499957630628
0.00499958229769
0.0049995928688
0.00499978948653
0.00499978932249
0.00499978118517
0.00499977393415
0.00499976704175
0.00499975942179
0.00499975000075
0.00499974171546
0.00499973465879
0.00499972545078
0.00499971367528
0.00499970199582
0.00499969385546
0.00499968352942
0.00499966830483
0.00499965096022
0.00499963427936
0.00499962357345
0.00499962630447
0.00499963692017
0.0049997957065
0.00499979164042
0.00499977991073
0.00499976875194
0.00499975792548
0.00499974685579
0.00499973583095
0.00499973010416
0.00499972594928
0.00499971787413
0.00499971032437
0.00499970790038
0.00499970739797
0.00499969968081
0.00499968712743
0.00499967264242
0.00499966090238
0.00499965322264
0.00499965409054
0.00499966400774
0.00499980148365
0.00499979032935
0.00499977663434
0.00499976320559
0.00499975009242
0.00499973625679
0.0049997271052
0.0049997233198
0.00499971655667
0.00499971097637
0.00499971402162
0.00499972330655
0.00499971971845
0.00499970763783
0.00499969509043
0.00499968364463
0.00499967788245
0.0049996748729
0.00499967552778
0.00499968474539
0.00499980359579
0.00499979088191
0.00499977554557
0.00499975995977
0.00499974416357
0.00499973000535
0.00499972295987
0.00499971672635
0.00499971302439
0.00499972512437
0.0049997372514
0.00499973359282
0.00499972206252
0.00499971117384
0.00499970133469
0.00499969689658
0.00499969839054
0.00499970033373
0.0049997005214
0.0049997092466
0.00499980417542
0.00499979042896
0.00499977340975
0.00499975602299
0.00499973847475
0.00499972706703
0.00499972104796
0.00499972311568
0.00499974772951
0.00499975389843
0.00499974730811
0.00499973957594
0.00499972939386
0.00499972055125
0.00499971647435
0.00499971904126
0.00499972532648
0.00499973163361
0.0049997288534
0.00499973786804
0.004999804876
0.00499978912508
0.00499977091004
0.00499975368931
0.00499974044994
0.00499973682744
0.00499974996988
0.00499978480576
0.00499978879974
0.0049997770509
0.00499976945652
0.00499975774248
0.00499974837728
0.00499974318338
0.00499974316309
0.00499974792155
0.00499976005578
0.00499976212979
0.0049997587796
0.00499976808765
0.00499980441333
0.00499978987873
0.00499977856158
0.00499977083681
0.00499977294175
0.00499980043779
0.0049998396616
0.00499983991121
0.0049998203742
0.00499980788101
0.0049997966279
0.00499978814881
0.00499978335674
0.00499978205171
0.00499978423296
0.00499979236513
0.00499981653688
0.00499980527935
0.00499980384795
0.0049998131062
0.00499982684091
0.00499982672171
0.00499982899307
0.00499984028396
0.00499987651105
0.00499990938627
0.00499989891881
0.00499987691641
0.00499986224915
0.00499985201417
0.00499984509687
0.00499984158348
0.00499984006549
0.00499983982091
0.00499984373551
0.00499988344297
0.00499988447397
0.00499986760516
0.00499986753075
0.00499987669355
0.004999936307
0.00499993640762
0.00499994072223
0.00499995869198
0.00499997349524
0.00499996532608
0.0049999508703
0.00499994367159
0.00499993848389
0.00499993473364
0.0049999327382
0.00499993117662
0.00499992905207
0.00499992796642
0.00499995221744
0.00499996910844
0.00499994832197
0.00499994203618
0.00499994260944
0.00499994954744
)
;

boundaryField
{
    emptyPatch
    {
        type            empty;
    }
    minY
    {
        type            calculated;
        value           nonuniform List<scalar> 0();
    }
    maxY
    {
        type            calculated;
        value           uniform 0.005;
    }
    water_to_cooler
    {
        type            calculated;
        value           nonuniform List<scalar> 
38
(
0.00499641714779
0.0049964029291
0.00499632869957
0.00499618525044
0.00499610421171
0.00499659817314
0.00499778509635
0.0049981684447
0.0049982896591
0.00499834661436
0.00499837190381
0.00499838798963
0.00499839523798
0.00499840223951
0.00499841443929
0.00499841556141
0.00499840951296
0.00499841145484
0.00499848745817
0.00499867784315
0.00499885450311
0.00499897978035
0.00499907161168
0.0049991581065
0.00499925931939
0.00499936530741
0.00499945899134
0.00499953118483
0.00499959287841
0.00499963693351
0.00499966402587
0.00499968476918
0.00499970927643
0.00499973789829
0.00499976811133
0.00499981312139
0.00499987670185
0.00499994955021
)
;
    }
    water_to_heater
    {
        type            calculated;
        value           nonuniform List<scalar> 
59
(
0.00499637909237
0.00499640301219
0.00499643982093
0.00499676635724
0.00499722886108
0.00499726865463
0.00499740775363
0.00499744189984
0.00499742852335
0.00499745387537
0.00499744649473
0.00499745509488
0.00499744470757
0.00499746913423
0.00499745529487
0.00499748159281
0.00499746881862
0.00499749568126
0.00499749282235
0.00499753710183
0.00499769853111
0.00499773758791
0.00499817557865
0.00499821842052
0.0049989198647
0.00499896185614
0.00499934358838
0.00499936677208
0.00499937142766
0.00499938056013
0.0049993827969
0.00499939201117
0.00499939467213
0.00499940372461
0.0049994073497
0.00499941852666
0.00499942374027
0.00499943295505
0.00499943865777
0.00499944779644
0.00499945390433
0.00499946312304
0.00499946978977
0.00499948373929
0.00499947998516
0.00499950235535
0.00499949685125
0.00499952522013
0.00499952382075
0.00499955235626
0.00499954598194
0.00499955779602
0.00499955080914
0.00499957959603
0.00499957983086
0.00499960862225
0.00499961546959
0.00499964733425
0.00499971005285
)
;
    }
    procBoundary0to1
    {
        type            processor;
        value           nonuniform List<scalar> 
41
(
0.00499634294611
0.00499640660396
0.00499637217902
0.0049963572601
0.00499635702893
0.00499635775688
0.00499635718032
0.00499635433557
0.00499634989243
0.00499634991278
0.00499636720254
0.00499640826665
0.00499645138347
0.00499648138863
0.00499651276168
0.00499654572293
0.00499658415282
0.00499663466695
0.00499665403157
0.00499665376291
0.00499653565134
0.00499652640481
0.00499651234203
0.00499649264597
0.00499647246043
0.00499645523904
0.00499644141359
0.00499642960973
0.0049964204311
0.00499642067153
0.00499642992908
0.00499641573035
0.00499640004388
0.00499639504738
0.00499640008342
0.00499640470741
0.00499665575517
0.00499665837015
0.00499665902718
0.00499665740067
0.00499665740067
)
;
    }
}


// ************************************************************************* //
