/*--------------------------------*- C++ -*----------------------------------*\
| =========                 |                                                 |
| \\      /  F ield         | OpenFOAM: The Open Source CFD Toolbox           |
|  \\    /   O peration     | Version:  2312                                  |
|   \\  /    A nd           | Website:  www.openfoam.com                      |
|    \\/     M anipulation  |                                                 |
\*---------------------------------------------------------------------------*/
FoamFile
{
    version     2.0;
    format      ascii;
    arch        "LSB;label=32;scalar=64";
    class       volScalarField;
    location    "0.03/water";
    object      p;
}
// * * * * * * * * * * * * * * * * * * * * * * * * * * * * * * * * * * * * * //

dimensions      [1 -1 -2 0 0 0 0];

internalField   nonuniform List<scalar> 
750
(
101905.82237
101906.900175
101906.477759
101906.479857
101906.482025
101906.481905
101906.482123
101906.482078
101906.48248
101906.482243
101906.481707
101906.480523
101906.478747
101906.476151
101906.424166
101906.331867
101906.264057
101906.046659
101905.547491
101904.962237
101887.601682
101892.475137
101887.415349
101889.251708
101889.883211
101889.819722
101889.658344
101889.53022
101889.475278
101889.472128
101889.472333
101889.472844
101889.473612
101889.474818
101889.475966
101889.478025
101889.480157
101889.481477
101889.483951
101889.488645
101878.119573
101883.618726
101877.01407
101876.805217
101876.982543
101876.796787
101876.640747
101876.427649
101876.445147
101876.841275
101876.360131
101873.157528
101868.899098
101872.498275
101877.820234
101877.86421
101877.874476
101877.872834
101877.870632
101877.868254
101866.878841
101873.664307
101866.943347
101866.907134
101867.286869
101867.068412
101866.949652
101866.980766
101867.041661
101867.130226
101867.372845
101867.819087
101867.619139
101864.53142
101856.999484
101851.019198
101861.430003
101869.300075
101869.329055
101869.335232
101865.824314
101874.237347
101865.483972
101864.240514
101864.095501
101865.789284
101867.833188
101868.059386
101867.868526
101867.545037
101866.795597
101865.821561
101865.275714
101865.099972
101864.935543
101864.684139
101865.298876
101865.694771
101865.14491
101864.813332
101854.076284
101863.344227
101861.475362
101861.722155
101861.732732
101861.734088
101861.734576
101861.734666
101861.735038
101861.734938
101861.7352
101861.735885
101861.685293
101861.500549
101861.264673
101861.078827
101860.962011
101860.756764
101860.266281
101859.703295
101845.924658
101853.184857
101844.123405
101846.012691
101849.136515
101849.769626
101849.727148
101849.728971
101849.728793
101849.728232
101849.727702
101849.727024
101849.725908
101849.724831
101849.723751
101849.722459
101849.722081
101849.722693
101849.671641
101849.472966
101838.206348
101844.740034
101838.267116
101837.368502
101837.379226
101836.961907
101836.72157
101836.579145
101836.499241
101836.369572
101836.042673
101834.489506
101830.88415
101830.378064
101837.056313
101839.411933
101839.43127
101839.433566
101839.429823
101839.425367
101831.892401
101839.592749
101833.189315
101832.489853
101832.489317
101832.089894
101832.07091
101832.286325
101832.688677
101832.808784
101832.461594
101831.820054
101831.601933
101831.451712
101830.30754
101826.808987
101820.587796
101820.870961
101832.454928
101835.323414
101837.767773
101854.767761
101841.97237
101840.024756
101839.69015
101839.430996
101840.610343
101842.319355
101842.093611
101841.260886
101840.442356
101839.377468
101837.880594
101836.578254
101836.08559
101836.148493
101836.416366
101836.521785
101836.426939
101835.446338
101846.13485
101865.163901
101853.014271
101849.933781
101849.8662
101851.916179
101852.908147
101852.7281
101852.736787
101852.73684
101852.735433
101852.733817
101852.732709
101852.730821
101852.72604
101851.261254
101846.902866
101845.121175
101845.7262
101844.984746
101819.640086
101833.893838
101823.769218
101822.150465
101823.224392
101826.130139
101826.691031
101825.316313
101823.800256
101822.542255
101822.022523
101822.021746
101822.018178
101822.017035
101822.015021
101822.010565
101822.011051
101822.01156
101821.655154
101821.586267
101784.397009
101791.061718
101785.483625
101784.235621
101784.657892
101784.457583
101784.492921
101784.456751
101780.066803
101766.040081
101764.233785
101789.835718
101790.999008
101791.024633
101791.02318
101791.015901
101791.006554
101790.999812
101790.993724
101759.638237
101769.090337
101762.713617
101760.834751
101761.398037
101761.315806
101761.311311
101761.137795
101760.876909
101760.312704
101759.012315
101757.44738
101754.513434
101745.18036
101736.604645
101757.150137
101767.039698
101767.078096
101767.081424
101772.159153
101787.272058
101778.0522
101776.535415
101776.447997
101775.61012
101775.315861
101777.500291
101779.665065
101778.977467
101777.848612
101776.767625
101775.600213
101774.391799
101773.070995
101771.806494
101770.359416
101769.090697
101767.749328
101698.60539
101729.655028
101717.43639
101712.355612
101712.984745
101717.170081
101719.503012
101718.413712
101717.527706
101717.368805
101717.370724
101717.37028
101717.369598
101717.368861
101717.366215
101717.354298
101714.036862
101706.068385
101708.031798
101688.806379
101704.885959
101694.802813
101691.315306
101690.913004
101694.879903
101697.625248
101696.387485
101695.187211
101694.308279
101693.695003
101693.443092
101693.440676
101693.43968
101693.438474
101693.435804
101693.429342
101693.423582
101692.890173
101656.846904
101663.026099
101658.917898
101657.241791
101657.664806
101657.031006
101656.436044
101655.795606
101648.296679
101624.225043
101620.91991
101666.01043
101666.75465
101666.789386
101666.785926
101666.773685
101666.76649
101666.760365
101666.754214
101626.032078
101634.770471
101630.118156
101627.785916
101628.428919
101628.361036
101628.524873
101628.470914
101628.089509
101627.077474
101624.840407
101619.736591
101599.852845
101570.006483
101604.91236
101637.915872
101637.989374
101637.999611
101637.994244
101549.38695
101564.724075
101557.348606
101555.453594
101555.932078
101555.551435
101554.689309
101554.408473
101556.96243
101558.867108
101557.93969
101556.718314
101555.83075
101555.530898
101554.944807
101553.047497
101550.644851
101548.678422
101547.249911
101382.675217
101424.3997
101413.694205
101406.60335
101406.665921
101410.117498
101415.911841
101415.631497
101413.489275
101412.55656
101412.559347
101412.559699
101412.558096
101412.55693
101412.557556
101412.55675
101412.544564
101407.867246
101400.714702
101376.906014
101393.150592
101385.524043
101381.404568
101379.802339
101382.509626
101388.466336
101387.584848
101385.626676
101384.100904
101382.910037
101382.195069
101381.986817
101381.985192
101381.983693
101381.981471
101381.976751
101381.964026
101381.952797
101336.115933
101341.95297
101339.519704
101337.085137
101337.581808
101336.638757
101335.50421
101333.886891
101326.808141
101295.788259
101262.601924
101327.168543
101348.924466
101349.001964
101349.00522
101348.992866
101348.979161
101348.970502
101348.963854
101348.87106
101285.757322
101294.269341
101291.562086
101288.444447
101289.236128
101288.963687
101289.268163
101289.276102
101289.123388
101288.02519
101285.266342
101280.388364
101261.321422
101215.110206
101219.14091
101302.042022
101302.465438
101302.500853
101302.494336
101302.481141
101214.730988
101227.785383
101224.35651
101221.690461
101222.398167
101222.554829
101222.372725
101220.519629
101218.358628
101222.131166
101227.04212
101226.506766
101225.181173
101225.104769
101226.261244
101224.960334
101221.977579
101219.475665
101217.468665
101215.848514
101034.891335
101071.218619
101043.8123
101033.966384
101030.151203
101026.276371
101027.312452
101031.771582
101029.728356
101028.405952
101028.411962
101028.411229
101028.405868
101028.40246
101028.396666
101027.633712
101018.615238
101015.525425
101019.546226
101022.25093
100941.31552
100954.495449
100951.423374
100947.927004
100946.212668
100943.532497
100948.154355
100955.189688
100953.346281
100951.563512
100950.002923
100948.651647
100948.064695
100948.061679
100948.054753
100948.041744
100948.035976
100948.030655
100946.839207
100941.336433
100881.095293
100887.165831
100886.496935
100883.152091
100884.082973
100883.130876
100881.232599
100878.420461
100874.057643
100833.138035
100731.744598
100767.608888
100908.636158
100908.835669
100908.870375
100908.857629
100908.83942
100908.817604
100908.804741
100908.258535
100817.494435
100824.310976
100822.111641
100821.174774
100822.337958
100822.359507
100822.931668
100823.02615
100823.326838
100822.890484
100822.188912
100817.225269
100812.359265
100796.778777
100743.135138
100679.142815
100788.042047
100834.235606
100834.323314
100834.318502
100710.461624
100720.116465
100720.124214
100716.814715
100717.605884
100717.509937
100717.537658
100717.18321
100715.80597
100712.17118
100707.462267
100712.457949
100721.272397
100721.738843
100721.428198
100721.326054
100721.876063
100722.285843
100719.96433
100717.692807
100554.794709
100593.239058
100580.28433
100570.693669
100570.594198
100567.572352
100562.683146
100566.082148
100574.994403
100573.384551
100572.260392
100572.056878
100572.058525
100572.052732
100572.030573
100560.90474
100558.650983
100564.769708
100566.909236
100566.437839
100502.44635
100512.119766
100512.776506
100509.283884
100509.53255
100506.383979
100500.78429
100504.644326
100515.845116
100514.145469
100511.650352
100510.452197
100510.44574
100510.437476
100510.427923
100510.413572
100510.404795
100509.729566
100498.360104
100494.806598
100446.372423
100452.914985
100456.287539
100450.927367
100451.305238
100451.732662
100451.174942
100448.630617
100442.133701
100415.690896
100318.014508
100266.007785
100462.135654
100478.297632
100478.386802
100478.384269
100478.371231
100478.357184
100478.275793
100476.486573
100041.041721
100047.621218
100044.427195
100045.039984
100046.482319
100046.871166
100048.364022
100047.776249
100048.611709
100047.520046
100048.098424
100045.151044
100041.691284
100030.191479
100027.458493
100023.745514
100004.8295
99941.1450415
99915.0569125
100035.499369
100213.455015
100221.498587
100223.352872
100219.574649
100220.460194
100220.138387
100220.004631
100219.772128
100218.859464
100217.503813
100216.607844
100216.26461
100215.977113
100215.984072
100216.221606
100215.10781
100211.912842
100206.354566
100202.639286
100207.782283
100130.637611
100168.698221
100161.656597
100150.984946
100152.311435
100152.619768
100149.444819
100140.79758
100145.474924
100163.062744
100162.701101
100162.526458
100161.861983
100158.180624
100140.364977
100141.941918
100153.210042
100158.237131
100158.638089
100157.279417
100052.89904
100061.012085
100063.492707
100059.585786
100060.316817
100060.459606
100059.595147
100050.196529
100030.69884
100039.858634
100064.188888
100064.256871
100064.272591
100064.268539
100064.254881
100064.219413
100042.97595
100040.75742
100055.940367
100062.572662
99972.3738717
99979.774897
99981.2533169
99976.5216573
99977.0923265
99976.4933618
99975.0996446
99965.539373
99893.2758512
99681.6716749
99680.2602347
100024.569402
100024.871935
100024.953166
100024.955303
100024.950523
100024.937352
100024.925877
100020.686664
100012.147928
)
;

boundaryField
{
    emptyPatch
    {
        type            empty;
    }
    minY
    {
        type            calculated;
        value           nonuniform List<scalar> 0();
    }
    maxY
    {
        type            calculated;
        value           uniform 100000;
    }
    maxX
    {
        type            calculated;
        value           nonuniform List<scalar> 0();
    }
    water_to_heater
    {
        type            calculated;
        value           nonuniform List<scalar> 
61
(
101908.221573
101903.446018
101889.731368
101881.256333
101878.12879
101866.888238
101872.672377
101863.55623
101857.876139
101850.30258
101848.336201
101838.73622
101838.216127
101831.902352
101844.604031
101835.505158
101850.628701
101841.666271
101822.171441
101812.094527
101784.407184
101759.648565
101780.242555
101769.480461
101703.50139
101693.735484
101691.525666
101680.697716
101656.857435
101626.042771
101557.904508
101546.563738
101387.893626
101377.483438
101379.770747
101368.361053
101336.126676
101285.768232
101223.619305
101211.783984
101040.414884
101029.394934
100944.300945
100932.407356
100881.106171
100817.505485
100719.586029
100707.435774
100560.575179
100549.041086
100505.504163
100493.320435
100446.383627
100041.053043
100222.685602
100210.394074
100136.52829
100124.774425
100055.984806
100043.690496
99972.3856187
)
;
    }
    procBoundary3to0
    {
        type            processor;
        value           nonuniform List<scalar> 
20
(
101915.829139
101919.997361
101914.371199
101914.324062
101914.541318
101915.007948
101915.647385
101915.842388
101915.539651
101915.022008
101914.443066
101913.937391
101913.640272
101913.478347
101913.291774
101912.581439
101911.780143
101911.345159
101911.270251
101911.270633
)
;
    }
    procBoundary3to1
    {
        type            processor;
        value           uniform 101902.18376;
    }
    procBoundary3to2
    {
        type            processor;
        value           nonuniform List<scalar> 
39
(
101889.52263
101877.85044
101869.328061
101864.832463
101857.428353
101847.813159
101839.409798
101835.468376
101831.766555
101838.124065
101790.7969
101811.810094
101790.7969
101767.075539
101766.390315
101711.915089
101688.756113
101666.604606
101637.985681
101546.070196
101404.432017
101378.127644
101378.127644
101343.607115
101300.05775
101207.797684
101030.920741
100936.387648
100899.330471
100831.66356
100708.328624
100563.229103
100545.141189
100456.926012
100304.14922
100245.707835
100149.16498
100071.467864
100038.053406
)
;
    }
}


// ************************************************************************* //
