/*--------------------------------*- C++ -*----------------------------------*\
| =========                 |                                                 |
| \\      /  F ield         | OpenFOAM: The Open Source CFD Toolbox           |
|  \\    /   O peration     | Version:  2312                                  |
|   \\  /    A nd           | Website:  www.openfoam.com                      |
|    \\/     M anipulation  |                                                 |
\*---------------------------------------------------------------------------*/
FoamFile
{
    version     2.0;
    format      ascii;
    arch        "LSB;label=32;scalar=64";
    class       volScalarField;
    location    "0.915/cooler";
    object      T;
}
// * * * * * * * * * * * * * * * * * * * * * * * * * * * * * * * * * * * * * //

dimensions      [0 0 0 1 0 0 0];

internalField   nonuniform List<scalar> 
187
(
300.000029262
300.000027799
300.000026718
300.000026011
300.000025663
300.000030598
300.000028995
300.000027856
300.000027114
300.000026747
300.000032158
300.000030471
300.000029251
300.000028451
300.000028053
300.000033905
300.000032122
300.000030817
300.000029958
300.000029529
300.000035937
300.000034045
300.000032664
300.000031758
300.000031307
300.000038484
300.000036462
300.000034998
300.000034044
300.000033571
300.00004176
300.000039568
300.000038
300.000036988
300.00003649
300.000045983
300.000043566
300.000041866
300.000040782
300.000040253
300.000051461
300.000048742
300.000046868
300.000045692
300.000045125
300.000058606
300.000055479
300.000053375
300.000052081
300.000051465
300.000067885
300.000064216
300.000061823
300.000060389
300.000059715
300.000079754
300.000075404
300.000072677
300.000071075
300.000070327
300.000094474
300.000089432
300.000086325
300.000084501
300.000083649
300.000112451
300.000106603
300.000102989
300.000100855
300.000099854
300.000134016
300.00012718
300.000122891
300.000120329
300.000119119
300.000159911
300.000151861
300.000146697
300.000143564
300.000142072
300.000190731
300.000181229
300.000174967
300.000171096
300.000169232
300.000226787
300.000215601
300.000208009
300.000203218
300.000200886
300.000268244
300.000255172
300.000246028
300.000240143
300.000237247
300.000315112
300.000299989
300.000289105
300.000281971
300.000278424
300.00036723
300.000349923
300.000337143
300.000328629
300.000324359
300.000424358
300.000404745
300.000389942
300.000379945
300.000374893
300.000486221
300.000464173
300.000447235
300.000435672
300.000429795
300.000552481
300.000527839
300.000508656
300.000495459
300.000488722
300.000622601
300.000595183
300.000573644
300.000558751
300.000551127
300.000695614
300.000665256
300.000641276
300.000624645
300.000616118
300.000770211
300.00073682
300.000710368
300.000691993
300.000682564
300.000845052
300.000808593
300.000779686
300.000759593
300.000749281
300.000919006
300.000879426
300.000848084
300.000826313
300.000815143
300.00099122
300.000948362
300.000914556
300.000891124
300.000879116
300.001061067
300.001014572
300.000978158
300.000953022
300.000940168
300.001128318
300.00107742
300.001038015
300.001010995
300.000997226
300.001193796
300.001136981
300.001093768
300.001064444
300.001049582
300.001260455
300.001194864
300.001146232
300.001113739
300.001097406
300.001334879
300.001255372
300.001198278
300.001160909
300.001142334
300.001429196
300.001327122
300.001256108
300.001210636
300.001188319
300.001562948
300.001424853
300.001330775
300.001271534
300.001242757
300.001357592
300.00131797
)
;

boundaryField
{
    emptyPatch
    {
        type            empty;
    }
    minY
    {
        type            zeroGradient;
    }
    maxY
    {
        type            zeroGradient;
    }
    maxX
    {
        type            zeroGradient;
    }
    cooler_to_water
    {
        type            compressible::turbulentTemperatureTwoPhaseRadCoupledMixed;
        refValue        nonuniform List<scalar> 
37
(
300.000084567
300.000086817
300.000088898
300.000094677
300.000102864
300.000112807
300.000125345
300.000141606
300.000163328
300.000192291
300.000229527
300.000273173
300.000321956
300.000378937
300.000446347
300.000524409
300.000612822
300.000710918
300.000817295
300.000930844
300.00105105
300.001178195
300.001313559
300.001458838
300.001615363
300.001782929
300.001959156
300.002141454
300.002330402
300.002530561
300.002751721
300.00301443
300.003359073
300.003858475
300.004628925
300.005831914
300.007660099
)
;
        refGradient     uniform 0;
        valueFraction   nonuniform List<scalar> 
37
(
0.0161413919723
0.0197745312582
0.0189652627766
0.018175325079
0.0176436324829
0.017309401453
0.0170784734283
0.0168811247785
0.0166754569166
0.0164846613427
0.0164117044262
0.0166313669411
0.0174665432007
0.017923549546
0.0176862108368
0.0174065434111
0.0171851979583
0.0170118981114
0.0168750387556
0.0167643334847
0.0166721430605
0.0165934592612
0.0165252650441
0.0164674103261
0.0164195062065
0.016383345788
0.0163597584522
0.0163478135827
0.0163432295256
0.0163426358588
0.0163440544203
0.0163472984712
0.0163512076687
0.0163546265649
0.0163560354326
0.0163554982182
0.0163533048061
)
;
        source          uniform 0;
        value           nonuniform List<scalar> 
37
(
300.000030151
300.000031703
300.000033229
300.000035005
300.000037112
300.000039765
300.00004318
300.000047588
300.000053314
300.000060794
300.000070519
300.000082947
300.000098414
300.000117187
300.000139493
300.000166204
300.000197928
300.000234964
300.000277448
300.000325373
300.00037857
300.000436807
300.000499835
300.00056735
300.000638846
300.000713372
300.000789605
300.000866185
300.000942008
300.001016303
300.001088612
300.001159042
300.001229056
300.001302739
300.001388449
300.001500738
300.001661966
)
;
        kappaMethod     solidThermo;
        Tnbr            T.liquid;
        region          solid;
        otherPhase      gas;
    }
    procBoundary2to0
    {
        type            processor;
        value           nonuniform List<scalar> 5(300.000028326 300.000026914 300.000025866 300.000025177 300.000024836);
    }
    procBoundary2to3
    {
        type            processor;
        value           nonuniform List<scalar> 6(300.001765149 300.001571604 300.001439991 300.001439991 300.001492535 300.00143479);
    }
}


// ************************************************************************* //
