/*--------------------------------*- C++ -*----------------------------------*\
| =========                 |                                                 |
| \\      /  F ield         | OpenFOAM: The Open Source CFD Toolbox           |
|  \\    /   O peration     | Version:  2312                                  |
|   \\  /    A nd           | Website:  www.openfoam.com                      |
|    \\/     M anipulation  |                                                 |
\*---------------------------------------------------------------------------*/
FoamFile
{
    version     2.0;
    format      ascii;
    arch        "LSB;label=32;scalar=64";
    class       volScalarField;
    location    "0.815/water";
    object      nut.gas;
}
// * * * * * * * * * * * * * * * * * * * * * * * * * * * * * * * * * * * * * //

dimensions      [0 2 -1 0 0 0 0];

internalField   nonuniform List<scalar> 
1504
(
4.6567632379e-06
4.14884763389e-06
3.5246762735e-06
2.93149226153e-06
2.32032213147e-06
1.75832884405e-06
1.32626201679e-06
1.04310044635e-06
8.75034945179e-07
7.47418383782e-07
5.74472785721e-07
3.17771496013e-07
9.85133522556e-08
3.49796586451e-08
2.8107539075e-08
2.73764468194e-08
2.60719799242e-08
2.56079075579e-08
2.86077594321e-08
4.95333236008e-08
5.07995131814e-06
4.48195676574e-06
3.6635618755e-06
2.95325893389e-06
2.31143930947e-06
1.75075375994e-06
1.32915660541e-06
1.04913179005e-06
8.81530025649e-07
7.54517837171e-07
5.81847887436e-07
3.26025345937e-07
1.05160165587e-07
3.689753799e-08
2.83547523992e-08
2.74113219343e-08
2.59632894973e-08
2.50760752733e-08
2.68355286726e-08
3.9975066127e-08
5.62012424691e-06
4.59092528319e-06
3.52354205357e-06
2.842688921e-06
2.24528161374e-06
1.72737870608e-06
1.33083825391e-06
1.05409760773e-06
8.84478136333e-07
7.55842767697e-07
5.82638682688e-07
3.30345436792e-07
1.11927503502e-07
3.93183973032e-08
2.87082807452e-08
2.74848282251e-08
2.59781158039e-08
2.47741122377e-08
2.55948884504e-08
3.42333493744e-08
6.20934006382e-06
4.83394046276e-06
3.4909801626e-06
2.77621911435e-06
2.22472672443e-06
1.74159413261e-06
1.34675596936e-06
1.06025330508e-06
8.84613404295e-07
7.55095421799e-07
5.84911009843e-07
3.39109056931e-07
1.22213720068e-07
4.29484510766e-08
2.9292282058e-08
2.761877697e-08
2.60961080893e-08
2.46242460161e-08
2.47804456869e-08
3.03332887683e-08
6.66970954856e-06
5.52795440306e-06
3.99015849222e-06
2.94862852329e-06
2.28908273797e-06
1.77923343734e-06
1.36765114591e-06
1.06820731539e-06
8.83843963195e-07
7.53895844485e-07
5.90638326737e-07
3.53932814338e-07
1.37241222198e-07
4.84657294486e-08
3.02940220164e-08
2.78386515823e-08
2.62799363968e-08
2.4561100692e-08
2.42391803247e-08
2.76899652748e-08
7.04414265931e-06
6.10077700919e-06
4.5644167518e-06
3.29052226836e-06
2.43909950555e-06
1.85300499178e-06
1.40910629219e-06
1.08771666854e-06
8.87236652672e-07
7.53437358024e-07
5.97806383229e-07
3.70657101998e-07
1.53663327258e-07
5.52805736136e-08
3.18400603503e-08
2.81395193326e-08
2.64849492224e-08
2.45462965829e-08
2.38576474684e-08
2.5879725562e-08
7.16568502967e-06
6.45253546741e-06
5.01071516006e-06
3.66164668393e-06
2.66948112351e-06
1.97933019977e-06
1.47604874564e-06
1.12029900825e-06
8.9793471182e-07
7.548542791e-07
6.0297662807e-07
3.83509789612e-07
1.67347403325e-07
6.18522799826e-08
3.35799655827e-08
2.84428809363e-08
2.66605599413e-08
2.45580327961e-08
2.35761659519e-08
2.46306378334e-08
7.15411448642e-06
6.60048186321e-06
5.25812197969e-06
3.91053188047e-06
2.86049517043e-06
2.09685073818e-06
1.54014874926e-06
1.15343931759e-06
9.11719962555e-07
7.57290000156e-07
6.03666384163e-07
3.8786688516e-07
1.74915120828e-07
6.66280361767e-08
3.50307934096e-08
2.86447325819e-08
2.67395222591e-08
2.45561800018e-08
2.33644792058e-08
2.37620840763e-08
7.05028056088e-06
6.61259544967e-06
5.32069281094e-06
4.00280843924e-06
2.94664576639e-06
2.1520758916e-06
1.57079631509e-06
1.17211179516e-06
9.21468972513e-07
7.57782596713e-07
5.97772661571e-07
3.81391109854e-07
1.7463902919e-07
6.8483508046e-08
3.57575979115e-08
2.86374481968e-08
2.6663544446e-08
2.45045930138e-08
2.32429316442e-08
2.31584288318e-08
6.97589529955e-06
6.55835138927e-06
5.25491767604e-06
3.94152112389e-06
2.90141303559e-06
2.12228056731e-06
1.55671940002e-06
1.17077783255e-06
9.22584258647e-07
7.52775218745e-07
5.82963872892e-07
3.63446583572e-07
1.6657937016e-07
6.71601609147e-08
3.55462633517e-08
2.8343007762e-08
2.63986410299e-08
2.4421160985e-08
2.32067437848e-08
2.27885935441e-08
6.88824040211e-06
6.40472014287e-06
5.02298246148e-06
3.73251057302e-06
2.7447098166e-06
2.02493281863e-06
1.50950219275e-06
1.15376596216e-06
9.13670253134e-07
7.39722065046e-07
5.57903507738e-07
3.35618010503e-07
1.52706806214e-07
6.33134765615e-08
3.44874756272e-08
2.7750625072e-08
2.59419285731e-08
2.42944952088e-08
2.31874799895e-08
2.26282283818e-08
6.81697598737e-06
6.14287232612e-06
4.71782187013e-06
3.45876934548e-06
2.54414137441e-06
1.90455274886e-06
1.45197025768e-06
1.12746582895e-06
8.96593649071e-07
7.19527107451e-07
5.23113919144e-07
3.01636900467e-07
1.3623615393e-07
5.81755184534e-08
3.2883568152e-08
2.68887324317e-08
2.53094878106e-08
2.40923279549e-08
2.31573688647e-08
2.25689578401e-08
6.56938270472e-06
5.7641557138e-06
4.41291967209e-06
3.21469059506e-06
2.36860533444e-06
1.80136625632e-06
1.39980044154e-06
1.09922354673e-06
8.78997780086e-07
6.94244857211e-07
4.81239538275e-07
2.66880162709e-07
1.20445607837e-07
5.30641207362e-08
3.10890957863e-08
2.58229562317e-08
2.45711594624e-08
2.38295711218e-08
2.31144937243e-08
2.24673566594e-08
6.1917512887e-06
5.37212544082e-06
4.11568387647e-06
2.99825420291e-06
2.23066810234e-06
1.72731050471e-06
1.36350102052e-06
1.08413183224e-06
8.69236173425e-07
6.65063681444e-07
4.3820549127e-07
2.3695356696e-07
1.07926858306e-07
4.90596006616e-08
2.94728643611e-08
2.47012781809e-08
2.37904877528e-08
2.34937067102e-08
2.29945124425e-08
2.2263858127e-08
5.64144730989e-06
4.88490621278e-06
3.76007567552e-06
2.78746351124e-06
2.13426976344e-06
1.69798357454e-06
1.36496500094e-06
1.09412349011e-06
8.66442640859e-07
6.34644898378e-07
4.02378130567e-07
2.16225466269e-07
1.00607827566e-07
4.70580781987e-08
2.8439509639e-08
2.36953414064e-08
2.29905348943e-08
2.30797913002e-08
2.28397060449e-08
2.20982198533e-08
5.00347899694e-06
4.23434516846e-06
3.37264056385e-06
2.6498600297e-06
2.13742505188e-06
1.75015680861e-06
1.41089687258e-06
1.12011209574e-06
8.63884543911e-07
6.10965034539e-07
3.82262977413e-07
2.08223439112e-07
1.00113140131e-07
4.79449535278e-08
2.8433991507e-08
2.29770220927e-08
2.22164712127e-08
2.26026117502e-08
2.27245113695e-08
2.20796633384e-08
4.50690334273e-06
3.83382612153e-06
3.29164199228e-06
2.76916705567e-06
2.30593670737e-06
1.86316771469e-06
1.46338880061e-06
1.14188084749e-06
8.67054995497e-07
6.09862595188e-07
3.86496931681e-07
2.16399390685e-07
1.07565848673e-07
5.19454635262e-08
2.95841765162e-08
2.26651412861e-08
2.15491237719e-08
2.21106709836e-08
2.26636393953e-08
2.22388944427e-08
4.54155795934e-06
4.17551145655e-06
3.7572692343e-06
3.18263212318e-06
2.54765162564e-06
1.96282882228e-06
1.50636243307e-06
1.17296577919e-06
8.96282182966e-07
6.42044003515e-07
4.189186985e-07
2.43072231131e-07
1.24435690502e-07
5.97202610171e-08
3.2197744788e-08
2.30659406195e-08
2.11127167092e-08
2.16952201482e-08
2.26379616833e-08
2.25683755381e-08
5.48233934812e-06
5.20751126049e-06
4.57615394897e-06
3.67265264299e-06
2.77802620643e-06
2.07625831682e-06
1.5900603863e-06
1.24963147378e-06
9.72078804662e-07
7.18295412165e-07
4.88009070326e-07
2.95598445247e-07
1.55585383483e-07
7.32360739842e-08
3.67523044132e-08
2.44647904145e-08
2.12244557424e-08
2.15055290323e-08
2.27011106572e-08
2.31062594895e-08
6.98020185863e-06
6.49523819045e-06
5.40721294313e-06
4.13023024171e-06
3.06827443379e-06
2.3136221495e-06
1.78665785583e-06
1.41044503685e-06
1.11216301244e-06
8.46944327933e-07
6.01873102847e-07
3.83788602861e-07
2.09285490965e-07
9.62639436919e-08
4.40489164456e-08
2.68567877485e-08
2.2287410834e-08
2.17511931028e-08
2.30465648454e-08
2.38741146033e-08
8.01680209578e-06
7.29478622e-06
5.89307914109e-06
4.53460868754e-06
3.46863460118e-06
2.68198879511e-06
2.08305574103e-06
1.64670859425e-06
1.30542471228e-06
1.01222099027e-06
7.47459209655e-07
5.04029497176e-07
2.89698812854e-07
1.32790854455e-07
5.51695072775e-08
3.01467562602e-08
2.39971760499e-08
2.28824208982e-08
2.38163447679e-08
2.48354573133e-08
7.94726221359e-06
7.66831093687e-06
6.27202983855e-06
4.918710499e-06
3.87232254967e-06
3.04629965836e-06
2.36758738691e-06
1.87533365663e-06
1.490348684e-06
1.16788345988e-06
8.8564704101e-07
6.26575628201e-07
3.81847639324e-07
1.7961428827e-07
6.98850660486e-08
3.4089787592e-08
2.56972270054e-08
2.44901001473e-08
2.48688240286e-08
2.59430626168e-08
7.90189044208e-06
7.89640649677e-06
6.51770819633e-06
5.13430410847e-06
4.09819956743e-06
3.26614793144e-06
2.56662009051e-06
2.0341509775e-06
1.61165132172e-06
1.27089647053e-06
9.82817415336e-07
7.20890619748e-07
4.60314382532e-07
2.23948454495e-07
8.5112385486e-08
3.80384546664e-08
2.6903017086e-08
2.55803006497e-08
2.60633788055e-08
2.70641923248e-08
7.93917156892e-06
7.99908772275e-06
6.55563343923e-06
5.14586331126e-06
4.12314836557e-06
3.31468495679e-06
2.64209564231e-06
2.09513367594e-06
1.65821932139e-06
1.31327093009e-06
1.03118976158e-06
7.7739311049e-07
5.12797139431e-07
2.56600181294e-07
9.79603830908e-08
4.16124685327e-08
2.76517868754e-08
2.59000413939e-08
2.68926548563e-08
2.7996060068e-08
7.97894791701e-06
7.9765773682e-06
6.50214734083e-06
5.07801045667e-06
4.05922902793e-06
3.28136633685e-06
2.62536884533e-06
2.08361842794e-06
1.64914557273e-06
1.30899719793e-06
1.03959126788e-06
7.99088468131e-07
5.37829450539e-07
2.75661341793e-07
1.07984210807e-07
4.50984219585e-08
2.83956708941e-08
2.58149284741e-08
2.70873011349e-08
2.86183842504e-08
8.0581479023e-06
8.06075609881e-06
6.6277160644e-06
5.14547203008e-06
4.0572310062e-06
3.24468244323e-06
2.58850579284e-06
2.05456502989e-06
1.62338063551e-06
1.28647908368e-06
1.02725275141e-06
7.97136855526e-07
5.39723604177e-07
2.79848222008e-07
1.12876927598e-07
4.77166454581e-08
2.9172432601e-08
2.57014307907e-08
2.68844028201e-08
2.89129763058e-08
8.06817382893e-06
8.23433153856e-06
6.91116648075e-06
5.36848663409e-06
4.16455212444e-06
3.27433430175e-06
2.59210988625e-06
2.05147607906e-06
1.61431327408e-06
1.2717577747e-06
1.01205116911e-06
7.83332990926e-07
5.28113040042e-07
2.74634369657e-07
1.13643470149e-07
4.92371247554e-08
2.98233697122e-08
2.56496049023e-08
2.6574433123e-08
2.90217959497e-08
8.05191414066e-06
8.16603809511e-06
7.08845863401e-06
5.66158372434e-06
4.40001138432e-06
3.41607487178e-06
2.6753978238e-06
2.10334445189e-06
1.64383390858e-06
1.28124318271e-06
1.00407583813e-06
7.65784008113e-07
5.11574030647e-07
2.66183003141e-07
1.12832183722e-07
5.02554952222e-08
3.04306224147e-08
2.56947147691e-08
2.62914717588e-08
2.90230459231e-08
7.92491184357e-06
7.86017375173e-06
7.01102078915e-06
5.78815185336e-06
4.58161573462e-06
3.57343880022e-06
2.7957707473e-06
2.19119388871e-06
1.70260398516e-06
1.30984669948e-06
1.00314156121e-06
7.49920473378e-07
4.95990750312e-07
2.5854199299e-07
1.12261367599e-07
5.13035768984e-08
3.11010615499e-08
2.58575864234e-08
2.61051011702e-08
2.90031420086e-08
7.51726821376e-06
7.27716671928e-06
6.60209700647e-06
5.62669218658e-06
4.57702270952e-06
3.63829921461e-06
2.87803057757e-06
2.26546118411e-06
1.75762597211e-06
1.33712326689e-06
1.00308925238e-06
7.38060610882e-07
4.84344751771e-07
2.53702946019e-07
1.12854490095e-07
5.26914698832e-08
3.19048911298e-08
2.61380694002e-08
2.60601050728e-08
2.90482270687e-08
7.04996958644e-06
6.64977646066e-06
6.04030735854e-06
5.26171713223e-06
4.39675425169e-06
3.57926066552e-06
2.87935260193e-06
2.28763427543e-06
1.77965146686e-06
1.34604820559e-06
9.99253282848e-07
7.30782677266e-07
4.77948536803e-07
2.52535842845e-07
1.15041078381e-07
5.45914547957e-08
3.28860667268e-08
2.65266285219e-08
2.61593241744e-08
2.92305083093e-08
6.60697306434e-06
6.08707512643e-06
5.46854590034e-06
4.80776877139e-06
4.10117369267e-06
3.4119073099e-06
2.79193621634e-06
2.24372175391e-06
1.75715935626e-06
1.33130712572e-06
9.91213587834e-07
7.28320941831e-07
4.76734230014e-07
2.54991234301e-07
1.18882779552e-07
5.70688827164e-08
3.40703121759e-08
2.70032615973e-08
2.63442353578e-08
2.94993364067e-08
6.16956029794e-06
5.58312778987e-06
4.94236310641e-06
4.33922237205e-06
3.74514021916e-06
3.16800862292e-06
2.63311339309e-06
2.14464028467e-06
1.69795716757e-06
1.29913317048e-06
9.82925992824e-07
7.30722104342e-07
4.79517272634e-07
2.60398239805e-07
1.24216758205e-07
6.01271887357e-08
3.546364631e-08
2.7534459162e-08
2.65216316433e-08
2.96810570239e-08
5.72295127768e-06
5.13075069889e-06
4.47221237198e-06
3.89198574727e-06
3.37474525947e-06
2.8928272775e-06
2.44352660733e-06
2.02347503834e-06
1.62485825082e-06
1.26497099534e-06
9.81660716342e-07
7.37883973508e-07
4.85181100627e-07
2.68434339619e-07
1.31119841965e-07
6.38542220347e-08
3.7087676831e-08
2.81279684663e-08
2.66362743564e-08
2.95988390145e-08
5.32915243794e-06
4.73558984552e-06
4.05744486833e-06
3.49363286681e-06
3.04387967082e-06
2.65042697215e-06
2.2831567041e-06
1.9245989463e-06
1.56764952981e-06
1.24996089516e-06
9.95029774677e-07
7.50226497027e-07
4.94888012949e-07
2.80605586422e-07
1.4061910442e-07
6.87091862579e-08
3.92097513226e-08
2.89224733347e-08
2.66997243951e-08
2.92296178908e-08
5.04922915213e-06
4.39908219802e-06
3.71836268733e-06
3.19565142441e-06
2.82738630717e-06
2.51795337868e-06
2.21305033019e-06
1.88728105694e-06
1.55864098907e-06
1.27498418795e-06
1.02837553535e-06
7.72307733352e-07
5.1495804818e-07
3.01607504214e-07
1.555064518e-07
7.63604373567e-08
4.26012538218e-08
3.01864193186e-08
2.68470161036e-08
2.87376607758e-08
4.849633658e-06
4.12654062848e-06
3.52569773614e-06
3.10040975476e-06
2.81388411725e-06
2.55349447108e-06
2.26256772308e-06
1.93756773915e-06
1.62289674586e-06
1.34695462425e-06
1.08593817398e-06
8.15968659291e-07
5.57132446483e-07
3.40155621107e-07
1.82458947348e-07
9.04649118973e-08
4.85982570753e-08
3.24218051292e-08
2.73533982002e-08
2.8392187411e-08
4.79443668167e-06
4.14927648015e-06
3.67791027982e-06
3.31568082361e-06
3.03181021649e-06
2.7419155326e-06
2.41561198523e-06
6.89685944484e-06
5.100630891e-06
3.39352361656e-06
2.27989717891e-06
1.81512650199e-06
1.86746348417e-06
2.27162305509e-06
2.82907190491e-06
3.3613008621e-06
3.76709111209e-06
4.00207646944e-06
4.04936310369e-06
3.90545436755e-06
3.58158630601e-06
3.14159311349e-06
2.79077527958e-06
2.81856885109e-06
3.96869896469e-07
4.44404785062e-06
6.8546153377e-06
6.24208076115e-06
4.56130407234e-06
3.0391952527e-06
2.13086589335e-06
1.83439897244e-06
2.00594057602e-06
2.47419160855e-06
3.04224679137e-06
3.5539876536e-06
3.92737597181e-06
4.12732738057e-06
4.14114968381e-06
3.9669946496e-06
3.61483608874e-06
3.14315111919e-06
2.7582522136e-06
2.78208165245e-06
1.89371014279e-07
3.28441982865e-06
6.08656704773e-06
5.61201929293e-06
4.06725598028e-06
2.7443122029e-06
2.03608066391e-06
1.89554328223e-06
2.1726940324e-06
2.69004780185e-06
3.25884050316e-06
3.74611410117e-06
4.08594363665e-06
4.2508616857e-06
4.23172089169e-06
4.02818128976e-06
3.64904232792e-06
3.1465328139e-06
2.72439550141e-06
2.73705532401e-06
1.20515003202e-07
2.12025523708e-06
5.33800094168e-06
5.01683255935e-06
3.62774994986e-06
2.51155743794e-06
1.99393360626e-06
1.99626655081e-06
2.3644628145e-06
2.91657810271e-06
3.47787093028e-06
3.93749951091e-06
4.2428952211e-06
4.37286261588e-06
4.32126029008e-06
4.08917195652e-06
3.68444859931e-06
3.15244216129e-06
2.69019224905e-06
2.68191062322e-06
8.98674055934e-08
1.14400678571e-06
4.60307400425e-06
4.46569697185e-06
3.24966709973e-06
2.34133952984e-06
2.00232729402e-06
2.134049238e-06
2.5780293842e-06
3.15173844674e-06
3.69872115718e-06
4.12812831911e-06
4.39840783053e-06
4.49354958995e-06
4.4099698757e-06
4.15012350885e-06
3.72126580174e-06
3.1616116152e-06
2.65719145594e-06
2.61662668149e-06
5.80302571575e-08
5.40798364677e-07
3.87383840871e-06
3.96659759516e-06
2.93704743822e-06
2.23245594918e-06
2.05907177565e-06
2.30619609988e-06
2.81041420709e-06
3.3939818291e-06
3.92099588961e-06
4.31804024553e-06
4.55264893052e-06
4.61311425517e-06
4.49802905914e-06
4.21117819303e-06
3.75966760945e-06
3.17474740512e-06
2.62720761778e-06
2.54234953427e-06
4.14436335473e-08
2.66380805382e-07
3.14360043332e-06
3.52596647713e-06
2.69178733387e-06
2.18305686241e-06
2.1619877467e-06
2.50973352882e-06
3.05882013107e-06
3.64198680674e-06
4.1442905606e-06
4.50717475386e-06
4.70567659946e-06
4.73166508468e-06
4.58557747386e-06
4.27247879261e-06
3.7998224093e-06
3.1925109994e-06
2.60224731871e-06
2.46143929254e-06
3.41866684542e-08
1.56836163056e-07
2.42163190978e-06
3.14805388516e-06
2.51455598987e-06
2.19114405128e-06
2.30855520187e-06
2.74115776383e-06
3.32040518663e-06
3.89435233448e-06
4.36800019045e-06
4.69527206585e-06
4.85740169449e-06
4.84923115546e-06
4.67275000989e-06
4.33423212804e-06
3.84196676449e-06
3.21553796176e-06
2.58439418267e-06
2.37728989492e-06
2.93044600314e-08
1.07144947078e-07
1.75044696268e-06
2.83471648737e-06
2.40503821494e-06
2.25434419644e-06
2.49535909862e-06
2.99627786318e-06
3.59214747448e-06
4.14948497319e-06
4.59131445159e-06
4.88192737775e-06
5.0076682143e-06
4.96585193467e-06
4.75976818193e-06
4.39680142043e-06
3.88650130247e-06
3.24448291086e-06
2.57569343204e-06
2.2938876453e-06
2.61551736482e-08
7.83269501545e-08
1.1893845667e-06
2.58606509861e-06
2.36156601686e-06
2.36941207454e-06
2.71786562692e-06
3.27045382075e-06
3.87103325865e-06
4.40579634502e-06
4.81343937022e-06
5.06679553807e-06
5.15642372363e-06
5.0817098966e-06
4.84704063445e-06
4.46079020551e-06
3.93408064501e-06
3.28009902316e-06
2.5781109615e-06
2.21530781258e-06
2.42828767022e-08
5.92912606058e-08
7.7262377244e-07
2.398765085e-06
2.38086009401e-06
2.53210632327e-06
2.97083888336e-06
3.55922652176e-06
4.15449557065e-06
4.66206241727e-06
5.03388353767e-06
5.2497949138e-06
5.30384772116e-06
5.1971975247e-06
4.93518510138e-06
4.52704240253e-06
3.98562626302e-06
3.32328677671e-06
2.59354857871e-06
2.14534047134e-06
2.32580454311e-08
4.50572066162e-08
4.8280998602e-07
2.26008229693e-06
2.45809443659e-06
2.73751283112e-06
3.24908165251e-06
3.85892011797e-06
4.44074799948e-06
4.91764065176e-06
5.2525844512e-06
5.43116001973e-06
5.45035153102e-06
5.31288361032e-06
5.02497904373e-06
4.59659668833e-06
4.04232431284e-06
3.37516881099e-06
2.62397465755e-06
2.08742905718e-06
2.2734617421e-08
3.1860761408e-08
2.89362357332e-07
2.14204003605e-06
2.58705792735e-06
2.98070910077e-06
3.54820056331e-06
4.16702481706e-06
4.72891548789e-06
5.17250597e-06
5.46988939528e-06
5.61139313467e-06
5.59652135393e-06
5.42946300493e-06
5.11732599145e-06
4.67068227567e-06
4.1056701556e-06
3.43723251233e-06
2.67166937152e-06
2.0449386227e-06
2.24850570932e-08
2.70873500248e-08
1.71218981761e-07
1.99850488962e-06
2.76005618907e-06
3.25768491452e-06
3.86529760851e-06
4.48236690869e-06
5.01897723481e-06
5.4271254458e-06
5.68641572911e-06
5.79113889561e-06
5.74302323173e-06
5.54770108315e-06
5.21324706592e-06
4.75076282272e-06
4.17758987569e-06
3.51155014736e-06
2.73957816717e-06
2.02172301565e-06
2.24423206491e-08
2.60664175022e-08
1.07175430847e-07
1.77351552583e-06
2.96574377566e-06
3.56472030753e-06
4.1983393124e-06
4.80429997899e-06
5.31104163035e-06
5.68188962007e-06
5.90263372005e-06
5.97089797261e-06
5.89042800419e-06
5.66835918241e-06
5.31390666173e-06
4.83867411621e-06
4.26069186155e-06
3.60117083818e-06
2.8318178343e-06
2.02293914095e-06
2.24892737691e-08
2.59924582866e-08
7.85398195173e-08
1.4244914468e-06
3.18136267734e-06
3.8953904502e-06
4.54422540938e-06
5.13133399305e-06
5.60446934411e-06
5.93660046862e-06
6.11860175299e-06
6.15092589691e-06
6.0392249296e-06
5.79230949399e-06
5.42084835948e-06
4.93701596926e-06
4.35886187838e-06
3.710910963e-06
2.95453187539e-06
2.05613162928e-06
2.26622466694e-08
2.64519279135e-08
6.71110940259e-08
9.57415941558e-07
3.35512511305e-06
4.23776287036e-06
4.89823397189e-06
5.46129777139e-06
5.89831625425e-06
6.19099414826e-06
6.33447445869e-06
6.33168788231e-06
6.19022156071e-06
5.92091253508e-06
5.53641702011e-06
5.04971672051e-06
4.47806471232e-06
3.84853000894e-06
3.11732667163e-06
2.13288343055e-06
2.29815758108e-08
2.72176994224e-08
4.96094461617e-08
4.99529976302e-07
3.35281212003e-06
4.57132111162e-06
5.25509382015e-06
5.79310857847e-06
6.19296039741e-06
6.44604392142e-06
6.55147662371e-06
6.51451893435e-06
6.34486750754e-06
6.05592789402e-06
5.66315455179e-06
5.18090145598e-06
4.62506058357e-06
4.02437932361e-06
3.33508803281e-06
2.27201827101e-06
2.34268347528e-08
2.83493086846e-08
4.6841733909e-08
2.52234262665e-07
2.85559774006e-06
4.85529952227e-06
5.60823838508e-06
6.12742337683e-06
6.4908055163e-06
6.70435763563e-06
6.77186910401e-06
6.7009283968e-06
6.50331402482e-06
6.19514265231e-06
5.79516992412e-06
5.32026262684e-06
4.78707528767e-06
4.23038361535e-06
3.61659451882e-06
2.50210976415e-06
2.41206781684e-08
2.98454084078e-08
4.86067516185e-08
1.87373700755e-07
1.67235747464e-06
4.96166443318e-06
5.94249943904e-06
6.46289399508e-06
6.79422307374e-06
6.96894609327e-06
6.998300273e-06
6.89271585409e-06
6.66598925683e-06
6.33685729031e-06
5.92786265256e-06
5.46060461144e-06
4.95791724633e-06
4.47029399973e-06
3.98913779079e-06
2.877538432e-06
2.51534876571e-08
3.17039526157e-08
5.1311517657e-08
1.28094096377e-07
7.04683932106e-07
4.42908347251e-06
6.21623034145e-06
6.7898162957e-06
7.10241084696e-06
7.24192767992e-06
7.23372013953e-06
7.09303706257e-06
6.83626130139e-06
6.48505119624e-06
6.06667117798e-06
5.6106833294e-06
5.15427568008e-06
4.77971654621e-06
4.52759362943e-06
3.51843525424e-06
2.64767221792e-08
3.39228828681e-08
5.46036644753e-08
1.16277809259e-07
4.16686683607e-07
2.76710659545e-06
6.27266603271e-06
7.08290648447e-06
7.40783924455e-06
7.52324144315e-06
7.48122925942e-06
7.30661714429e-06
7.02033044012e-06
6.6481442168e-06
6.22385121126e-06
5.78997301276e-06
5.41196046929e-06
5.23730163087e-06
5.41052771127e-06
4.7254310868e-06
2.79796881962e-08
3.64075666011e-08
5.86232393644e-08
1.13840869642e-07
3.23041248361e-07
1.1984054398e-06
5.52909828563e-06
7.28389486639e-06
7.6896539596e-06
7.80637057132e-06
7.74095397256e-06
7.53627410752e-06
7.22142706854e-06
6.82801255408e-06
6.39841690521e-06
5.99479408666e-06
5.72892623279e-06
5.84755644588e-06
6.68326227597e-06
7.02638891693e-06
2.95141753361e-08
3.9033625071e-08
6.33522670309e-08
1.15335728235e-07
2.26350326163e-07
6.5111334007e-07
3.40286003917e-06
7.18233530597e-06
7.90364690715e-06
8.0676258655e-06
7.99843458198e-06
7.7679374549e-06
7.41690160539e-06
6.9810742714e-06
6.50596055681e-06
6.0647480657e-06
5.79099546822e-06
5.90768993654e-06
6.70533206823e-06
8.8390407541e-06
3.09154203571e-08
4.16371100226e-08
6.85114550107e-08
1.19554552905e-07
2.1025257253e-07
5.03758180095e-07
1.45548239072e-06
6.05044304976e-06
7.95857046196e-06
8.25303326905e-06
8.21037357659e-06
7.95813512726e-06
7.55170323661e-06
7.02540170416e-06
6.4094638324e-06
5.74509207288e-06
5.11135526337e-06
4.6533542827e-06
4.53325927189e-06
4.80277636388e-06
3.20308459798e-08
4.40776091647e-08
7.37020352832e-08
1.25781245515e-07
2.0453854937e-07
3.31363671294e-07
7.90831267938e-07
3.43545303356e-06
7.54186248135e-06
8.2873043217e-06
8.32132644924e-06
8.07164762171e-06
7.61918043907e-06
7.00625892372e-06
6.25891566983e-06
5.40209993917e-06
4.48775649727e-06
3.66166542433e-06
3.14907154411e-06
3.01780657338e-06
3.28829263321e-08
4.60425297481e-08
7.85757879674e-08
1.33357596026e-07
2.05127679884e-07
3.01913195699e-07
6.10527555489e-07
1.44955001935e-06
5.79026583739e-06
8.04321310222e-06
8.26165612315e-06
8.05060008136e-06
7.57562116813e-06
6.89757889285e-06
6.0488138297e-06
5.06142206689e-06
4.020008991e-06
3.08211932747e-06
2.50716250762e-06
2.42013433382e-06
3.37404238997e-08
4.75766413659e-08
8.23299508569e-08
1.41168999499e-07
2.09333431543e-07
2.88456866739e-07
4.01058842834e-07
8.27845667089e-07
2.93965771516e-06
7.07786416721e-06
7.93560811618e-06
7.76708072134e-06
7.24535103815e-06
6.47182450281e-06
5.52942819752e-06
4.53081834141e-06
3.57173436794e-06
2.78810448339e-06
2.38131688959e-06
2.43821782413e-06
3.46783968463e-08
4.96164034056e-08
8.4989389297e-08
1.47046564972e-07
2.17187585907e-07
2.85439301521e-07
3.66693555152e-07
6.43248907756e-07
1.25973437384e-06
4.66232339857e-06
7.10782032084e-06
7.0438214838e-06
6.40627186171e-06
5.58169351398e-06
4.75167589667e-06
3.98866895661e-06
3.34156492161e-06
2.88160366567e-06
2.73755379725e-06
2.94844618985e-06
3.56467245841e-08
5.20853840227e-08
8.86957358643e-08
1.50583836879e-07
2.24051339616e-07
2.88443160465e-07
3.53929499678e-07
4.41643969904e-07
8.03243845323e-07
2.05763327812e-06
5.30199837147e-06
6.00619730246e-06
5.42028829891e-06
4.77071240626e-06
4.20675686681e-06
3.7574838727e-06
3.43603136152e-06
3.2782119733e-06
3.37259844117e-06
3.72168792941e-06
3.66947407877e-08
5.48789650683e-08
9.31883939792e-08
1.55248122181e-07
2.27332583158e-07
2.94204597793e-07
3.52318613052e-07
4.22026737117e-07
6.07412254076e-07
9.79902651841e-07
2.69410726254e-06
4.66158580717e-06
4.64678524389e-06
4.18435816719e-06
3.83742218565e-06
3.65420955645e-06
3.62053430325e-06
3.72955173685e-06
4.02654596976e-06
4.49014743147e-06
3.7722571023e-08
5.77140861998e-08
9.7905116876e-08
1.60188848776e-07
2.30680554712e-07
2.94639210951e-07
3.52819566814e-07
4.14856537959e-07
4.86362827096e-07
7.53223480104e-07
1.07371725485e-06
2.47759296834e-06
3.59452302399e-06
3.59007049879e-06
3.45088275708e-06
3.51880522991e-06
3.7763604723e-06
4.16359582444e-06
4.66556246486e-06
5.22875746077e-06
3.85296539513e-08
6.00179244132e-08
1.0175210406e-07
1.63719549364e-07
2.31981626759e-07
2.91875636218e-07
3.44809650463e-07
4.02421944447e-07
4.62022601306e-07
5.02555151736e-07
6.94159555923e-07
8.60020422005e-07
1.76823421687e-06
2.80623875633e-06
3.14140454294e-06
3.42455018599e-06
3.94778896535e-06
4.63851080673e-06
5.40013262671e-06
6.0984494601e-06
3.88832189094e-08
6.09743524402e-08
1.0331236723e-07
1.63996034195e-07
2.28611291793e-07
2.84019279135e-07
3.2938641463e-07
3.74912413288e-07
4.2250300287e-07
4.61844536009e-07
4.63117379666e-07
5.5262881439e-07
5.51626539863e-07
9.21545379626e-07
2.26659632765e-06
3.20595099781e-06
3.89944284503e-06
4.88351081615e-06
6.15843017316e-06
7.20248428435e-06
3.85950953672e-08
6.00052125949e-08
1.01717576661e-07
1.601065713e-07
2.20155353672e-07
2.71190524138e-07
3.11424338756e-07
3.47045749885e-07
3.79001409293e-07
4.01185761414e-07
4.07790289059e-07
3.97771704994e-07
3.81070059935e-07
4.01826996499e-07
5.7721907778e-07
1.00389199173e-06
1.47873868636e-06
1.49699799648e-06
4.22322540553e-06
7.4384580588e-06
3.77491601417e-08
5.76372723372e-08
9.72879400903e-08
1.5252289413e-07
2.08287010769e-07
2.5594125077e-07
2.94335846395e-07
3.25227186673e-07
3.47560284051e-07
3.58452392701e-07
3.58298200533e-07
3.57083765743e-07
3.70470650644e-07
4.06019830122e-07
4.52420438153e-07
4.89612977919e-07
5.29623842178e-07
6.05285976888e-07
9.83175769743e-07
3.27292277309e-06
3.66492350783e-08
5.50143253839e-08
9.12228488786e-08
1.4330063082e-07
1.96325928762e-07
2.42770344622e-07
2.80588012611e-07
3.07581047935e-07
3.20613532078e-07
3.21687540329e-07
3.19915617148e-07
3.33804031914e-07
3.86103037314e-07
4.62521700284e-07
4.98948688755e-07
4.40707834119e-07
3.78422691259e-07
3.87779319107e-07
5.36490358414e-07
1.31859231727e-06
3.56681226437e-08
5.30219800744e-08
8.63291601307e-08
1.34881373013e-07
1.87218344614e-07
2.34425277191e-07
2.71452503784e-07
2.92872838257e-07
2.97661835523e-07
2.98273258896e-07
3.18413956225e-07
3.82201198595e-07
4.51374845997e-07
4.40247499673e-07
3.40046949596e-07
2.72231053384e-07
2.61279465184e-07
2.78040233236e-07
3.99758647334e-07
1.02891425943e-06
)
;

boundaryField
{
    emptyPatch
    {
        type            empty;
    }
    minY
    {
        type            calculated;
        value           nonuniform List<scalar> 0();
    }
    maxY
    {
        type            calculated;
        value           nonuniform List<scalar> 0();
    }
    maxX
    {
        type            nutkWallFunction;
        blending        stepwise;
        value           uniform 0;
    }
    water_to_heater
    {
        type            nutkWallFunction;
        blending        stepwise;
        value           uniform 0;
    }
    procBoundary3to1
    {
        type            processor;
        value           nonuniform List<scalar> 
41
(
2.07175900755e-06
1.7479171161e-06
1.45485110544e-06
1.17418284209e-06
8.97274602642e-07
6.3717028327e-07
4.10778069705e-07
2.32793295187e-07
1.17112472056e-07
5.96620081496e-08
3.64985797009e-08
2.861798395e-08
2.84629276281e-08
5.18246674222e-06
4.65334155588e-06
4.18940549338e-06
3.76375509708e-06
3.38220035179e-06
3.01606763484e-06
2.07175900755e-06
2.6449059592e-06
3.50926781535e-08
5.19505319092e-08
8.4023404275e-08
1.30421756797e-07
1.81819471772e-07
2.29217895804e-07
2.64904719295e-07
2.80877233425e-07
2.84403514405e-07
3.07321190944e-07
3.67464862774e-07
3.97084674236e-07
3.53908600641e-07
2.86839316611e-07
2.40955011004e-07
2.2521206746e-07
2.28353695026e-07
2.56352466282e-07
3.32781879703e-07
9.42495400799e-07
)
;
    }
    procBoundary3to2
    {
        type            processor;
        value           nonuniform List<scalar> 
41
(
4.51774781331e-06
4.00330013349e-06
3.40216042533e-06
2.84736336904e-06
2.26647754473e-06
1.72574337582e-06
1.30704755082e-06
1.03042057413e-06
8.62946445161e-07
7.31408805708e-07
5.54174838901e-07
2.98604115652e-07
8.94088784782e-08
3.31137077952e-08
2.78950083251e-08
2.73858583228e-08
2.63134060148e-08
2.64036616524e-08
3.09748503488e-08
7.94575442464e-08
7.56667994022e-06
5.67537078627e-06
3.80265326383e-06
2.48400513779e-06
1.83975840616e-06
1.76025841806e-06
2.08536440271e-06
2.62067153518e-06
3.16840664477e-06
3.60508217653e-06
3.87498932965e-06
3.95622704157e-06
3.84342802084e-06
3.54898098252e-06
3.140809711e-06
2.81973261964e-06