/*--------------------------------*- C++ -*----------------------------------*\
| =========                 |                                                 |
| \\      /  F ield         | OpenFOAM: The Open Source CFD Toolbox           |
|  \\    /   O peration     | Version:  2312                                  |
|   \\  /    A nd           | Website:  www.openfoam.com                      |
|    \\/     M anipulation  |                                                 |
\*---------------------------------------------------------------------------*/
FoamFile
{
    version     2.0;
    format      ascii;
    arch        "LSB;label=32;scalar=64";
    class       volScalarField;
    location    "0.825/water";
    object      alpha.gas;
}
// * * * * * * * * * * * * * * * * * * * * * * * * * * * * * * * * * * * * * //

dimensions      [0 0 0 0 0 0 0];

internalField   nonuniform List<scalar> 
6000
(
0.168471220397
0.101614491419
0.0287312279513
0.00723976302392
0.00139964131619
0.000228412846788
3.07215906973e-05
2.51654827527e-06
5.81649429015e-08
5.19322709896e-10
2.55288961686e-12
9.84073603931e-15
1e-15
1e-15
1e-15
1e-15
1e-15
1e-15
1e-15
1e-15
0.606334485765
0.254086415719
0.105181939764
0.035931832766
0.0115793816948
0.00320431645552
0.000756042911459
0.000139094264856
1.44223221542e-05
3.30812718641e-07
1.04189430843e-09
1.64731781668e-12
2.86461794833e-15
1e-15
1e-15
1e-15
1e-15
1e-15
1e-15
1e-15
0.613294019074
0.339718518099
0.166436777239
0.0708611477002
0.0275562784485
0.00944915977721
0.00275149262372
0.000641658469904
9.74362238354e-05
5.29152678206e-06
2.49377162633e-08
2.89957896093e-11
2.9451476079e-14
1e-15
1e-15
1e-15
1e-15
1e-15
1e-15
1e-15
0.613295062351
0.419989565658
0.244011108638
0.123875860348
0.0556902336634
0.0217432672185
0.00716892979795
0.00191128068923
0.000362050336562
3.39021418776e-05
5.1473365138e-07
5.36747593437e-10
3.65805170729e-13
1.16951542066e-15
1e-15
1e-15
1e-15
1e-15
1e-15
1e-15
0.600135180862
0.469156486658
0.324522931618
0.196921368325
0.104092884061
0.0466273778609
0.0171901830167
0.00502113586481
0.00107613191181
0.000135040296457
5.14415361176e-06
9.15263829331e-09
5.49235254092e-12
3.52792658035e-15
1e-15
1e-15
1e-15
1e-15
1e-15
1e-15
0.575795477059
0.486512956095
0.384615026326
0.273875801476
0.171458224993
0.0910669908604
0.0392890716739
0.0130258953268
0.00309338797759
0.000457173457305
2.85605905851e-05
2.07857126406e-07
1.11948108505e-10
4.35104264485e-14
1.0090696738e-15
1e-15
1e-15
1e-15
1e-15
1e-15
0.553039406398
0.483679019091
0.415856473684
0.334089751795
0.241906077058
0.151645743627
0.0785488612199
0.0313608794987
0.00876886181163
0.00150845439711
0.000124176886492
2.37857927626e-06
1.59836511069e-09
4.96331245626e-13
1.11502781368e-15
1.00081365542e-15
1.00045820215e-15
1.00013924496e-15
1e-15
1e-15
0.539962689517
0.476235973203
0.426385881174
0.370302114025
0.297261982007
0.212454377163
0.129749837229
0.0633970296541
0.0221556272316
0.00472561969498
0.000493194221021
1.64376038112e-05
3.38879596802e-08
5.43636356552e-12
1.73717451748e-15
1.00189482214e-15
1.00111551664e-15
1.00057633143e-15
1.0001498206e-15
1e-15
0.52574482364
0.468492471905
0.436388615392
0.396461128339
0.337818936422
0.262793888885
0.181659635249
0.106025961308
0.046780247476
0.0130231120375
0.00180674441925
9.05834116045e-05
7.07576461307e-07
4.695587693e-11
4.2766780281e-15
1.0016852134e-15
1.00073706966e-15
1.00029350321e-15
1e-15
1e-15
0.514173821647
0.469791018528
0.451299964061
0.42123241716
0.370286120814
0.302711790106
0.22829736378
0.152952284008
0.0829149809091
0.0304096318672
0.00586833930613
0.000447074745676
8.68056571959e-06
3.55976351585e-10
4.91720988885e-14
1.00644899567e-15
1e-15
1e-15
1e-15
1e-15
0.524095488034
0.487379987833
0.47288205664
0.446369264786
0.399574066424
0.338083329872
0.270798508197
0.200400941517
0.128064186968
0.0606295825414
0.0166378690486
0.00200203504214
7.68923508934e-05
3.86337854964e-07
3.61493143671e-12
1.41423029764e-15
1e-15
1e-15
1e-15
1e-15
0.576778770126
0.520793395677
0.493777337093
0.468524391989
0.428478560744
0.373886142104
0.312169900295
0.247314592767
0.178271078697
0.104865678173
0.040654227724
0.00781842703827
0.00055689168934
9.77855869381e-06
7.47157043706e-10
8.64241881865e-14
1.00983798415e-15
1e-15
1e-15
1e-15
0.598307918973
0.534351208646
0.50301655235
0.481295374813
0.450059971481
0.404476226522
0.349186691173
0.289383218669
0.226639231676
0.157526831343
0.0825233620546
0.0248051566497
0.00310617824844
0.00011523690191
6.31365053384e-07
9.83956512915e-12
3.20246491144e-15
1e-15
1e-15
1e-15
0.595241022369
0.534697422013
0.510016183541
0.487620726576
0.457308200901
0.416271240324
0.369718971517
0.318442413739
0.265586546115
0.208259505263
0.137163137288
0.0599282396915
0.0123850516072
0.000852626715872
1.33148191058e-05
3.93196894298e-09
2.5198169298e-13
1.05649600362e-15
1e-15
1e-15
0.599493211877
0.532029634591
0.514310292629
0.490538492546
0.457337526906
0.415186025189
0.370212316335
0.330014472365
0.2904131419
0.248652709775
0.191431782527
0.109645292523
0.0341663121462
0.00396719375301
0.000118228302126
4.87636606885e-07
4.49289609243e-11
1.44221185245e-14
1.00421369897e-15
1.000428153e-15
0.595522771034
0.524864389486
0.513065445403
0.489335955492
0.453592627565
0.408783774721
0.364830236212
0.328313174296
0.301742528996
0.27566225255
0.233633782379
0.158712426097
0.0668748482201
0.0119578854753
0.000598674667496
5.62220515697e-06
2.76059239097e-09
7.24025945949e-13
1.24469258648e-15
1.00868799213e-15
0.599517806225
0.513004561485
0.503981575641
0.47965539879
0.440456665767
0.392930252997
0.350556412573
0.32158517755
0.305817852835
0.291191875782
0.259840760924
0.194047412668
0.0997353881644
0.0247812192289
0.00188330703797
2.91299380692e-05
5.07969561527e-08
2.07511520721e-11
8.36792420943e-15
1.01684914523e-15
0.595241022369
0.498332851306
0.482613029857
0.454765808645
0.413964417431
0.367054642773
0.329975199613
0.312295167058
0.307335189021
0.299907418166
0.274657405638
0.215754548896
0.12486895992
0.0388366411306
0.00405211399475
9.02259552148e-05
2.81551749033e-07
1.62944412049e-10
6.60767153188e-14
1.03676031398e-15
0.596913683816
0.484096298748
0.459362550574
0.42393590105
0.382262609303
0.340430111541
0.314123613771
0.309652915199
0.309488686646
0.306942042421
0.286048831581
0.232489471044
0.144754010093
0.0523794643514
0.00698589089954
0.000210703495014
9.94558189514e-07
6.98266215775e-10
3.00963864277e-13
1.08721454863e-15
0.595241022369
0.473727976071
0.445069744856
0.406832898055
0.366191464149
0.330442214383
0.312241582392
0.311409540427
0.315907415723
0.31688938954
0.301126741715
0.253745743272
0.168817615456
0.0696215279875
0.0117156485581
0.000496098363568
3.69891875965e-06
2.08694290137e-09
3.63705407054e-13
1.04355322737e-15
0.59080372618
0.464988514927
0.440501175999
0.406460387685
0.367076812186
0.333086006571
0.318016210635
0.32161712235
0.330265871659
0.333965687599
0.323776077737
0.287003628076
0.210052367468
0.102163175497
0.0227564213169
0.00148096961169
1.9565354436e-05
9.78495259172e-09
1.56414443918e-13
1.03401546921e-15
0.568819952791
0.46043993412
0.444177406142
0.417558893611
0.381648473628
0.349945031313
0.338356531098
0.343007415263
0.349612460271
0.349131984644
0.342097591279
0.32657570797
0.275571865838
0.167287345218
0.0522641566323
0.00549370547299
0.000135606138749
4.53696075284e-07
4.57351335799e-12
2.09875669937e-15
0.549750533824
0.472537518993
0.470750199586
0.456599136583
0.422256591454
0.387195669962
0.370951273765
0.36688731034
0.361596481279
0.349771841305
0.342612688788
0.342319992429
0.332649330756
0.255001334942
0.115994927034
0.020356198954
0.000944444813358
8.83620008234e-06
1.80866484652e-09
2.597290537e-14
0.55223539335
0.519844593349
0.532148967716
0.522451269035
0.482062057836
0.434654206932
0.404054864594
0.384326111326
0.362581621765
0.343993534475
0.336898198495
0.34094903601
0.340794330919
0.318655514082
0.204136733894
0.0589803294369
0.00505164745702
9.90107217859e-05
2.01544034418e-07
1.76390243631e-12
0.582118315651
0.582910882454
0.595661550472
0.584022925758
0.539580328883
0.480166787459
0.432366052851
0.395899894425
0.360241692351
0.32921594395
0.319456055528
0.330632742204
0.340326853471
0.339488810109
0.270401871698
0.11849358099
0.0181221855516
0.000697306779118
5.05777777875e-06
8.22009709125e-11
0.634311041764
0.619954037593
0.625113632654
0.617005122223
0.580551915625
0.517519194388
0.45565666687
0.403210872299
0.354179416112
0.31022965851
0.298672865235
0.311674159111
0.333262745676
0.338620754303
0.299331030213
0.173232407376
0.0427732153779
0.00292831275225
4.16381103827e-05
1.11243987248e-08
0.651671269526
0.627504561407
0.628333848176
0.626953065061
0.601032785216
0.541003346087
0.47094789854
0.40540298407
0.344959089713
0.297265920878
0.294977549779
0.296148519057
0.315347540199
0.330131274395
0.305968688465
0.209614559908
0.0729511026806
0.00797109702203
0.000187329267833
5.27154643228e-07
0.650938873665
0.628615584174
0.628466531523
0.628249607758
0.606077487253
0.548983119973
0.475362828217
0.402825421655
0.332312112163
0.294977549779
0.294742238518
0.294977549779
0.297092683116
0.313165432902
0.304313286915
0.235300128507
0.103145629052
0.016068153387
0.000571592827324
3.46297460574e-06
0.655086941045
0.627826576851
0.628287317284
0.628033736406
0.606618637464
0.549251786498
0.47353774294
0.392706062494
0.316138580306
0.294809487137
0.294977549779
0.294408487413
0.294977549779
0.2960967155
0.303617587833
0.258618377336
0.134254244617
0.027535035583
0.00141000408828
1.3773912753e-05
0.650938873665
0.62407383468
0.628033736406
0.627846134191
0.604047325262
0.543775082318
0.462954962393
0.374555575678
0.301710938338
0.294977549779
0.294282234481
0.294977549779
0.294163815714
0.294977549779
0.309021099276
0.286300942638
0.170079656606
0.0440608190632
0.003178972631
4.61981194266e-05
0.656040681936
0.616858449453
0.627846134191
0.624387743825
0.593353557224
0.527315194217
0.440898190016
0.350419584252
0.29519706001
0.29458798568
0.294977549779
0.293818172368
0.294977549779
0.294089494214
0.324990916413
0.317999191218
0.211166773763
0.0684527733619
0.00695018637449
0.000146136807056
0.650938873665
0.607329805256
0.620480849133
0.612046128216
0.573590978242
0.501451159056
0.411499054057
0.324030415783
0.294842896387
0.294977549779
0.29390088025
0.294977549779
0.293415116696
0.294977549779
0.340958394095
0.343970444594
0.251667760004
0.101032320719
0.0141468926801
0.000426081061217
0.656079013157
0.594815193145
0.604263377844
0.591247017127
0.546436266716
0.469455409477
0.379321337099
0.302743164482
0.294977549779
0.294130021038
0.294977549779
0.293306691894
0.294977549779
0.293511411067
0.356854141306
0.35918541907
0.284449856045
0.135611423006
0.0252684675872
0.001093713196
0.650938873665
0.580448526715
0.586611268458
0.566603917807
0.514264761701
0.433417288871
0.346208983998
0.294977549779
0.294519219961
0.294977549779
0.293455357511
0.294977549779
0.292992150742
0.312694976658
0.35918541907
0.359481812637
0.30387529948
0.164883078253
0.0394175208551
0.00243914229914
0.655362478182
0.565455507233
0.568411518248
0.539500861485
0.47834108979
0.395391154013
0.314522030626
0.294741435284
0.294977549779
0.293653453562
0.294977549779
0.292992150742
0.294977549779
0.335798195279
0.359481812637
0.35918541907
0.31304192455
0.187411035853
0.0557802335182
0.00481641877506
0.650938873665
0.551088730388
0.546641459151
0.5084433496
0.44035553402
0.359417320688
0.296148569961
0.294977549779
0.29386419458
0.294977549779
0.29303372495
0.294977549779
0.294740271386
0.356608477339
0.35918541907
0.359283725719
0.319286283386
0.209377396739
0.0753705245515
0.00865180614874
0.654429968056
0.535291733657
0.518847921346
0.473365775279
0.403827595093
0.330247713791
0.294977549779
0.294111148629
0.294977549779
0.293116515336
0.294977549779
0.293007225957
0.325515912731
0.359155856616
0.359256211991
0.358002694373
0.328770199987
0.238383419289
0.100640573651
0.0144930626954
0.650564500965
0.516778782172
0.484754234507
0.434890505052
0.37127926692
0.311649276147
0.294459777899
0.294977549779
0.293153658219
0.294977549779
0.293093773097
0.304350801568
0.337763353521
0.349790846159
0.351674326735
0.355341184778
0.345757420342
0.276389514882
0.132824133965
0.023287357018
0.652067201501
0.49707808649
0.455702644098
0.403676059503
0.350190261226
0.307289451316
0.294977549779
0.293712577853
0.304680132831
0.314341607807
0.313032037173
0.312057920552
0.31924141216
0.32273394279
0.333577240096
0.355855560523
0.368867129526
0.313989649758
0.170386065033
0.0368732487929
0.650513107168
0.479084350741
0.43972067716
0.39265851107
0.347419995017
0.314187169342
0.311064177906
0.328503241087
0.346678187758
0.336233249083
0.311071410332
0.292163206786
0.286168609437
0.292180436303
0.3176536396
0.360297003553
0.386362201039
0.34309848075
0.210840345989
0.057234202094
0.647497888717
0.4631108673
0.43486453746
0.395252072785
0.35924409601
0.345293037216
0.356889277467
0.371008603207
0.359922039783
0.328370894158
0.288029411274
0.26246315378
0.260883706261
0.272633519782
0.311227951681
0.36472523876
0.387960144745
0.362602643725
0.249675396134
0.0841661109309
0.637212199233
0.451882645684
0.437279536071
0.41623452006
0.403257950029
0.402378620649
0.404095136659
0.390388515586
0.355935198935
0.307596162583
0.262048873867
0.242691296763
0.244935585039
0.26163162948
0.308192861501
0.364929624992
0.387983863656
0.376855953201
0.282519729021
0.115241708245
0.631384923933
0.44899325744
0.448095484354
0.461539040796
0.474946662838
0.46964362385
0.444129595275
0.401954838163
0.348865286077
0.290076777956
0.245598640586
0.230470520504
0.234258778645
0.254567663861
0.305210108085
0.363382252344
0.388007582211
0.386882613072
0.308902144749
0.149069069079
0.616078018004
0.449080895587
0.462999582934
0.514399371882
0.539353646412
0.520455589757
0.472987616018
0.41084956933
0.344098954603
0.278566124083
0.234561553048
0.222410239041
0.228489413427
0.253141107712
0.302535801379
0.359917050205
0.38803130041
0.391882759544
0.330846868401
0.186710694248
0.569941869486
0.448955021175
0.476657473388
0.553111294793
0.559595530856
0.534670730048
0.478557058611
0.409789565324
0.335120166018
0.265049375264
0.223764653378
0.217539320763
0.227752005052
0.254408328817
0.301390689333
0.355932215803
0.386817460487
0.392970015439
0.351924934685
0.229245531206
0.498459034023
0.449080895587
0.494931107976
0.564604042432
0.559948660726
0.526428217374
0.465521080504
0.390309242041
0.309531294214
0.243784752888
0.213002361876
0.214449846582
0.229770913926
0.259138379341
0.301122189617
0.349492314837
0.382340131674
0.393375314038
0.378664240062
0.275690744007
0.463657332148
0.45166118493
0.534380443161
0.564461974005
0.537737388221
0.482093514768
0.41086060663
0.333650059913
0.263424850805
0.220710277585
0.209441658578
0.212752770201
0.236015904813
0.267811154245
0.299014255217
0.335338617934
0.370207111725
0.395315752043
0.406253544435
0.318934363474
0.481674708626
0.556844126844
0.569187120174
0.560333195234
0.495693861834
0.411034642583
0.330899506241
0.267290602963
0.226026558293
0.210392079339
0.209449745812
0.211386687412
0.241456557794
0.273678838205
0.291950631845
0.31007405454
0.346415302339
0.394721698689
0.40606496163
0.352101744409
0.619486552549
0.703026329733
0.627325378957
0.578325914818
0.504162823396
0.406687980065
0.314930768484
0.251624896681
0.218289993869
0.209449745812
0.209343120708
0.209831007648
0.240022661137
0.272652864733
0.280852737715
0.279818769339
0.311043929721
0.383955717754
0.406469165362
0.375931135839
0.790937001296
0.788202587109
0.720132676568
0.656785936874
0.591315908061
0.491614046402
0.370043562683
0.276098287694
0.224466291307
0.209268453978
0.209449745812
0.209405655053
0.227025926773
0.265976889043
0.269633622728
0.255893618343
0.273853927615
0.360293677017
0.40606496163
0.400003234733
0.830268099993
0.814225858507
0.78204846255
0.741891539167
0.700813378557
0.637738277775
0.519017117849
0.376908532739
0.26795872931
0.211297263158
0.20911323369
0.209449745812
0.211181274972
0.251071743638
0.26040545698
0.241838002835
0.246676126655
0.331393938168
0.406529175008
0.40606496163
0.828244131255
0.819743904997
0.799786001623
0.773953199711
0.745602086071
0.703799095523
0.623799234253
0.493339414782
0.352526615609
0.238058932013
0.209449745812
0.209111362543
0.209449745812
0.227934752766
0.250479945122
0.234785313349
0.232823815335
0.307825486684
0.40606496163
0.406582570661
0.830519275007
0.820476039069
0.800981715275
0.777059764691
0.75155593272
0.713967669969
0.648045840127
0.540803508659
0.408905002279
0.280461757224
0.209098178736
0.209449745812
0.208910800249
0.209449745812
0.2352486156
0.229864516439
0.227425157011
0.292799908476
0.406281887839
0.40606496163
0.828244131255
0.818725410335
0.797309284064
0.77356784297
0.749013314132
0.712185721772
0.647836688172
0.546182262253
0.421462038449
0.296396186131
0.211620101206
0.208992573267
0.209449745812
0.208868038112
0.214461628527
0.222871989549
0.225726609295
0.289773161821
0.404362581922
0.406579776454
0.829622564822
0.811516680398
0.784444476606
0.760196137878
0.736336546176
0.698861703265
0.634380537284
0.536471260995
0.41530591224
0.292751255189
0.213353940898
0.209449745812
0.208735750461
0.209449745812
0.208864305913
0.209449745812
0.220190293877
0.293462791484
0.403524196988
0.40606496163
0.828244131255
0.797155525379
0.761537074177
0.735496734725
0.709563904074
0.666993918404
0.597350401403
0.499784783814
0.382803701805
0.268280000952
0.210333845146
0.209150450108
0.209449745812
0.208589686482
0.209449745812
0.208555058004
0.214499903206
0.299760826244
0.40308737418
0.406499136592
0.828544667814
0.774324516151
0.73098454421
0.702992637286
0.671416658138
0.618969218043
0.539495104215
0.437005996551
0.322539765821
0.228823643954
0.209334597085
0.209449745812
0.208750111895
0.209449745812
0.208435637141
0.209449745812
0.213694461562
0.304626126691
0.401984670635
0.40606496163
0.826882623581
0.743711854999
0.696873504419
0.664369587692
0.622935453077
0.557305787911
0.466543728671
0.358750348941
0.254366431748
0.209745258835
0.209449745812
0.208903374386
0.209449745812
0.208512807335
0.209449745812
0.208331440383
0.217371003199
0.307457196326
0.39721187761
0.406496772948
0.812099035342
0.713689016698
0.661048796967
0.617347460095
0.560713059104
0.480370366333
0.380254755425
0.275979585662
0.213249169697
0.209449745812
0.208962882377
0.209449745812
0.208550874172
0.209449745812
0.208416148581
0.209449745812
0.223115719841
0.308117970468
0.388181301894
0.40606496163
0.791462178584
0.690124868774
0.620180406459
0.557358068784
0.481492486418
0.387444987216
0.286881691815
0.21773790733
0.209449745812
0.208941968882
0.209449745812
0.208522477735
0.209449745812
0.208422251704
0.209449745812
0.208367196317
0.228064375991
0.304786277873
0.375328318704
0.406161812112
0.785174141476
0.66168826455
0.56615792921
0.479330947743
0.38555846671
0.287668979159
0.219536288758
0.209449745812
0.208890381513
0.209449745812
0.208424705388
0.209449745812
0.208322999388
0.209449745812
0.208421532851
0.209449745812
0.227522666125
0.294254051342
0.361553214998
0.402765632842
0.79642596713
0.609919999167
0.487881471074
0.380974313533
0.283400613928
0.218860437871
0.209449745812
0.20880786227
0.209449745812
0.20822851721
0.209449745812
0.208144699981
0.209449745812
0.208325268572
0.209449745812
0.208570153824
0.222185827815
0.275855148703
0.345874707935
0.395838230488
0.817943826119
0.520852254741
0.383426209054
0.272588974183
0.216191034478
0.209449745812
0.208657813606
0.209449745812
0.207874440931
0.209449745812
0.207816347812
0.209449745812
0.208116050931
0.209449745812
0.208551075558
0.209449745812
0.211207249672
0.252263275388
0.325209360382
0.386030403045
0.817521271654
0.410174975771
0.275734529396
0.211385862162
0.209449745812
0.208426739003
0.209449745812
0.207325283718
0.209449745812
0.207249360357
0.209449745812
0.207762053869
0.209449745812
0.208402524008
0.209449745812
0.208803000516
0.209449745812
0.228319757069
0.29534897861
0.371088089683
0.783060263558
0.313267320929
0.214628115034
0.209449745812
0.207965814302
0.209449745812
0.206613861883
0.209449745812
0.206431860125
0.209449745812
0.207221491957
0.209449745812
0.208135367114
0.209449745812
0.208767020591
0.209449745812
0.209075483771
0.210482344764
0.258098142881
0.345592982045
0.653084718335
0.279470661444
0.210540919853
0.208261130491
0.209449745812
0.206210950772
0.209449745812
0.205741717265
0.209449745812
0.206655349227
0.209449745812
0.207840391464
0.209449745812
0.208668055211
0.209449745812
0.209042785375
0.209449745812
0.209285191306
0.223267444399
0.305620275661
0.520047451462
0.301087199194
0.244144767929
0.224215115395
0.213141696503
0.210221274368
0.21033477769
0.213896124084
0.21370729366
0.212829738382
0.209647099372
0.209449745812
0.208943503887
0.209574559196
0.211005323616
0.209725444949
0.209262513495
0.209449745812
0.209396551695
0.256313466813
0.522762616281
0.439344368071
0.399268517714
0.35684125653
0.326679491128
0.311408245006
0.301270713237
0.285892931356
0.266370427515
0.245105225719
0.227574300963
0.216429179513
0.21284331599
0.213210695555
0.213217471683
0.211698424901
0.209449745812
0.209252543045
0.209449745812
0.215893254293
0.617235671977
0.656392406589
0.631213332134
0.591648251103
0.557988854452
0.53084416946
0.489215616976
0.42519604758
0.356602299386
0.297494479506
0.251366241675
0.222385297382
0.21267339538
0.211944149908
0.212360162039
0.211728415075
0.209390007519
0.209449745812
0.209213395616
0.209449745812
0.73369165889
0.758027255987
0.743478260951
0.72749028264
0.712880823881
0.692356536716
0.650116404826
0.571007685271
0.467539047136
0.371000225845
0.290930512968
0.231349716631
0.210228061643
0.209688900475
0.210222700016
0.211036315376
0.209744472935
0.209299124371
0.209449745812
0.209207776776
0.778037270351
0.778668862954
0.767329340531
0.763255666938
0.760055725012
0.749477884666
0.720660651806
0.659285372589
0.559458734984
0.446777139016
0.343226330904
0.253362432157
0.210707154564
0.209449745812
0.209436005777
0.209872956524
0.209827937464
0.20945000911
0.209248224546
0.209449745812
0.79308585132
0.785597763696
0.774558359846
0.7737358485
0.77354238146
0.76768704744
0.747023623379
0.69935903831
0.614569697451
0.503894921511
0.389625154477
0.283875403317
0.216768745564
0.209383845804
0.209449745812
0.20940379928
0.209583821164
0.20949211094
0.209449745812
0.20926009087
0.803703227954
0.7897448645
0.778263258879
0.777983675878
0.778017562652
0.774722841268
0.758723698368
0.718044615761
0.644519616122
0.541935425831
0.426137922957
0.313032831049
0.228689992064
0.209449745812
0.209311154995
0.209449745812
0.209368932873
0.209503082846
0.209435247297
0.209428354457
0.812848785812
0.791198847745
0.77913382909
0.778863016106
0.778646072326
0.777016927502
0.763029382747
0.724867750654
0.657536854023
0.563295420352
0.451671150027
0.336508955822
0.241869638091
0.209445030469
0.209449745812
0.20925481534
0.209449745812
0.209344535234
0.209464372425
0.209401215061
0.817281567823
0.788234853816
0.776000400164
0.776628018759
0.777992848321
0.776373091888
0.762393569029
0.724365575799
0.658297356887
0.568057012892
0.460526060488
0.346153173406
0.24773761655
0.209777461377
0.209327731052
0.209449745812
0.209181796244
0.209428354457
0.209289930967
0.209352309275
0.819760444734
0.773622413684
0.761518779199
0.76526896194
0.770986676088
0.769546101461
0.755156935824
0.716769564512
0.652119605131
0.563923635492
0.457967318126
0.344196028023
0.2461125896
0.209609152985
0.209449745812
0.209161431619
0.209428354457
0.209103683477
0.209364508051
0.209217231077
0.822364017644
0.736064481425
0.727791714181
0.73687082888
0.748631327039
0.747587660973
0.732235522655
0.692784347734
0.629174508643
0.543649513774
0.439918184008
0.327728707895
0.235063529281
0.209449745812
0.209235265578
0.209449745812
0.209002274239
0.209428354457
0.209028158899
0.209349326489
0.822756648147
0.664590062116
0.672059877703
0.686402150995
0.702969512604
0.702161156736
0.685621618822
0.64505147548
0.581370460672
0.49654695445
0.394012241266
0.28672403453
0.21626918358
0.209316764548
0.209449745812
0.208953729011
0.209449745812
0.208865421986
0.209428354457
0.209734600164
0.822364017644
0.586973150795
0.601030075076
0.61113664239
0.628928037342
0.627502428243
0.609411476473
0.567681846304
0.503058481649
0.417813878458
0.318748985186
0.232847080362
0.209399598749
0.209449745812
0.208994449253
0.209449745812
0.208813807621
0.209449745812
0.21267971175
0.223778972915
0.821976558168
0.519134256358
0.527444827198
0.516449966806
0.525429572994
0.520054607089
0.498130252662
0.455217212275
0.391435436356
0.311734841984
0.237214358197
0.209599869326
0.209449745812
0.209072724116
0.209449745812
0.208819280721
0.209449745812
0.218777422194
0.228774804687
0.227845608729
0.819495719152
0.47496193947
0.463736607903
0.419507097993
0.404210728627
0.385403073682
0.355608765962
0.314325474614
0.264730074717
0.222716955222
0.209436145722
0.209449745812
0.209097660053
0.209449745812
0.208878168916
0.213894573136
0.226655723441
0.231349623588
0.230992735895
0.225172329847
0.785256593191
0.440484640739
0.413064830631
0.350435707257
0.300559351824
0.259143702516
0.230458473772
0.215681884404
0.209560905733
0.209264350372
0.209449745812
0.208905970446
0.209449745812
0.214122744417
0.225496437985
0.23268792315
0.23283784314
0.231981581573
0.226860128976
0.217261359861
0.706319501861
0.4069365398
0.379414928977
0.322377033927
0.256657333282
0.20993747787
0.209092797185
0.209449745812
0.208382054414
0.209449745812
0.208227900795
0.209449745812
0.225961856407
0.242704661297
0.240074170051
0.234039144481
0.23095465392
0.225816520056
0.216914919195
0.210954158423
0.609061197188
0.404648588504
0.381388521823
0.324957274231
0.256316521697
0.209214580276
0.209449745812
0.207825726085
0.209449745812
0.207781386997
0.218992329168
0.245045620757
0.263373488854
0.253017511313
0.237203857631
0.227857067655
0.221549969601
0.215552597237
0.210998754721
0.209661283293
0.562695206329
0.448086018832
0.428864631112
0.371694611742
0.296058097245
0.242892372591
0.22907609642
0.229412588393
0.237707435845
0.259924586115
0.288156255158
0.298208636775
0.279702278217
0.250332459226
0.22795715425
0.217781181793
0.213309493772
0.211172701083
0.210018130489
0.209550293644
0.591962402347
0.580720892163
0.564174508559
0.517184331841
0.453207754145
0.406034423726
0.386985616515
0.385249858483
0.3880099395
0.392326432353
0.380602264784
0.342963575477
0.293442289554
0.251001059292
0.223395025159
0.212755316608
0.210888897235
0.210287687168
0.209797891875
0.209583583569
0.693716956094
0.722618984141
0.698095821953
0.6719234344
0.651000379736
0.636668726003
0.628857660338
0.621677143979
0.589135689962
0.536824161076
0.474793459278
0.404056746645
0.330047972889
0.265484058766
0.224740564153
0.211207012394
0.210072061727
0.209877204805
0.209756139141
0.20971470389
0.793159181833
0.776074526458
0.738823047079
0.724967773898
0.725514420611
0.730529462464
0.731548140518
0.729058827984
0.694767689831
0.628893465686
0.551657210358
0.472091454197
0.386320803214
0.298941038162
0.232061765302
0.210641500695
0.209831366048
0.209809337481
0.209787317782
0.210019278545
0.825100003419
0.776636752569
0.747026213829
0.734190675783
0.731978106519
0.736412671908
0.738061689659
0.737794542236
0.71223048448
0.655600999194
0.583901402525
0.506060326317
0.419408470121
0.324705866859
0.240740170988
0.21029577542
0.209853247212
0.209831366048
0.209834082114
0.210464126968
0.827871751489
0.773838106973
0.752519783685
0.739153059341
0.731446494678
0.7285168082
0.728547953791
0.727142657985
0.705446153115
0.653502233123
0.585142878262
0.508587105843
0.422410829021
0.327490689765
0.241303643897
0.209955923371
0.209864340272
0.209852123809
0.20989875402
0.212350024491
0.828756861435
0.77534201488
0.75873256061
0.745553798779
0.731668010221
0.710269635212
0.692361077749
0.684640703484
0.668288923368
0.627119721653
0.567399072047
0.494117637393
0.408827441954
0.314552935775
0.233066616641
0.209902116727
0.20989265672
0.209851271346
0.210310332688
0.222106891748
0.832943537807
0.783233150859
0.765898227477
0.754446844053
0.737071580752
0.7018065924
0.642631897049
0.609562115036
0.5912252452
0.558802687693
0.508581727376
0.440824445038
0.358699111613
0.271904068478
0.215641491578
0.209936294515
0.209819539559
0.209890981148
0.212910427484
0.238382406495
0.858189469784
0.795155970384
0.772663255362
0.764184885658
0.748686109957
0.710380680511
0.62531031451
0.531359814867
0.491786019705
0.456401754077
0.407757671479
0.344099653538
0.273849148449
0.221343819321
0.209980669052
0.209844970434
0.20993587418
0.209828922294
0.21943391515
0.245543898554
0.867156479098
0.801442262845
0.776321604311
0.770264447977
0.75986161847
0.726452912027
0.635825322138
0.508756921317
0.409354209479
0.348401762047
0.290098409508
0.240692913211
0.214241936456
0.210025555905
0.20981868198
0.209980669052
0.20972602799
0.20993587418
0.220481187125
0.244623781074
0.865064561683
0.800848582237
0.776123596946
0.771196009677
0.764185907104
0.736712862066
0.654714674704
0.517791567009
0.379623218233
0.274793857394
0.218035085671
0.210044622845
0.210069487247
0.209677182757
0.210025555905
0.209534235915
0.209980669052
0.209740736946
0.215875074431
0.237271368532
0.867155933026
0.796081710244
0.771689756565
0.768500140113
0.762566719751
0.73630779976
0.660833259347
0.529274029464
0.381740702182
0.255136188055
0.210102039124
0.210114781203
0.209566650443
0.210069487247
0.209259593845
0.210025555905
0.209377813518
0.209980669052
0.21006643555
0.218851410435
0.865345664712
0.786859823723
0.757814242846
0.756506227659
0.751944941196
0.726174429503
0.653429558332
0.527229352425
0.381331876737
0.252418654342
0.210166630896
0.209739972243
0.210114781203
0.209121200402
0.210069487247
0.209022812162
0.210025555905
0.209365697808
0.210030638058
0.209915003713
0.867835212738
0.769549672052
0.731905844018
0.729084775503
0.722682961346
0.693346676163
0.622103090061
0.506461488725
0.369591143966
0.246450675818
0.210068483559