/*--------------------------------*- C++ -*----------------------------------*\
| =========                 |                                                 |
| \\      /  F ield         | OpenFOAM: The Open Source CFD Toolbox           |
|  \\    /   O peration     | Version:  2312                                  |
|   \\  /    A nd           | Website:  www.openfoam.com                      |
|    \\/     M anipulation  |                                                 |
\*---------------------------------------------------------------------------*/
FoamFile
{
    version     2.0;
    format      ascii;
    arch        "LSB;label=32;scalar=64";
    class       volScalarField;
    location    "0.28/water";
    object      alpha.gas;
}
// * * * * * * * * * * * * * * * * * * * * * * * * * * * * * * * * * * * * * //

dimensions      [0 0 0 0 0 0 0];

internalField   nonuniform List<scalar> 
6000
(
0.171706833755
0.102399596783
0.0284914477908
0.00700178545116
0.00130694137332
0.000202963879001
2.59546128714e-05
1.91350107109e-06
4.19966955679e-08
3.6492446405e-10
1.75748883198e-12
6.85128725638e-15
1e-15
1e-15
1e-15
1e-15
1e-15
1e-15
1e-15
1e-15
0.608289155167
0.258610226516
0.106490739727
0.0358028713644
0.0111825515344
0.00297077391918
0.000671266591747
0.000118341121907
1.14553640264e-05
2.35828533265e-07
7.48621161307e-10
1.19206961996e-12
2.3171721074e-15
1e-15
1e-15
1e-15
1e-15
1e-15
1e-15
1e-15
0.613304089033
0.344927870298
0.169700930246
0.0718582553525
0.0273534149492
0.00905221513255
0.00252241545722
0.000563522359155
8.20737054485e-05
4.05138850204e-06
1.84295967605e-08
2.32709721868e-11
2.57782429821e-14
1.00021548308e-15
1e-15
1e-15
1e-15
1e-15
1e-15
1e-15
0.613303650933
0.423408410877
0.247910494195
0.126401670854
0.0564887049563
0.0215722235029
0.00684192347483
0.00174448287199
0.000317123756514
2.80505582812e-05
3.5003958314e-07
4.26598653074e-10
3.600667478e-13
1.22188726613e-15
1e-15
1e-15
1e-15
1e-15
1e-15
1e-15
0.598713798702
0.471302038204
0.328136811172
0.200647884607
0.106501237333
0.0474044003433
0.0170663167989
0.0047976513464
0.000984259545704
0.000117165617996
3.8901296993e-06
7.33920131015e-09
4.84420025714e-12
4.13624234707e-15
1.000044268e-15
1e-15
1e-15
1e-15
1e-15
1e-15
0.573795158417
0.490880713019
0.39063228593
0.279653713727
0.175890647568
0.0936244200617
0.0401600805749
0.013078730751
0.00301147122688
0.000423900669703
2.42861068946e-05
1.38496916798e-07
9.42223423944e-11
5.63242553406e-14
1.02417036853e-15
1e-15
1e-15
1e-15
1e-15
1e-15
0.556018281712
0.492366106791
0.425941720875
0.342752270673
0.248539240102
0.156821169793
0.0820926368062
0.0330518477454
0.00922601868498
0.00155115966482
0.000120994277516
2.12224778821e-06
2.31235929374e-09
1.17415952283e-12
1.52616054983e-15
1.0008018332e-15
1.00030268615e-15
1.00011438311e-15
1.00003780937e-15
1e-15
0.5559397724
0.490861551582
0.437131667752
0.377767458291
0.30423214295
0.220765836096
0.138149399601
0.0693609521433
0.024830231711
0.00536448904414
0.000554508414201
1.82020022359e-05
4.91513455506e-08
2.44077698313e-11
1.05492665512e-14
1.00554692849e-15
1.00218172387e-15
1.00150813886e-15
1.00102827438e-15
1.00039204356e-15
0.553146134103
0.482296025868
0.439598718202
0.396247961845
0.342003033035
0.273316125506
0.194984479074
0.117317934007
0.053440986644
0.0154201590347
0.0022020745193
0.000111528691401
9.61662849829e-07
7.33485417939e-10
2.64298460371e-13
1.06542534976e-15
1.00515871139e-15
1.00405010162e-15
1.00312178539e-15
1.00204680436e-15
0.541184186227
0.464530200541
0.437784011889
0.409182209454
0.369689664161
0.312949962026
0.242333037848
0.16530088385
0.0915807102129
0.0348108392729
0.00696766652233
0.00052679647544
9.59406505998e-06
1.09007504111e-08
2.74759186625e-12
1.41313707461e-15
1.00569450293e-15
1.00455733697e-15
1.00363284793e-15
1.0026449759e-15
0.521629877571
0.446480031414
0.437914944465
0.423125929953
0.393678272326
0.343426229325
0.278103410037
0.205779909042
0.131944280177
0.0632812825632
0.0174194182606
0.00197734377695
6.47638433315e-05
2.45786378009e-07
7.5118840398e-11
9.30495058357e-15
1.00481064531e-15
1.00362879292e-15
1.00291004423e-15
1.00208637821e-15
0.510720911124
0.447930193893
0.446721829164
0.441562086138
0.416918857524
0.368465343878
0.306872177572
0.24126583535
0.172475490085
0.0997708194819
0.0367452339983
0.00626325257935
0.000359167488013
4.52663803926e-06
1.21844659416e-10
4.44180145555e-15
1.00146181298e-15
1.00134559049e-15
1.00119667311e-15
1.00101921106e-15
0.524575750444
0.473582876412
0.468109295785
0.462377837129
0.437673598545
0.391717608182
0.335594974222
0.277034377779
0.215235096702
0.145054055893
0.0698005764061
0.0178961870711
0.00180450598399
5.28259278232e-05
1.35754754419e-07
1.3098812017e-13
1.01768878906e-15
1.00098314137e-15
1.00096149018e-15
1.00098314137e-15
0.573447789715
0.521052570414
0.499991238459
0.484829288067
0.457724229695
0.416085626661
0.366827975915
0.314546081896
0.259504395525
0.196707629777
0.120014478982
0.0456644755764
0.00793121183547
0.000467703111751
6.05302383972e-06
5.7679634956e-10
8.43515429047e-14
1.01933814443e-15
1.00098314137e-15
1.00091069548e-15
0.610735872324
0.549595304371
0.527084126192
0.506471401199
0.476176765491
0.435544569857
0.390951705012
0.34514404308
0.297239402844
0.245401544854
0.179861018687
0.0961778981466
0.0273506362112
0.00295088439888
8.5736103434e-05
2.70179880839e-07
1.12619538748e-11
6.31302976783e-15
1.00083727524e-15
1.00098314137e-15
0.609015799765
0.55488368639
0.541254679821
0.5213114094
0.487515995162
0.442318135968
0.395757038271
0.353841138572
0.317899241799
0.280404127735
0.23366805404
0.159817992198
0.0681116984762
0.0124149324343
0.000683498522458
7.76169770323e-06
5.69750339434e-10
2.63384105809e-13
1.13372096725e-15
1.00083727524e-15
0.613284306604
0.55354807692
0.542632640671
0.523534100887
0.488562992256
0.441700508695
0.393876589946
0.351546475992
0.318368732313
0.297104301579
0.271267225331
0.216905285657
0.122336145985
0.0344282761266
0.00325080550141
7.21288466487e-05
1.5148039501e-07
1.79111095277e-11
6.28429692143e-15
1.00265523169e-15
0.60919606702
0.547794457083
0.538670147991
0.519431384561
0.483894321648
0.435102003187
0.384908762701
0.341865312416
0.313433975954
0.303222056132
0.292683579304
0.255489332173
0.170082487085
0.0654579877694
0.00964567275974
0.000355714267135
2.17582315859e-06
1.33815876546e-09
4.50592187347e-13
1.1341300513e-15
0.613158294245
0.535934428868
0.529812214726
0.507550188214
0.468696688062
0.416906767639
0.364153123253
0.320953702859
0.302465195661
0.302294598749
0.302502049423
0.277125518959
0.200844534008
0.093752575687
0.0190874782341
0.00105403411693
1.0998642576e-05
1.40455219519e-08
7.21536121061e-12
3.53354891774e-15
0.609015799765
0.521626388347
0.51533864099
0.487103326971
0.441713246495
0.385669200661
0.332064353415
0.302208625182
0.302007383671
0.302208625182
0.303882861522
0.287909016833
0.219107209868
0.113503737501
0.0285083550987
0.00212566821471
3.12194446005e-05
5.79975580629e-08
3.90676075508e-11
1.79870259198e-14
0.611779522514
0.508697662876
0.496643205338
0.461559401357
0.409556604766
0.350680597302
0.304342426097
0.301915777086
0.302216185402
0.301479603946
0.306306507965
0.297926325494
0.234614563411
0.129509041153
0.0376785355306
0.00353834501843
6.72307830741e-05
1.57943352356e-07
1.23606905367e-10
5.86583837423e-14
0.608819735491
0.49791381027
0.475194146137
0.436391087054
0.384314007198
0.329896896253
0.302005520152
0.302208625182
0.3014714963
0.302208625182
0.319590747652
0.315783217257
0.25668126796
0.152404361666
0.051155281726
0.00607049459734
0.000154037703953
5.37042610722e-07
4.2890756153e-10
1.71326221093e-13
0.609449675481
0.48703959701
0.453175136987
0.415747888792
0.371571028283
0.325500364605
0.302208625182
0.301479056518
0.302208625182
0.314821293805
0.350584825919
0.343234410182
0.294511425255
0.196365421362
0.0792864137365
0.0126037963537
0.000479344967704
2.96225296081e-06
1.48034828853e-09
2.89517943487e-13
0.606492877928
0.475035966804
0.445564481859
0.412797728433
0.372081192908
0.329041314068
0.303235336417
0.304478253587
0.32012411003
0.354626867926
0.361356357556
0.361008011982
0.340988874439
0.264994378652
0.136137171279
0.0308909410089
0.00190033219116
2.17793199379e-05
1.09544443172e-08
3.99069063948e-13
0.577974895003
0.464854715428
0.451125355667
0.425073294976
0.387668505394
0.349549341812
0.330556480666
0.338185132231
0.35922528317
0.361356357556
0.361304187191
0.361356357556
0.361192678716
0.331916294469
0.220848756313
0.073332920871
0.00752082875211
0.000166730746151
4.86260217901e-07
2.05729110501e-12
0.542710774266
0.472985274806
0.481327554653
0.469856229477
0.433653587166
0.392641812789
0.374447880437
0.37379384606
0.369797957929
0.359112090121
0.352678237572
0.35636102397
0.361084977634
0.35987524636
0.295030438819
0.141388579152
0.0245159695098
0.00104798598359
8.66952453967e-06
9.22010181158e-10
0.541390096743
0.516693399408
0.543376555117
0.541608247481
0.499623328385
0.444449528754
0.411663122904
0.391574824578
0.368117588242
0.344262365
0.329302638622
0.338160902201
0.355778228907
0.359779655475
0.333208618154
0.209823685843
0.0588960099092
0.00466615374226
7.84804539695e-05
9.25963032414e-08
0.564159043211
0.583743320325
0.608595113828
0.604417506892
0.559717311453
0.492746437601
0.440544506881
0.401570257663
0.362355529365
0.322873442478
0.303501401359
0.313559474316
0.339063086805
0.355304726434
0.338164967891
0.255123894281
0.105165912706
0.0144034691921
0.000449696358378
2.20238332913e-06
0.615499902123
0.637815475279
0.646931387393
0.641470642406
0.603149422102
0.534365540588
0.46700885247
0.41115689474
0.357097977089
0.307457707267
0.290831071447
0.296457614924
0.316698247638
0.338468545283
0.333883808252
0.282160853441
0.151492383773
0.0323323952974
0.00172741972156
1.74072734906e-05
0.680904680454
0.663048017872
0.663242502733
0.660187352746
0.630649670514
0.565922341556
0.490309737628
0.420586130131
0.354151712601
0.299800340182
0.288383523927
0.289710820518
0.299059050435
0.31596041533
0.32539608203
0.298723056783
0.193603579675
0.0580893758632
0.00488456376154
8.16283456444e-05
0.683036941498
0.668089460224
0.668329994187
0.667705359403
0.645063928206
0.585042184388
0.505865610681
0.426312128347
0.350818164552
0.295210155574
0.288099548474
0.288320058021
0.290503746161
0.30075422304
0.318228810681
0.311982706727
0.234606797533
0.0913823732328
0.0113166599308
0.00029866548616
0.687794709684
0.669047786947
0.668820678089
0.668602537319
0.649193516357
0.591796933571
0.511223727262
0.426455897751
0.344519833129
0.291659120296
0.287908385679
0.288098479902
0.288259160136
0.291996169493
0.31365543925
0.329030298395
0.273658020788
0.130631755794
0.0228117930062
0.000939108892412
0.683036941498
0.668015332204
0.668602537319
0.668137728152
0.647394852634
0.589970237956
0.508756266027
0.41963988119
0.333287373985
0.289087235396
0.287662870484
0.287829688734
0.288126639416
0.288520347887
0.312164806938
0.348609197644
0.307124266019
0.171068306901
0.0402060601545
0.00248938610023
0.688664524331
0.662420116649
0.666600570358
0.662712039571
0.636628431242
0.576844097958
0.49414557917
0.401434514949
0.317379384892
0.287888962672
0.287441857133
0.287572177689
0.287871634713
0.288168357278
0.312468508466
0.364351245302
0.330555070128
0.204898704953
0.0610922122084
0.00537385246286
0.683036941498
0.651339118149
0.656897903154
0.646816403848
0.611662033173
0.547207159513
0.463875028245
0.373042468226
0.300436968261
0.287458051441
0.287184128609
0.287396988037
0.287396139226
0.288033183613
0.317549656692
0.367963987405
0.340617626898
0.226730449948
0.0806688829191
0.00949292512682
0.688743671252
0.635316615797
0.637026305633
0.618222803243
0.572844187484
0.503808259166
0.421786538128
0.337901611557
0.289283502638
0.287074517107
0.286979611242
0.286990718745
0.287267726337
0.287762661657
0.330671774316
0.367960758305
0.342664395542
0.239052285233
0.0971077870868
0.0145261779204
0.683036941498
0.616629087057
0.605643516371
0.575381361474
0.522032730238
0.450926531206
0.372793702907
0.303557947385
0.287167669213
0.286979611242
0.286540788731
0.286979611242
0.286836822897
0.290704140842
0.34957590361
0.367960387743
0.343872032366
0.250410265691
0.113530017766
0.0206614555451
0.688704413578
0.593155193984
0.562453149212
0.51873275502
0.460780956982
0.392300161307
0.323087179434
0.287835800121
0.286979611242
0.286423898172
0.286979611242
0.286434010744
0.286979611242
0.309398833196
0.363965383693
0.367964657268
0.348375409007
0.268487357266
0.13535042062
0.0290631408093
0.683036941498
0.561436928842
0.511700368229
0.453507176756
0.394188852288
0.334828760109
0.289956789054
0.286979611242
0.286217372256
0.286979611242
0.286171463066
0.286979611242
0.288444195597
0.337220996196
0.367261204788
0.367968926702
0.359334796243
0.300046566181
0.169954496018
0.042541534217
0.686038716916
0.517957680064
0.45335201959
0.387410815171
0.333726928162
0.29219783776
0.286979611242
0.286041367308
0.286979611242
0.285796697197
0.286979611242
0.286124354702
0.301816403227
0.346739816166
0.36310227624
0.367973196046
0.374521418962
0.340996868186
0.218924011948
0.0647791515152
0.682954999618
0.460998419285
0.392699793092
0.336325415591
0.299866666201
0.286979611242
0.286041367308
0.286979611242
0.285568956428
0.286979611242
0.28584450377
0.286979611242
0.308821502411
0.338793034448
0.350978588053
0.367028864552
0.38296789148
0.373165091847
0.270976192777
0.0986639460891
0.65675686981
0.398611888837
0.353321345687
0.320320287878
0.294679829546
0.286237753353
0.286979611242
0.285585891024
0.286979611242
0.285599017108
0.286979611242
0.28770482974
0.301396433151
0.312972952018
0.333577980117
0.36537802743
0.384633812686
0.387729525529
0.314841754621
0.145861044768
0.571524387511
0.378526536953
0.353639408485
0.327470369349
0.300334461104
0.286979611242
0.285811976305
0.286979611242
0.290343148183
0.294925056849
0.287146519494
0.281126229551
0.277832925043
0.283599471336
0.315445473359
0.360495689444
0.38420647913
0.391766826278
0.351147738165
0.203718175033
0.499965122496
0.416202178542
0.407628691605
0.381907584572
0.337774841611
0.30562317505
0.300518595496
0.305971094976
0.311444585218
0.298598402618
0.278807723635
0.264263639132
0.258700942588
0.263590061596
0.292848321257
0.344731494903
0.379972203709
0.393567318545
0.391400704117
0.264001927765
0.52228163414
0.539745662507
0.535952584512
0.507768137654
0.4450418809
0.38929143565
0.358320121289
0.344069731529
0.325125892334
0.297424874162
0.271338536099
0.25525695694
0.251310945433
0.252262641755
0.265407491617
0.311202145087
0.365213557191
0.395297752157
0.397476576376
0.313854768833
0.623684623537
0.656867800878
0.646146050351
0.632858630056
0.594045498766
0.540320122374
0.472479369934
0.410179841002
0.356715234343
0.309576931513
0.274438426769
0.253970827616
0.247749535413
0.247174116506
0.247569117399
0.269044192076
0.332812056072
0.390961958493
0.397120433748
0.362866256333
0.71025449846
0.697690977903
0.693016330205
0.691199051522
0.681793373038
0.661171386524
0.609485398866
0.523064126198
0.433490269879
0.356825821898
0.293728656605
0.255621389833
0.245404486531
0.244824053749
0.243782561502
0.245649009055
0.287701876805
0.37276623539
0.397472987297
0.397245308153
0.710559964645
0.708081570913
0.709390962718
0.710021913368
0.708365974395
0.703284639699
0.683731959408
0.622357262174
0.522694746636
0.423025144129
0.330718021044
0.263338850479
0.243998928123
0.243703170516
0.243301123352
0.242950957492
0.250818221472
0.339422975598
0.397245308153
0.397851876498
0.715171134328
0.710554633732
0.71165016626
0.710177925159
0.710950009529
0.709785256196
0.703595458118
0.665659337886
0.576736366496
0.469193098266
0.362671871054
0.274950130945
0.243595177799
0.243281619411
0.243134606587
0.242597971388
0.242587475914
0.301819106836
0.397542861286
0.39730492582
0.710903448194
0.711609822477
0.710500374496
0.712185548978
0.710177552783
0.710754435949
0.70928113671
0.678917676456
0.598193079435
0.489310956657
0.376305631007
0.28054681633
0.243523598481
0.243080552295
0.242996150079
0.242458657047
0.242504325055
0.273793940791
0.390747789043
0.397857784361
0.715150213314
0.710749096722
0.712395397194
0.710500374496
0.711986887306
0.710125566304
0.709976372676
0.68245915757
0.60360127458
0.493336586364
0.377221800138
0.279322089539
0.243325509186
0.242869183509
0.242846348898
0.242501973467
0.242343506252
0.257643005057
0.376230423355
0.397447607613
0.710975773655
0.711722326669
0.710500374496
0.712083984417
0.710420146659
0.711293938596
0.709879400161
0.682150862178
0.601497859481
0.488425274154
0.368334017036
0.270393846032
0.242926552736
0.242628457129
0.242670119617
0.24237097176
0.242477098124
0.249151633288
0.363222418592
0.397902260588
0.714900384305
0.71081012784
0.712083984417
0.710428252977
0.712042857178
0.709994307461
0.710020313062
0.677097368037
0.588592223379
0.46898352317
0.345337450463
0.256470343585
0.242418682939
0.242477098124
0.24249653913
0.242477098124
0.242178958514
0.245821987058
0.354427285589
0.397625144005
0.710820634746
0.71135344315
0.710428252977
0.711966883682
0.709994307461
0.710921269264
0.709166932513
0.663756282013
0.563216458107
0.437744835156
0.315415807341
0.24594131473
0.242477098124
0.24223190851
0.242477098124
0.242238625983
0.242475567501
0.24510750276
0.349121900514
0.398114175149
0.713504388426
0.710428252977
0.711568454184
0.709994307461
0.711347055782
0.70976255954
0.702979692011
0.640826635317
0.529485944083
0.40105021088
0.285294519729
0.242903338709
0.242278690152
0.242477098124
0.242129921558
0.242475567501
0.242065522673
0.246091308025
0.347551273409
0.397712547062
0.710428252977
0.710439992675
0.709994307461
0.711070697642
0.70976255954
0.709860519072
0.68832798107
0.607639254166
0.488324139972
0.360127762225
0.260129529585
0.242343118541
0.242477098124
0.241947677484
0.242475567501
0.242032573565
0.242440586832
0.248667168589
0.348426624347
0.398128947537
0.711454312224
0.709816239587
0.710584243808
0.70976255954
0.710232372678
0.707902188584
0.661532166704
0.562367690138
0.438446143164
0.314623108427
0.245391259145
0.242477098124
0.241902871765
0.242475833868
0.241839464688
0.242440586832
0.241912479026
0.253165417368
0.351989807514
0.397821554168
0.709994307461
0.703605754774
0.70976255954
0.709857219045
0.709349227484
0.690707040013
0.615670170163
0.504096937316
0.379775763743
0.270577816493
0.242477098124
0.241971410949
0.242476397086
0.241610669579
0.242440586832
0.241835985017
0.24229741914
0.258501946011
0.356709511713
0.398035276231
0.710039045021
0.688384003807
0.708205022
0.709015275384
0.700025129448
0.648012525361
0.551493728021
0.434879325613
0.315420101663
0.245492146909
0.242162462348
0.242477076882
0.241481228804
0.242440586832
0.241584484093
0.24229741914
0.241777687535
0.264623974758
0.358955763746
0.397938503457
0.698527233542
0.66799063398
0.695678804078
0.694864440457
0.664243812461
0.58384967533
0.476498833822
0.359701678671
0.260400655938
0.242261073598
0.242477076882
0.24140690985
0.242440586832
0.241244530643
0.24229741914
0.241667309043
0.242098046728
0.269600664002
0.3588477774
0.398073248528
0.682266957273
0.642668315573
0.670525189903
0.661758998078
0.608462275859
0.511505743108
0.399661595385
0.28948433688
0.242440806318
0.242477098124
0.241421474422
0.242440586832
0.240900493714
0.24229741914
0.241344558268
0.242098046728
0.241764235114
0.271696400686
0.356052530726
0.397578914095
0.675511990348
0.611393701216
0.635292081451
0.617225182318
0.549421210873
0.443947092131
0.331739731881
0.248782026078
0.242477098124
0.24145739841
0.242440586832
0.240582764863
0.24229741914
0.24088446265
0.242098046728
0.241613778255
0.241908816364
0.269493347782
0.350561959539
0.397415039878
0.674732918909
0.570624373489
0.589458561503
0.565615458802
0.493006395245
0.387198308457
0.281802178111
0.242477098124
0.241626829666
0.242477098124
0.240365886739
0.242440586832
0.240446786923
0.24229741914
0.251006395761
0.243791312023
0.236384039594
0.260082061066
0.344635290096
0.396843281221
0.669980979337
0.522670474006
0.539445410953
0.512212740704
0.441142713814
0.342545943577
0.253134261766
0.241966138126
0.242477098124
0.240308342762
0.242477098124
0.240177187657
0.242440586832
0.271666213519
0.263923750553
0.235832599584
0.219889630058
0.246804747756
0.337877831068
0.396350987719
0.647884508268
0.48390624125
0.499021678449
0.471925865951
0.404443796429
0.312902082276
0.243899514124
0.242477098124
0.240632955322
0.242477098124
0.240071047203
0.242477098124
0.288640047084
0.297191761303
0.259164527291
0.221113833721
0.204206126549
0.232770951123
0.326462032653
0.395555230546
0.603984849491
0.478187739487
0.47838214111
0.461762217317
0.396534253098
0.303102304575
0.242504325055
0.241422261787
0.242477098124
0.240071047203
0.242477098124
0.292346765739
0.338935191125
0.298209625825
0.249939212021
0.215710713907
0.198070064395
0.216071003901
0.307106209093
0.393793663124
0.559133793437
0.478196273397
0.483312875053
0.47528815288
0.408471622613
0.309780964014
0.244883457229
0.242504325055
0.240376286992
0.250565122045
0.313539833863
0.379283735555
0.349576098196
0.294161868632
0.249829186445
0.216366094505
0.198027417308
0.200675716267
0.277479931738
0.385563821459
0.55923274549
0.501061628175
0.536704279546
0.536300219661
0.469184399308
0.361798449627
0.288044125475
0.272516962398
0.295220409872
0.370706291452
0.438936529448
0.426145286506
0.35987617003
0.299407026251
0.257592510449
0.222646476465
0.198173699218
0.197510788769
0.235322660985
0.360414324316
0.617500678819
0.595610613855
0.624341293098
0.623223061249
0.572499875066
0.478994739517
0.407373688696
0.398511778499
0.443316156184
0.512139765854
0.52862645479
0.479854629961
0.397917758443
0.325645615727
0.276765388208
0.238956398668
0.204020338738
0.197402343623
0.200688110818
0.309868869684
0.669249732323
0.657874094916
0.667682868137
0.666618651807
0.640979428572
0.582924345948
0.52877168309
0.521465661496
0.551744570625
0.594315145799
0.599910218229
0.557236152786
0.474922851307
0.380803376326
0.30745280423
0.261188630806
0.220007698279
0.197510788769
0.197374289534
0.249983839275
0.674664614426
0.668381911374
0.668772511876
0.668372597865
0.659117224617
0.621653272213
0.582457184237
0.577480484395
0.600335209307
0.638704371562
0.653293901055
0.626166371207
0.55680491928
0.451815110133
0.350294328546
0.284399312762
0.240067937301
0.199384011077
0.197510788769
0.208862534538
0.669510033924
0.667843992713
0.668372597865
0.668615113974
0.661009819043
0.627157486353
0.59514622405
0.59742906295
0.625770601775
0.660890610909
0.663151986517
0.65800122263
0.607977992575
0.508388780707
0.393225896412
0.305906021157
0.254079550048
0.208803356798
0.197312587141
0.197510788769
0.674838602848
0.662167695414
0.668615113974
0.668350508488
0.658737626276
0.624285221533
0.594973550059
0.601928858421
0.637246966801
0.663151986517
0.663624541195
0.663151986517
0.624087496369
0.530688534375
0.414552216181
0.316573316431
0.258100456529
0.217656422577
0.197510788769
0.197202275126
0.669510033924
0.651917881682
0.667168251468
0.666246479597
0.647506570531
0.610569335141
0.588086587347
0.599012131223
0.63777901664
0.663410531712
0.663151986517
0.663404180975
0.623844518245
0.530947437622
0.415316749292
0.316138391551
0.256799123412
0.218198755735
0.197416002776
0.197510788769
0.673308090885
0.639906667333
0.660123953404
0.655412241831
0.62488876179
0.582227349953
0.567775548061
0.585316457523
0.631616616996
0.662505077747
0.66341992198
0.660241564372
0.613624563892
0.51924850548
0.404301474754
0.305362788012
0.248127814407
0.214598733309
0.197510788769
0.197154390632
0.669249732323
0.62739237824
0.649860102902
0.640509647504
0.596849796389
0.542699907362
0.531722364895
0.555503668743
0.610836792372
0.649881461634
0.656284714848
0.640721157405
0.581400196964
0.482910411603
0.369388628326
0.27703055136
0.22986513293
0.205517060888
0.197420250663
0.197510788769
0.671093218891
0.612638161985
0.636856345267
0.624211259392
0.568764812217
0.499476246274
0.483602208894
0.510364867033
0.570033804061
0.613393482832
0.62101005543
0.594996503868
0.524498296302
0.421906586403
0.313880681442
0.239691194894
0.211254827504
0.198923090404
0.197510788769
0.197126849388
0.669249732323
0.596858999016
0.61993875869
0.605927735988
0.542878297352
0.461019701044
0.433781917136
0.456884850295
0.51114762058
0.551592680396
0.556012790796
0.52593840694
0.450433747431
0.349085153519
0.257327704118
0.213746710941
0.204545792916
0.198843260894
0.19739867161
0.197510788769
0.659378819059
0.587860412393
0.607210031332
0.593513835354
0.525552656267
0.436696460896
0.399816687234
0.409617732783
0.446714980179
0.477928776877
0.478389206225
0.445574852232
0.371345342054
0.282541297694
0.221450380348
0.206709026219
0.204464627864
0.199827008993
0.197510788769
0.197172261107
0.630203799121
0.587850396599
0.607119419395
0.594037158008
0.52293399136
0.431777459962
0.3905827532
0.390332148983
0.399404044567
0.413767654261
0.406494613008
0.368568815861
0.302309701654
0.238497764027
0.208989441898
0.206039012016
0.2049857394
0.200959661395
0.197435864537
0.197510788769
0.622525479405
0.60614483011
0.623912591987
0.607630893866
0.534586855368
0.442490239098
0.395258483865
0.38996627062
0.38969574019
0.383349845995
0.361029228192
0.317954427954
0.26201032845
0.219673995831
0.205734162128
0.205500583334
0.205004450989
0.201524051208
0.197510788769
0.197251311448
0.664629478019
0.675027072567
0.669120008917
0.646611481155
0.586869521222
0.502634922624
0.435446765494
0.40441614453
0.395610636212
0.382702511034
0.353311145907
0.307146075111
0.253895093084
0.214427315282
0.203650930593
0.203955039866
0.204160702024
0.201412738374
0.19747999177
0.197510788769
0.75862218758
0.748362305489
0.722292343282
0.69981600133
0.669242927111
0.61859790888
0.545014185008
0.474875100427
0.431003333725
0.398032375698
0.36042186461
0.311134772544
0.256101529999
0.214578347092
0.201202455958
0.201225497797
0.202052827688
0.200704957303
0.197510788769
0.197348803941
0.797073369507
0.772575818041
0.747987109607
0.733969976765
0.723767832553
0.704753449784
0.660201339807
0.58718131373
0.511470975459
0.448632695666
0.391860009669
0.331616012988
0.267920435389
0.217113296971
0.199177035444
0.198560879921
0.199452226461
0.199420052522
0.19766247973
0.197510788769
0.798634526002
0.772065565057
0.75198177026
0.742849011878
0.738431868528
0.727809871167
0.70119778809
0.64950155717
0.579353619052
0.506020133813
0.434321338499
0.360298603278
0.283497082964
0.220093798043
0.198057751333
0.197513046015
0.197771087578
0.198190438184
0.19784932824
0.197440638413
0.797073369507
0.764712046955
0.749833265545
0.742134721334
0.738084999939
0.727202637962
0.701258463698
0.653660187839
0.590078751554
0.519508956386
0.445255389331
0.366310943482
0.285008998515
0.218970096123
0.197539523055
0.197510788769
0.197482146657
0.19751427248
0.198858901796
0.198630889558
0.79808123699
0.746168523411
0.740269436645
0.734209675734
0.728921010589
0.71424815737
0.68527203454
0.639314326138
0.579065427428
0.510581631815
0.436499892923
0.356372897398
0.27397565084
0.210467241792
0.197510788769
0.197402733149
0.197510788769
0.19745073979
0.203475412293
0.204452529207
0.797073369507
0.721412973486
0.721565266103
0.713151659609
0.700573703342
0.674205290764
0.635991488396
0.588862327663
0.532622628606
0.467416221156
0.39392901969
0.313723237614
0.237578468298
0.198712627779
0.19740977374
0.197510788769
0.197306478966
0.201593736477
0.214948384468
0.213218491184
0.781247550586
0.694632424631
0.69740387656
0.680141587687
0.651166258779
0.605693400604
0.553356045676
0.499596254049
0.441117520189
0.375542729933
0.304945163575
0.238785366636
0.200957276902
0.197413038938
0.197510788769
0.197163990862
0.198633440476
0.218930550933
0.227570181207
0.216327980194
0.738500302992
0.664892329744
0.66945749279
0.641749253048
0.589476082935
0.521540249578
0.453345506076
0.387137626819
0.31926909617
0.256947434976
0.214287248917
0.198091928569
0.197380341742
0.197510788769
0.197033371349
0.197510788769
0.216676557745
0.23872960589
0.231818279739
0.214066523666
0.696554905119
0.621383218097
0.63281275603
0.599614428166
0.527127858626
0.437447786784
0.353219086101
0.273886772372
0.216479982497
0.198388108086
0.197510788769
0.197075550324
0.197510788769
0.196737665283
0.197510788769
0.211585166524
0.246311932928
0.244723451373
0.22900440584
0.209676884144
0.673161339566
0.556529403668
0.579056919773
0.548708870983
0.470090223428
0.366217012036
0.269367694289
0.204835294782
0.197316959553
0.197510788769
0.196627999117
0.197510788769
0.196227779704
0.197510788769
0.209209482554
0.252847105135
0.253210902551
0.24170103008
0.221132542558
0.206326988503
0.661694096093
0.474138255057
0.50559469064
0.484069499269
0.414697584077
0.311591960604
0.218918659624
0.197323632129
0.197510788769
0.196343542981
0.197510788769
0.195838621363
0.197510788769
0.214946030335
0.26275551123
0.263528458762
0.25102915415
0.230788839571
0.213747282701
0.204315777292
0.631382937629
0.410458288073
0.437147779529
0.419965490179
0.36236354375
0.269505338711
0.200108418778
0.197510788769
0.196428569987
0.197510788769
0.195836976719
0.198085583034
0.239137410717
0.282682046084
0.280771071666
0.260129118336
0.236409633645
0.219010617231
0.20922189676
0.202679361556
0.566435031302
0.407640966577
0.406985001697
0.395379923172
0.330881442912
0.246369852822
0.197695683499
0.196930459584
0.197510788769
0.198101202702
0.228407146643
0.282540734885
0.31364405733
0.300563714532
0.272083137331
0.240565962203
0.219688446523
0.211077905189
0.205923691208
0.201260846339
0.510847041873
0.411625002658
0.43202477405
0.408531030608
0.33270760231
0.251949903235
0.212903819693
0.210342480468
0.227037512894
0.275710530566
0.330543913574
0.343007733697
0.32334953048
0.287926796524
0.246324273414
0.217895581863
0.207855803555
0.205183079925
0.202992665969
0.200321204369
0.546774551821
0.536386597658
0.53912261631
0.492024714556
0.407974382103
0.337168101574
0.304416653256
0.299138889025
0.327674904292
0.362256172947
0.371381101624
0.343986055657
0.30692871421