/*--------------------------------*- C++ -*----------------------------------*\
| =========                 |                                                 |
| \\      /  F ield         | OpenFOAM: The Open Source CFD Toolbox           |
|  \\    /   O peration     | Version:  2312                                  |
|   \\  /    A nd           | Website:  www.openfoam.com                      |
|    \\/     M anipulation  |                                                 |
\*---------------------------------------------------------------------------*/
FoamFile
{
    version     2.0;
    format      ascii;
    arch        "LSB;label=32;scalar=64";
    class       volScalarField;
    location    "5.2/fluidRegion";
    object      p_rgh;
}
// * * * * * * * * * * * * * * * * * * * * * * * * * * * * * * * * * * * * * //

dimensions      [1 -1 -2 0 0 0 0];

internalField   nonuniform List<scalar> 
40
(
139704
139111
138519
137926
137334
136741
136149
135556
134964
134371
133394
132059
130717
129368
128012
126649
125277
123898
122512
121120
119721
118317
116908
115497
114082
112665
111246
109825
108403
106980
105975
105349
104722
104095
103468
102840
102212
101584
100956
100327
)
;

boundaryField
{
    inlet
    {
        type            fixedValue;
        value           uniform 140000;
    }
    outlet
    {
        type            fixedValue;
        value           uniform 100000;
    }
    fixedWalls
    {
        type            empty;
    }
}


// ************************************************************************* //
