/*--------------------------------*- C++ -*----------------------------------*\
| =========                 |                                                 |
| \\      /  F ield         | OpenFOAM: The Open Source CFD Toolbox           |
|  \\    /   O peration     | Version:  2312                                  |
|   \\  /    A nd           | Website:  www.openfoam.com                      |
|    \\/     M anipulation  |                                                 |
\*---------------------------------------------------------------------------*/
FoamFile
{
    version     2.0;
    format      ascii;
    arch        "LSB;label=32;scalar=64";
    class       volScalarField;
    location    "0.545/water";
    object      alpha.gas_0;
}
// * * * * * * * * * * * * * * * * * * * * * * * * * * * * * * * * * * * * * //

dimensions      [0 0 0 0 0 0 0];

internalField   nonuniform List<scalar> 
6000
(
0.170885010543
0.102818123487
0.0291216699912
0.00737854958925
0.0014216710863
0.000227760493398
2.96702178636e-05
2.29511489188e-06
5.08779320312e-08
4.5277022492e-10
2.29392500346e-12
9.32961025936e-15
1e-15
1e-15
1e-15
1e-15
1e-15
1e-15
1e-15
1e-15
0.613303650933
0.258343104735
0.107040450434
0.0366083549103
0.011752184851
0.00321201610264
0.000741936263677
0.000133447515763
1.37326320581e-05
3.23168462112e-07
1.12469306154e-09
1.89407606828e-12
3.26914206005e-15
1e-15
1e-15
1e-15
1e-15
1e-15
1e-15
1e-15
0.613304089033
0.343287107943
0.168828456508
0.0720078847245
0.0279804222724
0.00951950628915
0.0027252084392
0.000624284234194
9.48978806732e-05
5.306063377e-06
2.82728522159e-08
3.6600939577e-11
3.78825198402e-14
1.00050542032e-15
1e-15
1e-15
1e-15
1e-15
1e-15
1e-15
0.613303650933
0.42117485372
0.245499761559
0.124933434504
0.0563333955282
0.0219732494271
0.00717219437179
0.00188561184551
0.000357045267001
3.41940795983e-05
5.41335166533e-07
5.80691368867e-10
3.76863703244e-13
1.16359289825e-15
1e-15
1e-15
1e-15
1e-15
1e-15
1e-15
0.598492902043
0.466362730043
0.323295727775
0.197066562101
0.10476630383
0.0471347067667
0.0173371423387
0.00501714484368
0.00106945649951
0.000135104494076
5.14063373763e-06
8.47436889801e-09
4.15900846243e-12
2.7571735951e-15
1.00005064083e-15
1e-15
1e-15
1e-15
1e-15
1e-15
0.569289272648
0.481638632347
0.381521355171
0.272757111074
0.171394101723
0.0913138577559
0.0394098892652
0.0130061306767
0.00306786468185
0.000450605665387
2.76027765606e-05
1.67949467027e-07
7.6477376979e-11
2.7107311245e-14
1.00465928042e-15
1e-15
1e-15
1e-15
1e-15
1e-15
0.547946000021
0.487456227007
0.417925695543
0.33400028614
0.240838424613
0.150879964752
0.0782563611117
0.0312371927833
0.00870126556153
0.00148416816356
0.000119517801633
2.10726620774e-06
1.06011671589e-09
2.9988624466e-13
1.07231585563e-15
1.00059377175e-15
1.00054686186e-15
1.00048302544e-15
1.00044289252e-15
1.00029330805e-15
0.551077540912
0.496200678981
0.437812109551
0.373851221225
0.297065569001
0.212382032462
0.130559799042
0.0642448137541
0.0225525841274
0.00482171532134
0.000503023001651
1.67925159634e-05
2.54708536426e-08
6.31394414575e-12
2.36014638901e-15
1.00093630228e-15
1.00075164321e-15
1.00072845508e-15
1.00069244475e-15
1.00045987667e-15
0.564657165091
0.505916711115
0.455284382073
0.403774505947
0.340971870591
0.26672738902
0.186863827509
0.11060530337
0.049564089338
0.0141598100422
0.0020558365779
0.000111354613578
1.10512047434e-06
2.35066150693e-10
3.76941117752e-14
1.00558807768e-15
1.00070058846e-15
1.00070929451e-15
1.0007179387e-15
1.00053432165e-15
0.575943700089
0.512236956837
0.472113303463
0.431283385608
0.378759350769
0.313223286848
0.239788127981
0.163130494681
0.0905920326874
0.0350118941005
0.00745257696516
0.000657067716858
1.61819128725e-05
1.66013456262e-08
2.60842676587e-12
1.31941139024e-15
1.00069896414e-15
1.00081284729e-15
1.00085399077e-15
1.000718495e-15
0.579037001295
0.514561431577
0.48586288868
0.455636544213
0.412163945946
0.353651460431
0.285957485351
0.213900658231
0.140537279918
0.0712673648797
0.0222782287892
0.00319789079918
0.000149986193135
1.30629467862e-06
2.08321018348e-10
3.19720578367e-14
1.00594344372e-15
1.00134979308e-15
1.00135161068e-15
1.0011807936e-15
0.576223139233
0.513671686257
0.490308208134
0.467449920329
0.432924814962
0.382835728526
0.321879494766
0.257428757409
0.191223226481
0.120382574174
0.0526536341282
0.0118613309045
0.0009806215974
2.02984355446e-05
3.19315952768e-08
5.19113947495e-12
2.07760499877e-15
1.0028664128e-15
1.00261465193e-15
1.00212681628e-15
0.579870456982
0.509420975715
0.487555655666
0.465241098781
0.432516251026
0.389169558682
0.34063263525
0.288745615749
0.234766266604
0.172334396113
0.0972636086491
0.032020136609
0.00431521438568
0.000163223289288
1.0385494316e-06
4.87929103377e-10
1.62632962689e-13
1.05285023811e-15
1.0052613186e-15
1.00391296414e-15
0.576223139233
0.500309486743
0.482216536831
0.457801736533
0.42521716742
0.384803359876
0.344959527717
0.307049282598
0.266942564549
0.215895584887
0.144162011608
0.0632380401038
0.012834969709
0.000800505164969
1.01805543405e-05
1.27112335735e-08
6.28214049567e-12
3.4981433211e-15
1.00955344104e-15
1.00682913216e-15
0.579489381601
0.486718591013
0.471197022244
0.443091332454
0.408492405321
0.372395171992
0.341952749938
0.316595897682
0.287702950064
0.245405615808
0.180810297503
0.0965213683666
0.0269388814759
0.00252686776659
5.19660619835e-05
1.39935492837e-07
9.4769902156e-11
4.44037215764e-14
1.02626975549e-15
1.00934133199e-15
0.575943700089
0.471864941686
0.453923236418
0.42286510186
0.387897030127
0.357767542111
0.338249280694
0.32237842555
0.300306655497
0.263610010568
0.205891785852
0.124729685769
0.0436994192462
0.00567367467886
0.000172788040779
8.22266001752e-07
7.07018749052e-10
3.60631560016e-13
1.13759991349e-15
1.00957328809e-15
0.577273591348
0.460163405699
0.436013754099
0.406252759219
0.376759306358
0.353420461198
0.338997485291
0.328129125027
0.30996266181
0.277734107336
0.22699069931
0.150363343634
0.0621934464409
0.0105860711419
0.000467888541096
3.80671271431e-06
3.37945872379e-09
1.2730086944e-12
1.26502772796e-15
1.00828820343e-15
0.575482202182
0.456622585876
0.42638587804
0.401835248718
0.377168304238
0.356801345231
0.345771021519
0.337333419917
0.321611422117
0.295143264516
0.253051972946
0.181976413237
0.0876005098083
0.0195831644711
0.00134044089241
2.05122463692e-05
2.04315878818e-08
2.25111657266e-12
1.10997043922e-15
1.00461050958e-15
0.56684142799
0.45954540613
0.434275176357
0.412799437255
0.391462990121
0.373305292672
0.362068586638
0.352087912641
0.338693607802
0.320072326745
0.288560203134
0.227941448606
0.131636293984
0.0406986617879
0.00459983923017
0.0001372784877
6.32344714065e-07
4.73717508411e-12
1.46520014203e-15
1.00086835725e-15
0.547999308709
0.479698024062
0.47135616701
0.455618933463
0.43095672237
0.404784445493
0.384920296064
0.369490650971
0.355132964778
0.339335315717
0.321836261098
0.28582131918
0.205088285229
0.0905741307349
0.0169425687856
0.000948860433714
1.15505283992e-05
3.0658574793e-09
3.83462676534e-14
1.01119603929e-15
0.55602687677
0.529731998269
0.535984303606
0.52257381998
0.485517077199
0.441956153765
0.407875466813
0.382681568774
0.358947404511
0.339084707507
0.328999214146
0.326525791563
0.285663056407
0.175637408786
0.0533853532766
0.00540947672518
0.000136334809762
4.57199161252e-07
4.20050352016e-12
2.32083417854e-15
0.597948402399
0.582538573814
0.58739957997
0.574739420706
0.53326808618
0.476672126953
0.427694534083
0.389669652387
0.35694689719
0.332097542313
0.326737360831
0.326542708571
0.326489100055
0.25989427433
0.119909220015
0.02123065646
0.00103446302481
1.04732594489e-05
9.69294511551e-10
9.6304267302e-14
0.639327890573
0.603553284977
0.605092224622
0.594734085987
0.559585727871
0.50054120681
0.441163297722
0.391129750777
0.349317404275
0.315508946606
0.314098228395
0.325623325579
0.326456038453
0.301525982055
0.187653605355
0.0531868850448
0.00460855483114
9.02063779536e-05
1.76836629033e-07
6.10837772842e-12
0.640333631377
0.60707593949
0.606885420193
0.600948384216
0.569825463482
0.510361690402
0.445083575816
0.387951168519
0.334471106101
0.299459528282
0.299525968563
0.313686348006
0.326421598638
0.312862136095
0.227563520728
0.0904483767597
0.0125726188806
0.000415796146247
2.36361948012e-06
2.03669861961e-10
0.644345490699
0.606553529241
0.606694279489
0.603694812441
0.572976324909
0.511609818208
0.442861342568
0.375588153902
0.313407047763
0.297841626138
0.297965711786
0.299248076155
0.316945649285
0.310511221328
0.247051934546
0.120453133588
0.0235194964734
0.00118412555777
1.14533200386e-05
6.79631503056e-09
0.640333631377
0.603051337078
0.606489158882
0.603611170471
0.57160012129
0.507429964238
0.43114767243
0.353394514119
0.298971995918
0.297965711786
0.297443742817
0.297965711786
0.300047658082
0.304914546758
0.260392746852
0.143946331989
0.0353183231289
0.00244097952065
3.38999006049e-05
5.84727148039e-08
0.645446861693
0.595430665768
0.605115794986
0.598879106109
0.56214824029
0.492109360705
0.407460295598
0.325682581638
0.297965711786
0.297415178588
0.297965711786
0.297132467645
0.297965711786
0.303828890349
0.276645795224
0.168059731951
0.0488226229915
0.0043858900096
8.22024413505e-05
2.52167291539e-07
0.640657130277
0.5848994184
0.595494666409
0.584387529193
0.541122154195
0.46534102944
0.37711769739
0.303970972353
0.297634858462
0.297965711786
0.296785839072
0.297965711786
0.29699431725
0.316306517725
0.302970273761
0.198674458374
0.0679629268928
0.00800301215923
0.000203052152721
9.28566385378e-07
0.645626529091
0.572006837642
0.580825679174
0.563049729456
0.512374950362
0.432253641688
0.345903808383
0.297938429186
0.297965711786
0.29691697911
0.297965711786
0.296290473788
0.297965711786
0.343977135006
0.337700570841
0.240350711605
0.0985489968573
0.0153357430218
0.000532050338926
3.26387663861e-06
0.64065598581
0.558776459024
0.564711162779
0.53920197092
0.480248627712
0.397911310188
0.317885466582
0.297965711786
0.297170909759
0.297965711786
0.296179899639
0.297965711786
0.306734739209
0.360583629626
0.360246072171
0.286510429685
0.140529833184
0.0284880352318
0.00137437036284
1.13000671536e-05
0.645103631162
0.545594316302
0.546224095998
0.512948264909
0.447211791975
0.366415165984
0.300747049207
0.297517160393
0.297965711786
0.296332822111
0.297965711786
0.296037670816
0.342875164276
0.360246072171
0.360644866862
0.317394520775
0.183325596187
0.0476718235366
0.00323663103443
3.69764911609e-05
0.640333631377
0.531971499985
0.521866352742
0.482002467845
0.415260668415
0.341332531604
0.297879862031
0.297965711786
0.296634076937
0.297965711786
0.296037670816
0.304677152613
0.360246072171
0.360934945985
0.360246072171
0.333398885236
0.216867880004
0.0705787363109
0.00676412435046
0.000111654564439
0.644101433624
0.514363380332
0.490289961851
0.446003953441
0.385375619321
0.324826836062
0.297965711786
0.296987892241
0.297965711786
0.296096201708
0.297965711786
0.345819012482
0.360769788184
0.360246072171
0.360491029514
0.340329318426
0.241388699672
0.0954381349867
0.0126590342278
0.00030264914032
0.639699268705
0.491815598652
0.459768081091
0.413761088687
0.36483925758
0.321198735071
0.29752294617
0.297965711786
0.296380601884
0.303664860154
0.324146735287
0.355476593536
0.360246072171
0.360489121738
0.360246072171
0.34532298779
0.263513599697
0.12289636284
0.021538853454
0.000721103379999
0.640623204015
0.464124456412
0.435695044945
0.397760314711
0.362134006245
0.329320865554
0.315230759463
0.320215637311
0.329867146438
0.330533658864
0.32990976548
0.337718540197
0.348122853545
0.356534231439
0.359179969061
0.352622206971
0.29217899605
0.158101567163
0.034715700419
0.00155481457108
0.633147831199
0.433085884615
0.420496211824
0.397721025975
0.37342890168
0.359646307196
0.359797532167
0.359244710747
0.347103819526
0.327737325239
0.309821238984
0.305497079004
0.319027332532
0.338606865417
0.352719881746
0.363804508177
0.330268487753
0.205335806396
0.0552231916137
0.00331626375818
0.591977079113
0.41851203591
0.417989728803
0.412612532055
0.408267782799
0.399385436585
0.384173465852
0.363180289943
0.339045560189
0.305321335688
0.278440734247
0.276460478896
0.289939661944
0.315872803265
0.34830632407
0.372233176467
0.363842778889
0.257012571152
0.0871847935128
0.00745925077886
0.526162346933
0.419041108671
0.426963379688
0.457170360289
0.446523462304
0.414661538793
0.382494029223
0.352632268124
0.314847481412
0.276211623608
0.256588040152
0.257557899522
0.271387170013
0.303533816167
0.348737084034
0.375350704957
0.376855889731
0.300808257574
0.13233919852
0.0169748357828
0.471256826386
0.432065989532
0.487024829456
0.514045869623
0.465407540014
0.410472122464
0.369003909549
0.328431632505
0.286504125455
0.255283772024
0.243401646096
0.245464084595
0.26070954852
0.298355903404
0.349818579371
0.376083544664
0.378901794553
0.334126929083
0.184941899605
0.0361363469861
0.471349985963
0.523010356882
0.565973363912
0.554148783497
0.47257232857
0.399344515438
0.347299316586
0.303812161124
0.265821353813
0.241497971425
0.233167259736
0.236399344367
0.252388347573
0.292245605978
0.348352320409
0.375771370031
0.379343791076
0.356912071312
0.235015813288
0.0682556510292
0.531397202262
0.656401385104
0.625803589242
0.587449061838
0.494398144925
0.400640860129
0.337216180583
0.29154640822
0.254683390141
0.231591980268
0.223600970497
0.227016291655
0.243528162858
0.280440558592
0.339956916491
0.373803123681
0.379489380744
0.372062836882
0.276751455135
0.112254496747
0.709219937979
0.744564999348
0.685206618167
0.644194315372
0.570080076289
0.45111861999
0.352453897648
0.293998018498
0.252823806622
0.226810677776
0.22175413945
0.22175943812
0.232734759845
0.263818150292
0.322580482051
0.368150954802
0.380099465681
0.380331486487
0.310726165587
0.163014699539
0.813771681923
0.781709828025
0.737275697486
0.706619872987
0.667548411343
0.567214906227
0.419859948262
0.319232490505
0.259108003654
0.224812389095
0.221730861341
0.221650053016
0.222467088312
0.247031180777
0.300892055989
0.356863825099
0.379293809416
0.380349567906
0.338912062211
0.215223201735
0.833938749969
0.794827541962
0.765636724877
0.745208489976
0.719602270576
0.659113656747
0.516028008301
0.373338662648
0.280486863392
0.225910957757
0.221397048913
0.221721451164
0.221516969784
0.2315957085
0.280774257648
0.338997367048
0.373144905202
0.380374995584
0.362487858721
0.264494635014
0.834880846499
0.799587856861
0.77802880908
0.762345608107
0.740083577515
0.694459583207
0.585789260705
0.435298378779
0.31309228467
0.231405762419
0.221721451164
0.221071386832
0.221721451164
0.221399429412
0.264555355578
0.31750705767
0.35717231569
0.380400422749
0.380425849403
0.306677644713
0.838248225144
0.801206794714
0.783225009652
0.769030906553
0.747830748576
0.706230781436
0.618085726923
0.480993571489
0.345001068624
0.242904244784
0.221184789106
0.22162494142
0.220763363826
0.221721451164
0.253190743287
0.297836967116
0.333170922902
0.376125231133
0.394133547109
0.336318769378
0.83576950228
0.801349720878
0.785018819888
0.77109659578
0.750142896252
0.709455022641
0.628719893098
0.503082430225
0.365639692992
0.253381128843
0.22153902869
0.220848659911
0.221523253943
0.220656223992
0.249327398966
0.283087367606
0.308534466676
0.364055030762
0.402308154275
0.354263933074
0.839233727822
0.800231846036
0.784843861583
0.770604791669
0.749184685233
0.708106662726
0.628460285934
0.506929337757
0.371041335108
0.256379362969
0.221286134183
0.221380600745
0.220651100455
0.221523253943
0.248982766598
0.272645725303
0.289137436196
0.351344583034
0.405543316953
0.365830031138
0.836120698085
0.796202084983
0.781672249749
0.765942979385
0.742301336071
0.698496913585
0.618259943553
0.499872584013
0.365784955192
0.252889702512
0.221238169801
0.221015243457
0.221155121204
0.220816450393
0.250042526658
0.264969262356
0.277651850828
0.345450536838
0.405609657852
0.37375621645
0.838998948217
0.787799073701
0.771714329848
0.752555980084
0.724408172906
0.674252706586
0.589596061631
0.472640754005
0.342214772625
0.239995915652
0.221011389252
0.220911743982
0.220858626881
0.221155121204
0.24848225971
0.259139538666
0.273584894074
0.345550302524
0.405543316953
0.380076768543
0.83662527364
0.775831195336
0.75227924059
0.728000928928
0.693411161211
0.633793723533
0.541717525745
0.423459670029
0.299801251089
0.22510621304
0.220880017006
0.22068067444
0.220880017006
0.220979343506
0.243752603792
0.255774019091
0.27496128422
0.350381401672
0.405615301633
0.388414865747
0.839391249633
0.756501789546
0.721682420089
0.690900020981
0.647138809288
0.575721499577
0.475111722255
0.356436256268
0.251163034641
0.221061228237
0.22067453279
0.220678949083
0.220671786901
0.22098420432
0.237360290397
0.254814875937
0.281947837565
0.360507025198
0.405543316953
0.404956131305
0.835889711148
0.724538725437
0.677602136449
0.636197303072
0.579088667421
0.494988961349
0.388416167933
0.279649699755
0.223198836864
0.220686508451
0.220678949083
0.220406102021
0.220678949083
0.220828150089
0.232500294969
0.255988347381
0.294319838187
0.372865106392
0.405794721774
0.405543316953
0.839102747608
0.672940341023
0.615380838498
0.555753978349
0.482493608156
0.389038580412
0.289364151018
0.226712015511
0.220682134767
0.220678949083
0.220328280424
0.220678949083
0.220362872376
0.220900975176
0.232783080356
0.260833583419
0.306470775318
0.377613307525
0.405543316953
0.405794458522
0.835066380065
0.600524043772
0.528256483771
0.445950534501
0.360171190426
0.274678004847
0.225591335475
0.220660038222
0.220678949083
0.220219851749
0.220678949083
0.2202314597
0.220678949083
0.220835145999
0.235260220957
0.265179259066
0.312548528183
0.377326071181
0.40564706974
0.405543316953
0.837392196775
0.517674270688
0.417113491331
0.317306010038
0.247679224569
0.221906718576
0.220587199084
0.220678949083
0.220036517405
0.220678949083
0.220077974945
0.220678949083
0.220260640069
0.221225148153
0.239124593043
0.265452284106
0.312133727278
0.374301778909
0.404274011924
0.405670830809
0.834230243162
0.420953309533
0.295087113325
0.226326580858
0.220880017006
0.220159915939
0.220678949083
0.21950580279
0.220678949083
0.219741014633
0.220691371792
0.220093282358
0.220678949083
0.223357776709
0.239474726594
0.258706703827
0.302941531892
0.364344486636
0.400186305006
0.405543316953
0.809333291858
0.301753097793
0.22251588496
0.220880017006
0.21920509403
0.220678949083
0.21839013677
0.220678949083
0.218846895325
0.220678949083
0.219620750924
0.220678949083
0.220264100831
0.226941328977
0.234182584731
0.242269069981
0.278653929739
0.342213646827
0.390965318705
0.405599594971
0.704447907794
0.222514640462
0.220880017006
0.218436298829
0.220678949083
0.216913491969
0.220678949083
0.217403300939
0.220678949083
0.218828151092
0.220678949083
0.219930482512
0.221027651779
0.226846622561
0.225760136544
0.224701291122
0.245398342442
0.30538325696
0.372271989669
0.403973679234
0.551951341464
0.220880017006
0.218179734205
0.220678949083
0.216565582809
0.220678949083
0.216432376496
0.220678949083
0.218154605414
0.220678949083
0.219665805514
0.220678949083
0.222601779373
0.224734387327
0.220305176698
0.216835673673
0.220331557582
0.259342981063
0.337923877876
0.39558695896
0.499589573193
0.314395253672
0.285090470697
0.26314495114
0.250993998487
0.243457585049
0.239016902676
0.230941313097
0.226546844649
0.222931070064
0.221599441644
0.220836764699
0.221104799724
0.220014493195
0.218010547536
0.215461758953
0.214871050303
0.222983390044
0.286410132528
0.372543461509
0.576545704374
0.594453502237
0.541869892027
0.498327139051
0.458789658328
0.420857389923
0.363363230772
0.301415819744
0.257169074283
0.23422714018
0.223110843259
0.218373489507
0.216817356255
0.21653354677
0.216583931033
0.215288884498
0.214847769021
0.214871050303
0.234753804722
0.330021623478
0.749782195908
0.800195695779
0.764325268016
0.73003572311
0.697793567881
0.656936900452
0.579778484634
0.464298786302
0.346168902698
0.267817497374
0.229725865215
0.216948181393
0.214944146316
0.215039195961
0.215489093279
0.215265644914
0.214871050303
0.214781739792
0.215080430178
0.275804806493
0.84561241833
0.838929841375
0.817812380583
0.791414183221
0.770056077221
0.745695638813
0.698460073787
0.60928526931
0.477872204454
0.3498883919
0.259422417191
0.218560804127
0.21483912293
0.214871050303
0.214962790522
0.215235202658
0.214815005476
0.214871050303
0.214741281397
0.226483255537
0.859224160932
0.838081431098
0.820586664063
0.795213826479
0.775250285431
0.753610616052
0.716383050587
0.646006595974
0.536536984326
0.4143469414
0.301437258006
0.223627288542
0.214871050303
0.214804327533
0.214871050303
0.214938397992
0.214879769946
0.214690497078
0.214871050303
0.214658090635
0.859076894354
0.830143570954
0.814456065602
0.790449754566
0.770870904648
0.749237764214
0.712981044051
0.644567352515
0.54150035506
0.426542842546
0.314095386448
0.227181468089
0.214694683412
0.214871050303
0.214688786218
0.214871050303
0.214815816626
0.214871050303
0.214516265085
0.214871050303
0.857638065669
0.81214878722
0.796963592664
0.777052769438
0.759324062371
0.736820612255
0.69824824903
0.62769212592
0.529405297376
0.418369953812
0.307023104805
0.224405855648
0.214871050303
0.214455871174
0.214871050303
0.21456845284
0.214871050303
0.21467478781
0.214871050303
0.214218020317
0.837114312175
0.790365125507
0.77675078323
0.763846015676
0.750576960391
0.727362271032
0.682581694725
0.604668854454
0.502986508834
0.391511204947
0.281681146656
0.217095938111
0.214618147221
0.214871050303
0.21426950422
0.214871050303
0.214469878146
0.214871050303
0.214455203758
0.214871050303
0.802429588007
0.773097924911
0.762851926787
0.757169668178
0.74876035678
0.725885813023
0.676032118931
0.591424599606
0.482260387217
0.364314961466
0.256224615848
0.214863906353
0.214871050303
0.214327988033
0.214871050303
0.214167031635
0.214871050303
0.214384951711
0.214871050303
0.214107366149
0.788138351065
0.762379532357
0.754035482708
0.753405043272
0.748108959262
0.725441808678
0.672732438661
0.584429176963
0.470679517822
0.34816515507
0.243723610634
0.214871050303
0.214535908866
0.214871050303
0.21410227721
0.214871050303
0.21413548625
0.214871050303
0.214253306576
0.214871050303
0.787695877783
0.751529744387
0.74460106227
0.747320986134
0.744361781098
0.721893856238
0.66646030663
0.575598748137
0.4598116645
0.335981624948
0.236545824755
0.214734903595
0.214871050303
0.214191736164
0.214871050303
0.213996456001
0.214871050303
0.214124476154
0.214871050303
0.214050904664
0.78709830254
0.727890020472
0.726360719649
0.732889119184
0.731343125282
0.708604160619
0.650569866512
0.558015742997
0.441852261679
0.319158526064
0.228296845547
0.214871050303
0.214354029575
0.214871050303
0.213981216805
0.214871050303
0.213986214854
0.214871050303
0.214104478544
0.214871050303
0.787649488461
0.665620383174
0.687951079729
0.700923370122
0.699895148424
0.676190146519
0.616207766041
0.523244303317
0.40828016526
0.290140912981
0.218559108049
0.214620844612
0.214871050303
0.214066943575
0.214871050303
0.213940788885
0.214871050303
0.214050905464
0.214871050303
0.214071260437
0.786225252579
0.573194837217
0.624025564096
0.639964228443
0.638998707778
0.61397191014
0.553531231361
0.462006140727
0.350884057026
0.247135236157
0.214790079292
0.214871050303
0.214210565668
0.214871050303
0.213947563227
0.214871050303
0.214013071431
0.214871050303
0.214151198142
0.214871050303
0.786178555705
0.481121055412
0.538024307464
0.543597806045
0.539708463136
0.512426834703
0.453737080911
0.367272230853
0.270284283836
0.216319057043
0.214871050303
0.214301493959
0.214871050303
0.214005396283
0.214871050303
0.214432934109
0.223027890863
0.222841704875
0.215430259728
0.214563188794
0.778671923318
0.424854430852
0.445273368044
0.423326475711
0.405686904989
0.373354332956
0.31946838463
0.254417274388
0.216384381516
0.214871050303
0.214234136066
0.214871050303
0.214074345135
0.215678556838
0.225594018091
0.234197786262
0.235298141544
0.228050018571
0.217170624045
0.214871050303
0.727692118151
0.403017441833
0.369319280458
0.315381659116
0.275183367998
0.241132035994
0.219841763432
0.21465281031
0.214871050303
0.213751564764
0.214871050303
0.213828501725
0.225206149095
0.240479601001
0.243003429195
0.241005958337
0.235787302078
0.226510787075
0.217556287641
0.21481428504
0.631476806742
0.388017773531
0.33841232939
0.278048843157
0.225827913877
0.214871050303
0.213652647608
0.214871050303
0.212728217127
0.214871050303
0.213166870433
0.238562504618
0.25754966785
0.252219698163
0.243824378575
0.238518946405
0.232450247713
0.224587765833
0.21831672166
0.215415587596
0.548028973955
0.401665232219
0.353849211819
0.291069689758
0.235415111906
0.213839428513
0.214871050303
0.213032412282
0.22223051398
0.240640896441
0.265267981852
0.278260471996
0.266308229428
0.248356098845
0.237379024042
0.231410130798
0.227482450947
0.223219580017
0.218887081667
0.216494132681
0.556502694971
0.49982723016
0.459032149313
0.394701676972
0.33091200643
0.297268435108
0.296322259751
0.318078800256
0.347080984269
0.361136053484
0.347127801953
0.308336838879
0.269582877729
0.242675986778
0.227219385941
0.223020288652
0.222240588275
0.221160451149
0.218649301657
0.216940657179
0.653426650571
0.690704060331
0.666459549299
0.620210787445
0.572122518641
0.547751070222
0.556285739139
0.579814428363
0.5898222188
0.549372032132
0.465506381211
0.370161326969
0.294478171521
0.246250657183
0.220833101016
0.216984667807
0.217312847462
0.217912277837
0.217536065785
0.216813036605
0.795049097322
0.821160493623
0.796052508891
0.77161986694
0.756351118383
0.75226349249
0.758731921417
0.763809813617
0.752926620232
0.700806543321
0.601815584389
0.477534343978
0.361210107572
0.269656221328
0.218734865192
0.21488976324
0.214946140712
0.215297497598
0.215807815825
0.216299329888
0.867247178301
0.843057298346
0.817810222759
0.803035193571
0.801607285951
0.80580142046
0.810030213589
0.808984529869
0.79568294176
0.754243946761
0.671032598194
0.550392501957
0.420129957872
0.300944151938
0.218643317801
0.214824570964
0.214871050303
0.214833279373
0.214871312981
0.21536410953
0.875248289299
0.835447380628
0.815903595971
0.803430595188
0.805244321455
0.812595546698
0.814437002889
0.814400364603
0.801198873182
0.761251458961
0.682981105525
0.566667695538
0.435199020109
0.308187247057
0.219173878076
0.214871050303
0.214645875909
0.214871050303
0.214755659428
0.214882315829
0.875315551484
0.809683352563
0.80143177471
0.79618071035
0.802489226248
0.812293951062
0.814451592757
0.813904768099
0.79894807365
0.757109970937
0.677782104444
0.561977382057
0.429751934055
0.299198498112
0.216936732285
0.214618073832
0.214871050303
0.21440871222
0.214871050303
0.21466772609
0.851239486235
0.768159646826
0.77211249214
0.780013691206
0.794347249375
0.80713220401
0.810824055425
0.806286127729
0.785541322658
0.736875141184
0.651914619912
0.534508893619
0.399748475506
0.267992178748
0.214839585327
0.214871050303
0.214240160558
0.214871050303
0.214206280559
0.214871050303
0.786528057647
0.719961193198
0.736511800272
0.762870382062
0.784156725382
0.795132710212
0.796066897995
0.785079259895
0.754983728652
0.696175066528
0.60359326346
0.482806316735
0.345941304269
0.231268524375
0.214871050303
0.214317114552
0.214871050303
0.213853448526
0.214871050303
0.21410589894
0.724746658433
0.660473184249
0.70217683395
0.748052523166
0.772237265852
0.775655518745
0.768093676783
0.746626038047
0.705269683199
0.636923486357
0.538479062797
0.414983382188
0.282558971456
0.215302191295
0.2145510918
0.214871050303
0.213764870683
0.214871050303
0.21362042031
0.214871050303
0.675935688635
0.60905025456
0.671655171871
0.733417396652
0.754951379211
0.746372180291
0.721483382203
0.685050760634
0.63246200469
0.55672635298
0.454847173627
0.33335635029
0.229949647848
0.214703213225
0.214871050303
0.213822352764
0.214871050303
0.21329965888
0.214871050303
0.228305494948
0.631581127041
0.58721152858
0.646811488078
0.715591141877
0.730044354228
0.70223799056
0.647805683003
0.594198506657
0.531593390816
0.45108383467
0.351784652429
0.251232811894
0.214826618515
0.214871050303
0.213945526419
0.214871050303
0.213228133881
0.214871050303
0.232887289102
0.301966770708
0.597121839976
0.586277099447
0.620911894892
0.69058634896
0.697574305049
0.646873303051
0.555464440819
0.479289639466
0.407957022331
0.329284183414
0.252748308444
0.215430991482
0.214871050303
0.214071230288
0.214871050303
0.213228133881
0.214871050303
0.248897289555
0.314437035414
0.341397888134
0.587005740944
0.58721152858
0.598670215065
0.666507621682
0.669260185475
0.605682718873
0.486810788155
0.386684259964
0.313066145997
0.253788435756
0.215749015815
0.214871050303
0.214137679017
0.214871050303
0.213479227649
0.214871050303
0.274464184793
0.349804480298
0.337598774161
0.341818863649
0.58721152858
0.585316496776
0.60035019477
0.661600671635
0.66101408112
0.603755016986
0.486949393706
0.381444183194
0.307319438004
0.25429387034
0.223281723299
0.216698380358
0.214871050303
0.21648425703
0.244915345366
0.323017705224
0.399160107496
0.37333995247
0.333119923813
0.341102374449
0.586435001954
0.592276395864
0.640412042458
0.676783359425
0.671748073293
0.628599085255
0.540692054896
0.445035773397
0.372002972664
0.325035658329
0.30198391503
0.291944352736
0.293771440849
0.326596027182
0.404461005146
0.475345862346
0.451723140174
0.373912276325
0.329360117963
0.345226167879
0.634878819015
0.671772623541
0.702194259583
0.708446585657
0.703964480106
0.690391944347
0.660889427111
0.615279145557
0.569538189298
0.5378922715
0.522216546025
0.513778129888
0.516021191065
0.542524214957
0.571693245253
0.553567716319
0.478101633499
0.382798280185
0.329213105977
0.353237357318
0.722622268259
0.731874892299
0.730540736187
0.73072779993
0.736600093068
0.747516285845
0.752373752326
0.748332438134
0.738901136756
0.730760057365
0.723915244611
0.716729021027
0.704782633962
0.690407419367
0.655708797727
0.594336544264
0.50638157525
0.404931796402
0.33530128388
0.355691666006
0.744227762049
0.735704051956
0.726900068298
0.729293040218
0.745752744365
0.762243763168
0.764179558716
0.762243763168
0.764022913476
0.762243763168
0.763228877821
0.762243763168