/*--------------------------------*- C++ -*----------------------------------*\
| =========                 |                                                 |
| \\      /  F ield         | OpenFOAM: The Open Source CFD Toolbox           |
|  \\    /   O peration     | Version:  2312                                  |
|   \\  /    A nd           | Website:  www.openfoam.com                      |
|    \\/     M anipulation  |                                                 |
\*---------------------------------------------------------------------------*/
FoamFile
{
    version     2.0;
    format      ascii;
    arch        "LSB;label=32;scalar=64";
    class       volVectorField;
    location    "0.07/water";
    object      U.gas;
}
// * * * * * * * * * * * * * * * * * * * * * * * * * * * * * * * * * * * * * //

dimensions      [0 1 -1 0 0 0 0];

internalField   nonuniform List<vector> 
1497
(
(0.145052311044 1.15829340613 0)
(0.158586360033 1.01147698705 0)
(0.168351128211 0.912073143289 0)
(0.172055569745 0.848699993748 0)
(0.168409777233 0.805615188066 0)
(0.158735752998 0.77017468778 0)
(0.146980045894 0.72887965357 0)
(0.138998067983 0.684975119337 0)
(0.137255336578 0.6570626876 0)
(0.1380910567 0.641317668912 0)
(0.136037511014 0.632287131384 0)
(0.129289031394 0.626345880252 0)
(0.119173845712 0.621954402912 0)
(0.0392682556766 1.4431894154 0)
(0.0701366857028 1.31984516116 0)
(0.0543988368568 1.37828222743 0)
(0.0547179644709 1.68499678544 0)
(0.0744793560959 1.7143263666 0)
(0.0989250861053 1.53144152289 0)
(0.121798859023 1.32493339292 0)
(0.140778052292 1.15148529734 0)
(0.155847045876 1.02135749706 0)
(0.165440948235 0.932585450495 0)
(0.16735779959 0.874179236669 0)
(0.162401552778 0.831842191345 0)
(0.152245012355 0.795510111629 0)
(0.140250003779 0.751773746581 0)
(0.13230214674 0.70761688396 0)
(0.130757079802 0.680429806631 0)
(0.131262691982 0.664622060152 0)
(0.128250462542 0.654828717654 0)
(0.120836373102 0.647725310665 0)
(0.110693428302 0.642141664131 0)
(0.0404655185613 1.51294054828 0)
(0.0727528095496 1.38985628481 0)
(0.0560915176745 1.42981156922 0)
(0.0508170490259 1.64075449584 0)
(0.0640860294693 1.64395289055 0)
(0.0864737914565 1.47585431547 0)
(0.110140303911 1.29374004806 0)
(0.130712977097 1.14200260414 0)
(0.146254334026 1.02846289239 0)
(0.154195313694 0.951616891891 0)
(0.154665881463 0.898915285189 0)
(0.150147898337 0.858125595709 0)
(0.140912507108 0.82060887791 0)
(0.129322600787 0.773867988797 0)
(0.121515973993 0.729036553152 0)
(0.119941491021 0.701904969732 0)
(0.119674856454 0.685813361272 0)
(0.115654180144 0.675155687801 0)
(0.1080126901 0.666984435866 0)
(0.0983859036249 0.660338046564 0)
(0.0448581474196 1.56532029653 0)
(0.0817914340146 1.45170987552 0)
(0.0636448583329 1.48720979133 0)
(0.0526432015833 1.62865719888 0)
(0.0585560363227 1.59705283271 0)
(0.0761098762162 1.43150608666 0)
(0.0979726965304 1.26444749832 0)
(0.117802633945 1.13001247089 0)
(0.131381370175 1.03222420003 0)
(0.137242549778 0.967051995517 0)
(0.138160906536 0.920511593659 0)
(0.135522084636 0.882441438747 0)
(0.127534217066 0.844312223447 0)
(0.116124338354 0.793872744158 0)
(0.108106145659 0.747087960853 0)
(0.105976450582 0.719512271037 0)
(0.10440399767 0.703043410029 0)
(0.0994070250602 0.691701008212 0)
(0.0919712575964 0.682794100722 0)
(0.0833086404687 0.67538568706 0)
(0.0478534826705 1.59647331406 0)
(0.0877257393985 1.50120488414 0)
(0.0704613347092 1.54136972046 0)
(0.0588615012367 1.63578161366 0)
(0.0600594870828 1.57284713232 0)
(0.0715898003874 1.40264859388 0)
(0.0887839860055 1.24224941858 0)
(0.104934512374 1.11908456765 0)
(0.115335679709 1.0342769461 0)
(0.120634556613 0.978856648744 0)
(0.123409674241 0.938546491296 0)
(0.12266961473 0.904561730404 0)
(0.115045154194 0.867607294244 0)
(0.10280662133 0.811688829055 0)
(0.0939592717283 0.760714057954 0)
(0.0904134544557 0.731960208882 0)
(0.0870032666224 0.715052181973 0)
(0.0811650266679 0.703404162705 0)
(0.0742936584612 0.694225817623 0)
(0.066919588488 0.686484551642 0)
(0.0498027826661 1.61483548199 0)
(0.0912980222594 1.5402366938 0)
(0.0756200269984 1.5811284513 0)
(0.0661570059644 1.64652476526 0)
(0.0653766035108 1.56602789428 0)
(0.0717724439799 1.3911787157 0)
(0.0836866410582 1.23163076819 0)
(0.0956835080772 1.11356760093 0)
(0.104149828336 1.03695014916 0)
(0.110354869108 0.988606409883 0)
(0.115297327869 0.954473493071 0)
(0.115593253377 0.927033354539 0)
(0.105482764421 0.892640419394 0)
(0.0900650466416 0.827923176588 0)
(0.0798747912893 0.769354076658 0)
(0.0745891478743 0.738529463443 0)
(0.0692796234557 0.721232878317 0)
(0.0628988481694 0.709768947547 0)
(0.0568398031803 0.700856024209 0)
(0.0509154582241 0.693313800824 0)
(0.0512165790667 1.61993947837 0)
(0.0940789242928 1.56987670034 0)
(0.0806434951942 1.60337152938 0)
(0.0743906781749 1.65050213439 0)
(0.0733835078464 1.56935225773 0)
(0.0763325546399 1.39494511669 0)
(0.0839549283516 1.23376073316 0)
(0.0930596113269 1.11588129826 0)
(0.101200643668 1.04179571575 0)
(0.109182224167 0.997832527578 0)
(0.116138959218 0.970330231183 0)
(0.113021990498 0.951420624324 0)
(0.0957982387174 0.917450391691 0)
(0.0777554249291 0.84176398871 0)
(0.0674929907181 0.772178409332 0)
(0.0607250810076 0.738765088573 0)
(0.0537051995578 0.721452570351 0)
(0.0469574852423 0.710836754446 0)
(0.0416976001027 0.702843414849 0)
(0.0371074087514 0.696114023194 0)
(0.049904283819 1.6183583111 0)
(0.0926944891723 1.58837459782 0)
(0.0832153581455 1.60616710758 0)
(0.0815110778771 1.63983093531 0)
(0.0827293546002 1.57128900794 0)
(0.0848655066 1.4055032433 0)
(0.0900436547538 1.2438742408 0)
(0.0977691065393 1.12391093274 0)
(0.106415772495 1.04836949488 0)
(0.115546946914 1.00652908561 0)
(0.118606024379 0.985219655621 0)
(0.105738030764 0.97352185323 0)
(0.0849193272342 0.936658941617 0)
(0.0698820220067 0.851561411411 0)
(0.0605523256439 0.769705891012 0)
(0.0525235380748 0.733433640013 0)
(0.0439280877591 0.7165810873 0)
(0.0364196199337 0.707523325336 0)
(0.0312698834584 0.701127758884 0)
(0.027325345066 0.695789403174 0)
(0.0506772409995 1.61114864845 0)
(0.0965705810681 1.58922803993 0)
(0.0901803464255 1.59235648107 0)
(0.0894565551643 1.61568988156 0)
(0.0912253947182 1.56456709529 0)
(0.0938642448903 1.41315456454 0)
(0.0991744476448 1.25423230798 0)
(0.107156532286 1.13316535163 0)
(0.115580432093 1.05572642898 0)
(0.120319382937 1.0143898815 0)
(0.11384562515 0.997712514982 0)
(0.0968748113711 0.990214079581 0)
(0.080896852166 0.949888402336 0)
(0.0699021950302 0.858806570451 0)
(0.0611024209913 0.766527437424 0)
(0.0523632280298 0.726448398733 0)
(0.0425616432267 0.709811437983 0)
(0.0336078850882 0.702328155304 0)
(0.0273206150529 0.697703571591 0)
(0.0228116691501 0.693949130681 0)
(0.0509887628645 1.59662005313 0)
(0.0984751004457 1.57498155052 0)
(0.0930301578081 1.57186484084 0)
(0.091109305681 1.58905410709 0)
(0.091887150094 1.55322150703 0)
(0.0952838676931 1.41528751716 0)
(0.102501459736 1.26065231861 0)
(0.111616921769 1.14089112299 0)
(0.118444859592 1.06404822008 0)
(0.118631610937 1.02377376822 0)
(0.109889769875 1.01106172257 0)
(0.0967027540257 1.0054799738 0)
(0.0849126393636 0.962452318365 0)
(0.0749693227049 0.867665729321 0)
(0.0661970683669 0.767934752779 0)
(0.0575390486316 0.722788039998 0)
(0.0474575219992 0.705320052732 0)
(0.0371726539053 0.69848689902 0)
(0.0290937273089 0.695024440281 0)
(0.0231166082273 0.692456671737 0)
(0.0507101054327 1.58293093402 0)
(0.0978189817484 1.55793865345 0)
(0.0917114142733 1.55356148589 0)
(0.0881361709655 1.56836866408 0)
(0.087224206161 1.54418846625 0)
(0.0903588506087 1.41552650004 0)
(0.098551737 1.26449270348 0)
(0.108453450984 1.14746710748 0)
(0.115444879087 1.07377568325 0)
(0.116552173844 1.03638344834 0)
(0.110738470075 1.02731815177 0)
(0.100483846093 1.02249735992 0)
(0.0896492576215 0.977335291799 0)
(0.0797808227067 0.879572939349 0)
(0.0712370855252 0.774375162066 0)
(0.0632422427761 0.72407155321 0)
(0.0537433996875 0.704913062127 0)
(0.0430194201036 0.697709156109 0)
(0.0335968492627 0.694550501552 0)
(0.0261562405146 0.69251308749 0)
(0.0493695872183 1.57154153561 0)
(0.0954000192399 1.54264498187 0)
(0.0891177598039 1.54039166182 0)
(0.0844415928256 1.55536313113 0)
(0.0826440043219 1.53945582664 0)
(0.0855750372573 1.41644669723 0)
(0.0938844925004 1.26779557943 0)
(0.104198820028 1.1535423578 0)
(0.112348627753 1.08366030272 0)
(0.115397887894 1.04962149808 0)
(0.1114331544 1.0437297589 0)
(0.10216139441 1.03975807603 0)
(0.0917082637118 0.992971258685 0)
(0.0822687666951 0.892423668192 0)
(0.0743275689863 0.783044371603 0)
(0.0671558073842 0.728579375491 0)
(0.0585691586808 0.707614399246 0)
(0.0481534604808 0.699592690323 0)
(0.038187336031 0.696218918243 0)
(0.0298254528643 0.694244742868 0)
(0.0470544798435 1.56720500322 0)
(0.0904256147093 1.53217349072 0)
(0.084135357657 1.53059603294 0)
(0.0800069478289 1.54647548179 0)
(0.0786523216989 1.53610828064 0)
(0.0820300638622 1.41699050351 0)
(0.0907381481089 1.27026856453 0)
(0.101490798187 1.15852077691 0)
(0.110341476405 1.09215276024 0)
(0.114304745683 1.06120200327 0)
(0.111013552998 1.05842312126 0)
(0.10205857262 1.05573945353 0)
(0.0919373345257 1.00751127086 0)
(0.0830846937033 0.904134472149 0)
(0.0758522043871 0.791649448776 0)
(0.0694338022986 0.734211041681 0)
(0.0616963217773 0.711784900649 0)
(0.0518544886164 0.702970913826 0)
(0.0418666248072 0.699251871708 0)
(0.0330885316707 0.697164858682 0)
(0.0477751695499 1.56706412012 0)
(0.0925285973169 1.52426366874 0)
(0.086017580222 1.52340404486 0)
(0.0804370838282 1.54040822342 0)
(0.0781396196477 1.53377014593 0)
(0.081019301063 1.4172570005 0)
(0.0896530477651 1.27219122251 0)
(0.100568294593 1.16273254501 0)
(0.109764415891 1.09954792903 0)
(0.114096044366 1.07155996251 0)
(0.110795175594 1.07197139398 0)
(0.101572820797 1.07067283091 0)
(0.0915049766041 1.0205613036 0)
(0.0831847140157 0.914060059903 0)
(0.0766222720823 0.799250354908 0)
(0.0708313241114 0.739863256896 0)
(0.063770871563 0.716398078793 0)
(0.0544963640902 0.706983118788 0)
(0.0446977527436 0.702975054317 0)
(0.0357875714699 0.700768242885 0)
(0.04821093684 1.5634738595 0)
(0.0938286807029 1.513657715 0)
(0.0875325015488 1.51751284702 0)
(0.0814103709566 1.53679774507 0)
(0.0784893047695 1.53294109862 0)
(0.0810380798793 1.41767347835 0)
(0.0897104236792 1.27399333859 0)
(0.100786667031 1.16678823789 0)
(0.110248346813 1.10655226823 0)
(0.114616886522 1.08158908473 0)
(0.110713789176 1.08521038771 0)
(0.100825315575 1.08498706247 0)
(0.0908153761336 1.03217023897 0)
(0.0831212793108 0.922245235842 0)
(0.0771778853101 0.805721563515 0)
(0.0718885977092 0.745175162965 0)
(0.0653663586004 0.721044512952 0)
(0.0565861703191 0.711236370455 0)
(0.0470257446772 0.707043110972 0)
(0.0380986414006 0.704764995791 0)
(0.0483543047718 1.55796983079 0)
(0.0947059427423 1.50070397496 0)
(0.0886940775177 1.51155126692 0)
(0.0819596953644 1.53432730691 0)
(0.0787287618488 1.53237853191 0)
(0.0814118383647 1.41737361193 0)
(0.0903669357827 1.27524741969 0)
(0.101688510164 1.17066167294 0)
(0.1112511689 1.11347204981 0)
(0.115098833511 1.09173764555 0)
(0.109958838713 1.09872487224 0)
(0.0997502997375 1.09849285159 0)
(0.0905263470868 1.04257688753 0)
(0.0834806932822 0.92910540934 0)
(0.0779676470387 0.811320690821 0)
(0.0730326542814 0.750209184681 0)
(0.0669155801136 0.72571016542 0)
(0.0585222289852 0.715674543012 0)
(0.049159570734 0.711380374801 0)
(0.0402251248233 0.709071324782 0)
(0.0476646559132 1.55069220202 0)
(0.0933880778863 1.48666233765 0)
(0.0873956876092 1.50622130381 0)
(0.0806324927998 1.53345470174 0)
(0.0776916104022 1.53144326689 0)
(0.0811309696441 1.41558266151 0)
(0.090868179589 1.27552501141 0)
(0.10260876473 1.1742693334 0)
(0.111975212013 1.12051044623 0)
(0.114826422329 1.10232444263 0)
(0.108839340959 1.1131404854 0)
(0.0992114064983 1.11096728169 0)
(0.0908636622872 1.05204269697 0)
(0.0841253733852 0.935095686368 0)
(0.0789638725657 0.816375063031 0)
(0.0743533957969 0.755219918399 0)
(0.0685549539914 0.730579617557 0)
(0.0604521626855 0.720419955101 0)
(0.0512215192539 0.716061656204 0)
(0.0422487147467 0.71372559741 0)
(0.0451080984814 1.5500090639 0)
(0.087942077065 1.47626905761 0)
(0.0818637402522 1.50184530599 0)
(0.0757575943437 1.53337280749 0)
(0.0740528150847 1.52855718688 0)
(0.0791519038552 1.41110200213 0)
(0.0902031198682 1.27416513815 0)
(0.102505812768 1.17733459399 0)
(0.11171292837 1.12748512023 0)
(0.113999178551 1.1132845541 0)
(0.107971544594 1.12822293833 0)
(0.0989343667832 1.12264114477 0)
(0.0909834501082 1.06049985284 0)
(0.0845570523399 0.940224547544 0)
(0.0798508728575 0.82098711195 0)
(0.0756404591155 0.760390445294 0)
(0.0701548485702 0.735810205769 0)
(0.0622845005727 0.725591424343 0)
(0.0531365634368 0.721172957255 0)
(0.0441022308156 0.718786824343 0)
(0.0453901373173 1.55545787317 0)
(0.0883432122088 1.47043628461 0)
(0.0812926893495 1.4996652948 0)
(0.0740997727216 1.53475406916 0)
(0.0721306088038 1.52473149417 0)
(0.0776393558384 1.40467016941 0)
(0.0893378535984 1.27153373487 0)
(0.10192567725 1.18014262278 0)
(0.11107591844 1.13445591813 0)
(0.1130886253 1.12447114166 0)
(0.107183941528 1.1433035453 0)
(0.098585768521 1.13406141772 0)
(0.0908333050613 1.06813283836 0)
(0.0847321353195 0.944484063121 0)
(0.0805164035246 0.825233150422 0)
(0.0766993399209 0.765841115322 0)
(0.0714984438069 0.741490631311 0)
(0.0638197104821 0.731249294293 0)
(0.0547351490175 0.726751292648 0)
(0.0456390096359 0.724275231473 0)
(0.0457667105517 1.55977608045 0)
(0.0890741772222 1.46635647468 0)
(0.0814687104744 1.50009264776 0)
(0.0734173895782 1.5386522991 0)
(0.0710252213496 1.52221097474 0)
(0.0765488338464 1.39826259322 0)
(0.0884160489018 1.26874520442 0)
(0.101053333501 1.18333905489 0)
(0.110107014878 1.14177671942 0)
(0.111924295903 1.13590802678 0)
(0.106202015818 1.15816006999 0)
(0.0979198765962 1.14557617376 0)
(0.0903079701511 1.07515598838 0)
(0.0846007941252 0.948009852732 0)
(0.0808491749856 0.829249770105 0)
(0.0773326521557 0.771615694683 0)
(0.0723407929788 0.747634084298 0)
(0.0648092586406 0.737387215497 0)
(0.0557871689412 0.732771303111 0)
(0.0466654118383 0.730150776934 0)
(0.0458753592561 1.56348986729 0)
(0.0893042340499 1.46369690128 0)
(0.0815665102252 1.50155385796 0)
(0.0733134209459 1.54403638524 0)
(0.0708236588169 1.52110165497 0)
(0.0762625990597 1.39295408963 0)
(0.0879252160488 1.26663145045 0)
(0.100284002177 1.18727099879 0)
(0.109145799593 1.14962732319 0)
(0.110805411853 1.147702664 0)
(0.105030693202 1.17277637606 0)
(0.0967922588657 1.15711972068 0)
(0.0894398796666 1.08149346924 0)
(0.0842187204074 0.950838566604 0)
(0.0808205119543 0.833089079899 0)
(0.0774698551059 0.777592125863 0)
(0.0725559258393 0.754098062906 0)
(0.0650751951678 0.74387104713 0)
(0.0561016780973 0.739111517196 0)
(0.0470088198237 0.736302501314 0)
(0.0452877778049 1.56633048011 0)
(0.0882350588968 1.46194437641 0)
(0.0810830157894 1.5023429542 0)
(0.0733231870427 1.55076857331 0)
(0.0710867699673 1.52121029391 0)
(0.0767567375183 1.3894750155 0)
(0.0881150182206 1.26604613649 0)
(0.0999971385462 1.19231599537 0)
(0.108620955907 1.15825106553 0)
(0.109958055049 1.16027081641 0)
(0.103814619518 1.18743527031 0)
(0.0955245124429 1.16851870222 0)
(0.0884380023559 1.08701049948 0)
(0.0836266414982 0.952965451571 0)
(0.0804760864363 0.836764598275 0)
(0.0771611031897 0.783584527313 0)
(0.0721739002393 0.760653724504 0)
(0.0646125309261 0.750483959403 0)
(0.0556430590779 0.745587486262 0)
(0.0466122095925 0.7425779655 0)
(0.042868504363 1.57665263117 0)
(0.0831799454269 1.46405605787 0)
(0.076762281883 1.50094463022 0)
(0.0707264779292 1.55645796701 0)
(0.0700572038877 1.52058590476 0)
(0.0767932008315 1.387281345 0)
(0.0882288831276 1.26710776464 0)
(0.099826374109 1.1984850457 0)
(0.108285828649 1.16778304064 0)
(0.109104807311 1.17412064411 0)
(0.102342609355 1.20228816442 0)
(0.0939638844752 1.17961267019 0)
(0.0872472085027 1.09163188056 0)
(0.0828689079196 0.954458787454 0)
(0.0798652820401 0.840361961807 0)
(0.0764683085253 0.789505758527 0)
(0.071271355634 0.767155423802 0)
(0.0635088835391 0.757067381522 0)
(0.0544868858593 0.752050972924 0)
(0.0455199172289 0.748844836053 0)
(0.0435371613413 1.59290490403 0)
(0.0846799597501 1.46993524979 0)
(0.0775125142951 1.49940516319 0)
(0.0708803049733 1.55927736644 0)
(0.0708205074304 1.51884263272 0)
(0.0778426988905 1.38638577484 0)
(0.0890007004871 1.26992496548 0)
(0.100223755707 1.2058085778 0)
(0.108282566084 1.1785295267 0)
(0.108104625156 1.189676729 0)
(0.100660742789 1.21729359348 0)
(0.0923961633747 1.19041279185 0)
(0.0860083952982 1.09544488144 0)
(0.0819730228561 0.955545157045 0)
(0.0790147804129 0.844089866814 0)
(0.0754076164198 0.795413033698 0)
(0.0698717423417 0.773597971063 0)
(0.0618064178114 0.763578025109 0)
(0.0526793050475 0.758434105582 0)
(0.0437664419919 0.755019368741 0)
(0.0445944956836 1.60650885495 0)
(0.0868166022205 1.47674667204 0)
(0.0790033392819 1.50032535539 0)
(0.0720329488734 1.56046121107 0)
(0.0722948398651 1.51814900381 0)
(0.0791300531608 1.38774394967 0)
(0.0898247197467 1.27478858686 0)
(0.100626765583 1.21441179154 0)
(0.107883342962 1.19088593594 0)
(0.106486588754 1.20683639443 0)
(0.0986878485584 1.2324413161 0)
(0.0906618321684 1.20107561855 0)
(0.0846255536045 1.09870249673 0)
(0.080938284738 0.956598218671 0)
(0.0778640259252 0.848193946003 0)
(0.0738770646571 0.801415646674 0)
(0.0678626319447 0.780032192793 0)
(0.0594053010082 0.770017691561 0)
(0.0501391788792 0.764696483215 0)
(0.0412911210994 0.761029474861 0)
(0.0455195578513 1.61703404128 0)
(0.0888403101134 1.48434690194 0)
(0.0811706843778 1.50358262211 0)
(0.0740663449023 1.56293793355 0)
(0.0738652034218 1.52105177198 0)
(0.0799982003626 1.39211468464 0)
(0.0900339184895 1.28164499823 0)
(0.100173973029 1.22419171283 0)
(0.106293750818 1.20481615968 0)
(0.1040954086 1.22490392444 0)
(0.0965723437673 1.24791146394 0)
(0.0888852741946 1.21183683841 0)
(0.0831523875751 1.10182323486 0)
(0.0796297884253 0.95804089903 0)
(0.0761990215739 0.852789679386 0)
(0.0716246743312 0.807532366578 0)
(0.0649884188577 0.786429386707 0)
(0.0560706964346 0.776311560429 0)
(0.0466715757997 0.770726622764 0)
(0.0379501915492 0.76674142067 0)
(0.0457290419462 1.62368343602 0)
(0.0894042222369 1.49314001223 0)
(0.0822551631016 1.50941216699 0)
(0.0749928349144 1.57166849066 0)
(0.0736619444079 1.53077590083 0)
(0.0788666418593 1.40014369558 0)
(0.0883121584829 1.29028351204 0)
(0.0977597058494 1.2350669997 0)
(0.103073680151 1.21991659373 0)
(0.100977254741 1.24327266276 0)
(0.0940965269122 1.26402625391 0)
(0.0866341962197 1.22284694875 0)
(0.0811877404715 1.10526479138 0)
(0.077639714543 0.960109645979 0)
(0.0735777434648 0.857678613437 0)
(0.0682417345195 0.813543502569 0)
(0.0608842428976 0.79254052922 0)
(0.0514974736781 0.78218461582 0)
(0.0420514927133 0.776245724428 0)
(0.03360064314 0.771889552847 0)
(0.044850727375 1.6314312927 0)
(0.0874326645142 1.50684907765 0)
(0.0802118592587 1.520524616 0)
(0.0720258408281 1.5914350682 0)
(0.0689158386328 1.54919689246 0)
(0.0733252381065 1.41099304196 0)
(0.082695946466 1.29951172939 0)
(0.0919919158054 1.24628317877 0)
(0.0973494397459 1.23514623602 0)
(0.0960852013918 1.26121133475 0)
(0.0899698950964 1.28044397806 0)
(0.0830393735618 1.23376498235 0)
(0.0780665327214 1.10913619652 0)
(0.0742338169707 0.962520495399 0)
(0.0694114386388 0.862161014664 0)
(0.0632847221316 0.818813286485 0)
(0.0552217894653 0.797748716335 0)
(0.0454751024172 0.787064569797 0)
(0.0361873456481 0.780750191321 0)
(0.0282429546809 0.7760430994 0)
(0.048473616121 1.63464085895 0)
(0.095272976854 1.52388123929 0)
(0.0858203392049 1.54496231579 0)
(0.070917533293 1.63300589637 0)
(0.0620446411748 1.57951482678 0)
(0.0641467226394 1.42392669894 0)
(0.0730982310953 1.30801732862 0)
(0.0825863060888 1.25649503062 0)
(0.0886574824923 1.2490213941 0)
(0.088630071178 1.27749628343 0)
(0.0836990543261 1.29585648027 0)
(0.0777588667964 1.24369197444 0)
(0.0731719485767 1.11274308173 0)
(0.068904344641 0.964433104209 0)
(0.0634673614449 0.865151655516 0)
(0.0567110158045 0.822356518549 0)
(0.0480977958548 0.801147839419 0)
(0.0382197056121 0.790161806538 0)
(0.0293694677615 0.783580765924 0)
(0.0222027828904 0.778666774534 0)
(0.0525418722851 1.62235125604 0)
(0.104138393831 1.53400323971 0)
(0.0911874289944 1.59058311885 0)
(0.0665076585846 1.70826428195 0)
(0.0501823945933 1.62057084338 0)
(0.0497112471923 1.4370911682 0)
(0.0581493569184 1.3141068237 0)
(0.0685836949397 1.26343486887 0)
(0.0763808647364 1.25935454793 0)
(0.0783793028479 1.28998610442 0)
(0.0754351323915 1.30808032494 0)
(0.0708457952201 1.25125427443 0)
(0.0667098248206 1.11490157618 0)
(0.062322350229 0.964949925497 0)
(0.0565954306678 0.865459687301 0)
(0.049342397333 0.822967412732 0)
(0.04027721116 0.801664884035 0)
(0.0305086722205 0.790591374924 0)
(0.0223757312777 0.784035088925 0)
(0.0162224686608 0.779222072708 0)
(0.0552453813251 1.59116552284 0)
(0.106929186015 1.53223968722 0)
(0.0874773983222 1.65515279861 0)
(0.0578286888415 1.80332868303 0)
(0.0399008947468 1.65919113717 0)
(0.0376413710193 1.44661858844 0)
(0.044652064252 1.3160157119 0)
(0.0557484827903 1.26490245333 0)
(0.0653727599546 1.26381937308 0)
(0.0695435445465 1.29659025149 0)
(0.0684980380704 1.31551412406 0)
(0.0649072665391 1.25549613047 0)
(0.0610354042225 1.11465888384 0)
(0.056531276429 0.963254347981 0)
(0.0505381150188 0.861970833866 0)
(0.0428501005049 0.819233575679 0)
(0.033443605073 0.798094537509 0)
(0.0239378239987 0.787455119478 0)
(0.0166447267351 0.781486664733 0)
(0.0115585057515 0.777295149987 0)
(0.0530928148333 1.5509811625 0)
(0.0968366850337 1.53156875898 0)
(0.0744332224426 1.71948183422 0)
(0.0556983667483 1.86808162168 0)
(0.0467379876332 1.68330674044 0)
(0.0438375200523 1.45145056784 0)
(0.0481386489268 1.31520535418 0)
(0.0574562274043 1.26266691325 0)
(0.0664373836301 1.2634094827 0)
(0.0703693416512 1.29855980887 0)
(0.0683890990245 1.31963530633 0)
(0.0635060855582 1.25692381211 0)
(0.0587361971825 1.11163880771 0)
(0.0537275761925 0.958755369527 0)
(0.047579502403 0.854806583185 0)
(0.039881561658 0.810693749936 0)
(0.030479401135 0.790045771255 0)
(0.0211956531551 0.780521940122 0)
(0.01443195866 0.775882311452 0)
(0.0100308761571 0.772969755676 0)
(0.047210791248 1.52832237878 0)
(0.0824496485751 1.55135512191 0)
(0.0650916468715 1.75630951475 0)
(0.0607472207421 1.87467042656 0)
(0.061861433273 1.68479806515 0)
(0.0634840204896 1.44852149346 0)
(0.0685863784845 1.31209475861 0)
(0.0761697733785 1.25976516739 0)
(0.0822969137028 1.26189905634 0)
(0.0823618360784 1.30013607551 0)
(0.0756739350966 1.32402330008 0)
(0.0674346728647 1.25702580049 0)
(0.0612370982177 1.10658233269 0)
(0.0558591958115 0.952277472791 0)
(0.0500105006894 0.846148826448 0)
(0.0429687590278 0.799465802135 0)
(0.0341393442904 0.779335178223 0)
(0.0249891070246 0.771250169683 0)
(0.0180536983223 0.768420578609 0)
(0.0134687744635 0.767271235548 0)
(0.0460689544596 1.52573852254 0)
(0.0818242193794 1.58530078648 0)
(0.0692364095825 1.76240754312 0)
(0.0691708709278 1.845981789 0)
(0.0746389441012 1.65973028703 0)
(0.0823161331572 1.43159384319 0)
(0.0916517464287 1.30299695746 0)
(0.0999203573933 1.2559925567 0)
(0.103067461789 1.26238591173 0)
(0.0976280652686 1.30593910443 0)
(0.0866180462465 1.33113042462 0)
(0.0768311986462 1.25862054773 0)
(0.0699420004927 1.10265492993 0)
(0.0644167206257 0.946968310915 0)
(0.058993679042 0.839458008446 0)
(0.0527744343493 0.789835647583 0)
(0.0448592832958 0.769771566521 0)
(0.0359609058052 0.762745725064 0)
(0.0283102636742 0.761519454597 0)
(0.0225944024281 0.76209612531 0)
(0.0463052464003 1.53132466448 0)
(0.0840152295882 1.61612683254 0)
(0.0726626149003 1.7577459538 0)
(0.0719034692289 1.80651448478 0)
(0.0797975815823 1.61073143708 0)
(0.0926848462527 1.39852943049 0)
(0.105905681685 1.28568897596 0)
(0.115545773472 1.24990971182 0)
(0.117213292811 1.26659283706 0)
(0.1090942049 1.31942116416 0)
(0.0984066998176 1.34184434277 0)
(0.0899579110006 1.26547123288 0)
(0.0828623642854 1.10385984464 0)
(0.0774947428878 0.946351474848 0)
(0.0725495385321 0.837777936827 0)
(0.0669542978907 0.785629724129 0)
(0.0599648716725 0.764984713852 0)
(0.0516588167198 0.758176879545 0)
(0.0434170460143 0.757746195943 0)
(0.0361989437215 0.759452778906 0)
(0.0458518376847 1.54526521845 0)
(0.083215756516 1.64324480726 0)
(0.0706116772424 1.75795562944 0)
(0.0682011408007 1.76468018303 0)
(0.0781116819879 1.5421024565 0)
(0.0952545716768 1.35221429511 0)
(0.111290914709 1.26167200953 0)
(0.12209127897 1.24152618253 0)
(0.123785749514 1.27400383131 0)
(0.116626586249 1.33910689165 0)
(0.10810980694 1.35601395886 0)
(0.100686679031 1.27682178795 0)
(0.0942801547001 1.10947125807 0)
(0.0901451473633 0.950242234512 0)
(0.0862237456735 0.841214673786 0)
(0.0814358837789 0.787597502071 0)
(0.0754580789615 0.766119390744 0)
(0.0681279304845 0.758881537853 0)
(0.0599200213683 0.758433499659 0)
(0.0515916267168 0.760502823533 0)
(0.0443622494566 1.57129961907 0)
(0.0788626753541 1.67793531651 0)
(0.0628285516253 1.77255863731 0)
(0.059836764257 1.71594697239 0)
(0.0730379852298 1.46196663926 0)
(0.0931824865722 1.29907612249 0)
(0.111035553197 1.23390115103 0)
(0.122727729813 1.23161214882 0)
(0.124994578908 1.28216451078 0)
(0.119209149263 1.35948673749 0)
(0.111577510191 1.37096651583 0)
(0.104886902913 1.2861604885 0)
(0.100712853961 1.11361164963 0)
(0.0989437579907 0.954703451862 0)
(0.0968311826371 0.847169218799 0)
(0.0934711295156 0.793990449524 0)
(0.0888619388345 0.772057399046 0)
(0.0827792970456 0.764244979257 0)
(0.0750972289378 0.763364368725 0)
(0.0662576270288 0.765253576978 0)
(0.0409259789864 1.62371883061 0)
(0.0685667484817 1.74062585106 0)
(0.047419911292 1.80702963435 0)
(0.0463497387575 1.64910765828 0)
(0.0641085847978 1.37938502075 0)
(0.0854111651857 1.24568469574 0)
(0.103783085412 1.20526033368 0)
(0.116018282115 1.22057804814 0)
(0.118635064551 1.28877035601 0)
(0.113607069207 1.37611953791 0)
(0.107008748123 1.38235794836 0)
(0.102539230258 1.28705063511 0)
(0.102095630036 1.11150215362 0)
(0.103655634267 0.956706492183 0)
(0.103990439459 0.853668196794 0)
(0.102448857134 0.803204277305 0)
(0.0993785418714 0.781456474333 0)
(0.0946189053361 0.773176338777 0)
(0.0876908658096 0.771716438409 0)
(0.0787732857453 0.773106165305 0)
(0.107562239763 0.618621131594 0)
(0.0961952602789 0.615945046714 0)
(0.0854308592553 0.613853712304 0)
(0.0748235879843 0.612680437309 0)
(0.064815155814 0.612059934515 0)
(0.0561857399149 0.611300810211 0)
(0.0491665754982 0.610128072497 0)
(0.0435616481294 0.608315629914 0)
(0.0389422766291 0.605697632153 0)
(0.0371557506102 0.602808677392 0)
(0.0383548169799 0.605625542706 0)
(0.03604190379 0.601166957687 0)
(0.0301729070753 0.601345952142 0)
(0.0253011491689 0.600968521207 0)
(0.0215567520092 0.594488692655 0)
(0.0183278232122 0.568836161777 0)
(0.0143888161716 0.532860539764 0)
(0.00986364234624 0.493608537636 0)
(0.00393828450244 0.452286029469 0)
(0.000127565435378 0.411438361722 0)
(0.0993817329812 0.637646568781 0)
(0.0884430952085 0.633876638367 0)
(0.0780902683527 0.630904442629 0)
(0.0679713193562 0.629036612389 0)
(0.0586944365813 0.627682277339 0)
(0.0508978363411 0.626292354999 0)
(0.0446309555151 0.624594348585 0)
(0.039609648445 0.622357492591 0)
(0.0353631360582 0.619518273709 0)
(0.0358080163613 0.619943590776 0)
(0.0377773518074 0.61872261054 0)
(0.0344409123862 0.6174086714 0)
(0.0289661000427 0.617354487853 0)
(0.0242308342975 0.616772285891 0)
(0.0205413034767 0.609790483147 0)
(0.0173705737171 0.583348460862 0)
(0.0136161588449 0.546996180245 0)
(0.00937107932528 0.507468523402 0)
(0.00389396915102 0.465837771257 0)
(0.00025721066169 0.424532730003 0)
(0.0878894632888 0.654777179089 0)
(0.0778391823243 0.650023020811 0)
(0.0683231575763 0.646298381714 0)
(0.0591364738945 0.64376515336 0)
(0.0509580598254 0.641751380738 0)
(0.0442222249157 0.63984640874 0)
(0.0388497850298 0.637744987828 0)
(0.0344912063267 0.635251229722 0)
(0.0307156713119 0.632461618742 0)
(0.0333972869708 0.638965404373 0)
(0.0361061000061 0.632934369782 0)
(0.0317136674556 0.63244474178 0)
(0.026670658117 0.632181895348 0)
(0.0222735673007 0.631406344739 0)
(0.0188219542396 0.623950788017 0)
(0.0158644985065 0.596789034146 0)
(0.0124252174823 0.560101317296 0)
(0.00857633172089 0.520322036412 0)
(0.00369506246278 0.478415051351 0)
(0.000356287948379 0.43670287406 0)
(0.0740499164405 0.669032193502 0)
(0.0652589678924 0.663576692879 0)
(0.0569475140137 0.659326096124 0)
(0.0490491635896 0.656260978869 0)
(0.0422023769472 0.65378561586 0)
(0.0366461685249 0.651551063069 0)
(0.0322253067556 0.649224840833 0)
(0.0285591861285 0.646677972008 0)
(0.0253607220842 0.644167492843 0)
(0.0291555385701 0.655405559455 0)
(0.0323857064822 0.646375580078 0)
(0.02800769162 0.645826202596 0)
(0.023550784495 0.645397278434 0)
(0.0196506248827 0.644463549217 0)
(0.016582417678 0.636587970437 0)
(0.0139625241517 0.608801483594 0)
(0.0109328039317 0.571831376352 0)
(0.00755852987589 0.531833880982 0)
(0.00333244776897 0.489684211484 0)
(0.000383000031786 0.447609062961 0)
(0.0591817978265 0.679765897527 0)
(0.0518844600458 0.674010460922 0)
(0.0450219670177 0.669520705106 0)
(0.0386050832509 0.666177358588 0)
(0.0331575297201 0.663507888846 0)
(0.0287820043652 0.661163877438 0)
(0.0252858853696 0.658810953494 0)
(0.0222999195124 0.65638982396 0)
(0.0197958757142 0.654257586933 0)
(0.0239693835845 0.667011452661 0)
(0.027443033192 0.657922623129 0)
(0.0237046376401 0.657264770997 0)
(0.0199447295432 0.656730124222 0)
(0.0166509371799 0.65568795421 0)
(0.0140690478237 0.64746054647 0)
(0.0118580365025 0.619156710715 0)
(0.00928649290949 0.581963719892 0)
(0.00642434385566 0.541781698078 0)
(0.00285698201731 0.499421119588 0)
(0.000349114940207 0.457030804234 0)