/*--------------------------------*- C++ -*----------------------------------*\
| =========                 |                                                 |
| \\      /  F ield         | OpenFOAM: The Open Source CFD Toolbox           |
|  \\    /   O peration     | Version:  2312                                  |
|   \\  /    A nd           | Website:  www.openfoam.com                      |
|    \\/     M anipulation  |                                                 |
\*---------------------------------------------------------------------------*/
FoamFile
{
    version     2.0;
    format      ascii;
    arch        "LSB;label=32;scalar=64";
    class       volScalarField;
    location    "0.13/water";
    object      k.gas;
}
// * * * * * * * * * * * * * * * * * * * * * * * * * * * * * * * * * * * * * //

dimensions      [0 2 -2 0 0 0 0];

internalField   nonuniform List<scalar> 
1496
(
1.09686945109
0.510765901016
0.272574900275
0.173490164828
0.132074343512
0.116452257627
0.1122532639
0.112086365444
0.111136439175
0.106891366268
0.0990411400052
0.0879483432621
0.0741341961606
0.0574080499892
0.0367196053116
0.01963127224
0.0116623531002
0.00800720948909
0.0048846024433
0.00248267845197
1.03790732953
0.495565325768
0.262753429624
0.16152906836
0.117053223739
0.100034480294
0.097942900955
0.101084895106
0.102785388394
0.100511041532
0.0941261798302
0.0840851585139
0.0707219624994
0.0539149271298
0.0339888758809
0.0195416472333
0.0126057848632
0.00913066261044
0.00554285727372
0.00271117388199
1.04373796488
0.508062553175
0.263856129129
0.154010597544
0.104611759448
0.0858648177723
0.0843886621529
0.0890915011175
0.092168683907
0.0911530922398
0.0859894510242
0.0767030932385
0.0629983759473
0.0460357501453
0.0291017989405
0.0182291901407
0.0130693104613
0.00988485019443
0.0058448012034
0.00290684610113
1.1062060658
0.533158920962
0.268586782394
0.150741320421
0.0981929218982
0.0775868405041
0.0750840639406
0.0788577543882
0.0813876501957
0.0804662672016
0.075889140648
0.0666393361312
0.0521312766312
0.0365153023051
0.0239434442637
0.0165957884978
0.0131405321586
0.0100016101657
0.00580402286883
0.00304147392484
1.19770596947
0.558680019941
0.275568106762
0.155248771184
0.101723841508
0.0775862118843
0.0724689652046
0.0731058276939
0.0729254684934
0.0700950066193
0.0645199407481
0.0549999159646
0.0404968412529
0.0279173257891
0.0194856597559
0.0148997781319
0.0126241481376
0.00938369962926
0.00553347808619
0.00311744262392
1.2783144752
0.579398250459
0.285598810548
0.167223915974
0.114666737164
0.0891861259968
0.080519410778
0.074582720447
0.0690322897802
0.0622259260912
0.0537786329021
0.0433905433702
0.0308545810977
0.0212676120067
0.0158096109619
0.0129003992148
0.0113209177097
0.00844621621998
0.00522508252305
0.00316057880645
1.32618911061
0.594191847298
0.297541607579
0.180065291042
0.130007880571
0.108322463859
0.104412334889
0.0865845965613
0.0716559509537
0.0590737865116
0.0467112832959
0.0345357556606
0.0233853716786
0.0163694366014
0.0127497087405
0.0107720515912
0.00969520823099
0.00762368419839
0.00499031674056
0.00317874653005
1.35655583251
0.602850382783
0.302950266743
0.185538360923
0.13856320284
0.120952660305
0.122765987366
0.105721702733
0.0804449034797
0.0623893691345
0.0460555053357
0.0308490130953
0.0192288184442
0.0131212909423
0.0105520790798
0.00922629429226
0.00838602925005
0.00700097689939
0.00480508577349
0.00316745913005
1.39712880512
0.601299708888
0.2970644856
0.181094016468
0.137316681534
0.118858030911
0.122026725793
0.114188573347
0.0915104696648
0.0728993583391
0.0541420230597
0.0345360487666
0.0194491513117
0.0119581184647
0.00941992972706
0.00849891232407
0.00765751138085
0.00652412505584
0.0046256826348
0.00310349257946
1.39381136647
0.587353689411
0.288136502851
0.174376913897
0.134260140027
0.11446085344
0.113954707459
0.107762233533
0.095049818047
0.0821367110865
0.0661946104013
0.0462288484094
0.0238985265105
0.0128981458484
0.0091986483712
0.00834379193727
0.00751260617653
0.00623605302687
0.00449879473551
0.00303690044852
1.32032669168
0.570234805113
0.283627961472
0.171286855634
0.133281315454
0.111126703806
0.104927822551
0.100031783066
0.0931396628803
0.0847376967054
0.0733169753059
0.0567892302301
0.0331829633312
0.0158926060843
0.00981311204095
0.00850743803168
0.00777455845749
0.00623949712863
0.00449802891007
0.0030199772483
1.24123209192
0.5581995839
0.283656623384
0.170799085583
0.131215766643
0.108144718888
0.0981042347966
0.093301162978
0.0889940036672
0.0834854953282
0.074728907831
0.0608797135599
0.0401831239261
0.0190147522199
0.010883612537
0.00891240409839
0.00822742601745
0.00654896855036
0.00463864726798
0.00306057752517
1.18707758901
0.552699783758
0.286723322705
0.171226942005
0.126135792751
0.106312539353
0.0942532059297
0.0883064072598
0.0845864964589
0.0799558694859
0.0725385845314
0.0606760671648
0.0428436666054
0.0207056217644
0.0118050900165
0.00946377369989
0.00875945254662
0.00703178633867
0.00487441135072
0.00314839593908
1.15290698511
0.55423002521
0.292335385894
0.1727641846
0.121267081911
0.102322620619
0.089932868371
0.0834939832816
0.079367884217
0.0746418283348
0.067351894525
0.0565347184513
0.0407044253425
0.0204453253986
0.0122943815323
0.0100402317515
0.00934309241656
0.007556949053
0.00514532702872
0.00326801163653
1.15473776558
0.561155046418
0.298194069136
0.174663408955
0.118431434492
0.0954184749402
0.0851160391578
0.0782830540318
0.0734487205136
0.0679001759806
0.0602664532882
0.0498269239296
0.0343921651578
0.0186249700659
0.0123968776196
0.0106239929425
0.00996655895275
0.0080359260775
0.00539773570417
0.00340073996255
1.2040184265
0.577195247971
0.305271133052
0.177148530414
0.117175232981
0.0887867706522
0.0783380122635
0.0719888579291
0.0666764932308
0.0603097335567
0.0520831166441
0.0414261321778
0.0265778155078
0.0165309673529
0.0124546753413
0.0112699081778
0.0105903894335
0.00838832119706
0.00559366986399
0.00353876028151
1.30014870579
0.60041802099
0.312046273018
0.179482110427
0.117150203677
0.0849786435242
0.0700398243777
0.064573094812
0.0593878814232
0.0521530233901
0.0429907625319
0.0317601825638
0.0209597957307
0.0151958433412
0.0127533499178
0.0119640862277
0.0111009491879
0.00853000662913
0.0057304831284
0.0036797495992
1.4306817776
0.627718719794
0.318483208215
0.183212229154
0.118907598726
0.0839163195687
0.0637054694268
0.0560781375868
0.0513379729693
0.0432571083001
0.0335581524189
0.024301329877
0.0180602934458
0.0147755440176
0.0132265002678
0.012521367773
0.0112850779184
0.00844655768904
0.00583607539443
0.00382752788891
1.54252178944
0.652022018313
0.329340607366
0.191669212453
0.123808508086
0.0855015374622
0.0613464651874
0.0493956235276
0.0432070499057
0.0349337801221
0.0266767447413
0.0206282191191
0.0169717001496
0.0147976380213
0.013442489058
0.0125539314169
0.0109197645266
0.00826890400275
0.00593734520116
0.00397655964463
1.57298818646
0.680543255303
0.352443433116
0.208686860142
0.134693290614
0.0901677732575
0.0619380603375
0.0464750361882
0.0379315881718
0.0298412447571
0.0234715954897
0.0192758298979
0.0164812375569
0.0144040553489
0.0128505274791
0.01167223567
0.0101554516917
0.00809147705695
0.00600987113387
0.00412017564359
1.56589803552
0.738266876846
0.398318922937
0.239105698835
0.153641982257
0.100285538886
0.0666500407791
0.0478511195269
0.0369451099906
0.0285428019461
0.0226025170765
0.0185302684134
0.0154897569914
0.0130715079371
0.0112960121111
0.0100973958576
0.00934965432639
0.00783856541653
0.00600648540594
0.0042290990465
1.67926669419
0.871101165771
0.482291169815
0.289146803552
0.182564341133
0.118327502879
0.0785237074354
0.054991807598
0.0403248454994
0.0298986627774
0.02276828296
0.0178003010015
0.014119001661
0.0113885449864
0.00956909885425
0.00862193174547
0.00834436007425
0.00730536378893
0.00581315421429
0.00423503761238
2.12862241548
1.13097110265
0.61738290919
0.356956176115
0.222462829877
0.146938749546
0.100340404169
0.0702736623014
0.0495932212883
0.0351631653335
0.0253242391095
0.0185177478195
0.0137687815463
0.0105341453837
0.00852891802011
0.00750846293531
0.00709565944405
0.00636249944226
0.00531437458141
0.00404649666011
2.91678312163
1.47664303007
0.739219807815
0.411836848968
0.261269253446
0.180109057157
0.128195835651
0.0919902144669
0.0658433612648
0.0469777357987
0.033187680504
0.0230613101223
0.0159368427946
0.0112893009725
0.00850039930311
0.00695387057216
0.00606252997233
0.00526639959156
0.00451622551209
0.00363432642547
3.50649797694
1.57178231207
0.774067127024
0.436346878066
0.283943915768
0.20236129267
0.149901882066
0.112287745976
0.0844855173581
0.0632621029824
0.0466180777541
0.0329417379457
0.0219120282197
0.0142092147718
0.00963014043131
0.00708277992235
0.00559482131148
0.00451134379012
0.00370592137641
0.00304954384036
3.38525823499
1.48991766964
0.740217194146
0.425451746915
0.283756248939
0.209218856345
0.161659349483
0.127021179428
0.100449168822
0.079195060143
0.0615993973965
0.0462780083408
0.0318731684127
0.0199612582196
0.0122447307953
0.00797834971072
0.00569689582645
0.00424581702306
0.00322148860795
0.00252498485084
3.09961967061
1.37837195538
0.689158787251
0.400912876759
0.271809919493
0.20548980177
0.164170111595
0.133980071674
0.109943492
0.0902763443264
0.0738852799215
0.0594263532875
0.0443220025885
0.0284699253154
0.0165328108186
0.00983227827434
0.00635620760202
0.00439799749819
0.00306680005643
0.00220858937673
2.84933533968
1.2652936364
0.634030313576
0.37155102491
0.254259162443
0.194844499936
0.159043713832
0.133320135306
0.112745202269
0.0955811096815
0.0810317999611
0.0679291514711
0.054590582397
0.0390338667902
0.0223489613034
0.0127463567809
0.00761687045587
0.00495608769523
0.00322229303581
0.00208147872074
2.63660822858
1.15823151577
0.578990395801
0.339548651337
0.232708613569
0.179554516595
0.14854633775
0.126994184588
0.109922012847
0.0956731623613
0.0834686559904
0.0723487656711
0.060546487714
0.0466282930941
0.0297999398613
0.0164703336338
0.00940836355313
0.00586064121257
0.00368676951368
0.00218248034553
2.45598554713
1.06549181958
0.529061986231
0.307279921366
0.208996534618
0.161792978655
0.135322661058
0.117554120327
0.103741377108
0.092192535238
0.0822662636678
0.073106509361
0.0631111044402
0.0504533183429
0.0345996733197
0.0199217073231
0.011408507701
0.0069661450098
0.0043512884329
0.00248998484479
2.31902708952
0.998245254703
0.490078815555
0.277176973001
0.184667095683
0.142750238807
0.120881894233
0.106757796325
0.0959041197109
0.0867873875215
0.0788230137663
0.0713593462921
0.0629566984397
0.0516514180582
0.0369695222702
0.0220416597264
0.0129255973962
0.00797369158657
0.00502157339594
0.00288126855965
2.24964996232
0.972861862921
0.467882850283
0.251257568005
0.160768758378
0.123331167952
0.105851156322
0.09536010332
0.0873225752055
0.0803676059088
0.0740769560629
0.0679367973234
0.0607463337607
0.0505640481163
0.0371272675573
0.0227935241287
0.01375640068
0.00869357031238
0.00556852272579
0.00323883055916
2.29297439279
0.998094042893
0.462401190669
0.229393443698
0.138197817678
0.104480933318
0.0908785720052
0.0836857029552
0.0783217690924
0.0733695459796
0.0684911224651
0.0633555443453
0.0569524334671
0.0475933359148
0.0353763469772
0.0223245387821
0.0139581428637
0.00910105968237
0.00595126892169
0.00351482594215
2.46642434952
1.07295101551
0.472801164816
0.209802647927
0.114768175048
0.0857555529494
0.0762758286426
0.0720809693738
0.0690793985685
0.0659722654624
0.0623483520346
0.0579683027465
0.0520187124164
0.0432924784407
0.0321477216215
0.020933897249
0.0136791855119
0.00925634204451
0.00618209082386
0.00370766187756
2.76165284449
1.20483067084
0.524578280562
0.210985842829
0.0996937610009
0.0703316682037
0.062809494473
0.0608449018856
0.0600588723873
0.0586887373204
0.0562385176045
0.0524661679515
0.046758431352
0.0383656688997
0.0280537866086
0.0191452696106
0.0131601943092
0.00926738277311
0.00630801679645
0.00384995880426
3.10003075738
1.43843905223
0.642596850544
0.253432463305
0.102579827947
0.0630394086634
0.0532619122728
0.0511484765485
0.0516707707113
0.0521104165838
0.0515196633088
0.0480702394446
0.0418503526269
0.0335093147855
0.0245735818326
0.0175740089414
0.0126906079317
0.00926510536119
0.00639902353829
0.0040127739837
3.23936111975
1.66668118786
0.8001102077
0.323941131812
0.122057744502
0.0644613274063
0.049973202815
0.0459338359668
0.0458801965752
0.0472070720516
0.0485437122145
0.0450573154895
0.0381317381369
0.0300024588658
0.0224214028154
0.0165915038984
0.0123773248741
0.00919320597103
0.00640947984683
0.00416451624894
4.08600802255e-05
6.06782384156e-05
8.92740903771e-05
0.000113940140743
0.000116023773234
7.84385002581e-05
4.52749038455e-05
0.00013318058455
0.00238703523416
0.00936696525867
0.0174050043577
0.0250693047874
0.0321559682201
0.0393530933858
0.048515379816
0.0637045773625
0.00113108412492
0.000411551939946
0.000143387322578
5.10292494293e-05
4.00171576189e-05
5.67139955712e-05
8.44215535081e-05
0.000109189019459
0.000114236492717
8.11848223154e-05
4.74685146544e-05
0.00013269723823
0.00235995723199
0.00929302889393
0.0173850759233
0.0251412232934
0.0323359105318
0.0396691831682
0.0490512985809
0.0646328826407
0.00125431964366
0.000471244954335
0.000165556948962
5.6192032681e-05
4.15686580912e-05
5.5736349009e-05
8.28234656813e-05
0.000107468806163
0.00011439983702
8.4263592643e-05
4.96686799426e-05
0.000133535941308
0.00234978004376
0.00926039992704
0.0174042367377
0.0252442518333
0.0325401207996
0.0400079352044
0.049625535467
0.0657048308846
0.00139193199142
0.000531778744579
0.000187509726643
6.2723214926e-05
4.43805235393e-05
5.64806865543e-05
8.3232113941e-05
0.000108133488463
0.000116439828037
8.78356324334e-05
5.19028487566e-05
0.000135066746086
0.00235157122408
0.00925806596116
0.0174514068442
0.0253688445838
0.0327613663881
0.0403644563245
0.0502314329215
0.0668802492494
0.00153902807596
0.000591553746064
0.000208160207395
6.91527994748e-05
4.75600212723e-05
5.76916284667e-05
8.41991385826e-05
0.000109806201193
0.000119611249841
9.1972116965e-05
5.42723202837e-05
0.000136966224073
0.00235935956193
0.00927070785874
0.0175113786945
0.0255026144397
0.0329904235332
0.0407322923398
0.0508624858493
0.0681224767769
0.00168341870955
0.000649520278887
0.000227119147791
7.5245973708e-05
5.04937222449e-05
5.82310237976e-05
8.43723743054e-05
0.00011095119757
0.000122707301354
9.65388784389e-05
5.68830988068e-05
0.000138987342469
0.00236746743194
0.00928361763398
0.017570076907
0.0256347656439
0.0332194869132
0.0411055419459
0.0515133360769
0.0694078089248
0.00180339358755
0.000703497120645
0.000245157052138
8.14355563456e-05
5.29134620614e-05
5.73569270301e-05
8.26818583093e-05
0.00011007208506
0.000124303472502
0.000101174515695
5.98254823768e-05
0.000141012332566
0.00237236193592
0.00928756366308
0.0176193831423
0.0257598574641
0.0334449378763
0.0414809005983
0.0521809851444
0.0707295319724
0.00187999151615
0.000749498352742
0.000262762294403
8.80564919091e-05
5.49741063099e-05
5.51190349614e-05
7.90681498078e-05
0.000106841389317
0.000123732383156
0.000105406471598
6.31714021269e-05
0.000143096437883
0.00237385280129
0.00928173868953
0.0176597539248
0.0258795881868
0.0336686094128
0.0418588142011
0.0528652164388
0.072096407293
0.00190580154315
0.000785195549573
0.000275940289626
9.4584086763e-05
5.69549077091e-05
5.22640056697e-05
7.43476098481e-05
0.000102232187801
0.000121377334597
0.000108742626867
6.68672192855e-05
0.000145436446127
0.00237501337921
0.00927354483646
0.0176997057751
0.0260020632905
0.033897200426
0.0422433784976
0.053568104636
0.0735263780631
0.00189444642635
0.000811352560317
0.000286386429956
0.000100646901617
5.85107790335e-05
4.97113791654e-05
6.9662468924e-05
9.75188445788e-05
0.000118210144203
0.000110899238884
7.0671517025e-05
0.000148291437323
0.00238100645347
0.00927572347878
0.0177528475469
0.0261392115307
0.0341403254107
0.0426411949726
0.0542928653164
0.0750380326766
0.00186813334833
0.000830787723578
0.000297698438892
0.000106296708524
5.8446516472e-05
4.81487663374e-05
6.5997886439e-05
9.37607767018e-05
0.000115415238582
0.00011211299996
7.42788360618e-05
0.000151915895456
0.00239755570401
0.00930251967498
0.0178340268377
0.0263035836622
0.0344080778656
0.0430597218694
0.0550425020105
0.0766426903104
0.00184911236092
0.000846592914471
0.000309257608572
0.000111596235427
5.69567152897e-05
4.7863453706e-05
6.39809831904e-05
9.16574372712e-05
0.000113955573757
0.000113118788495
7.74804770962e-05
0.000156527214919
0.00242970008115
0.0093663489242
0.0179558712362
0.0265054943066
0.0347088114839
0.0435056301899
0.0558186469995
0.0783390138671
0.00184799164147
0.000860493251512
0.000319991273082
0.000116315292948
5.624801048e-05
4.88410369587e-05
6.39930852363e-05
9.17569672207e-05
0.000114412480449
0.000114580448775
8.02149493064e-05
0.00016229156312
0.00248098629506
0.00947547421449
0.0181262314998
0.0267509055533
0.0350474689516
0.0439834630839
0.0566207903123
0.0801108055044
0.00186851342914
0.000872196249457
0.000328833545255
0.000120183546089
5.75507209792e-05
5.09794449915e-05
6.60707771551e-05
9.43267170324e-05
0.000117247920292
0.000117336767397
8.26342080029e-05
0.000169347292717
0.00255296864297
0.00963262096312
0.0183466228688
0.0270401765628
0.0354245894813
0.0444947532844
0.0574459664719
0.0819278405991
0.00190790272822
0.000880616842558
0.000335141905708
0.000123059564106
6.05225781363e-05
5.41261713936e-05
6.99591163765e-05
9.90402546089e-05
0.000122205639226
0.000121566680892
8.49984183677e-05
0.000177786266624
0.00264492936282
0.00983433247888
0.0186116403874
0.0273676940875
0.0358360099567
0.0450376389412
0.058288894595
0.083749206794
0.00196611318603
0.000887415250292
0.000339570047915
0.000124333077151
6.55321941802e-05
5.79930622243e-05
7.51836735665e-05
0.000105188145456
0.000128269148483
0.00012632275703
8.7097724676e-05
0.000187429478861
0.00275356543838
0.0100708685105
0.0189092241007
0.0277222769733
0.036273155007
0.045606902364
0.0591424807013
0.0855284689582
0.00204618658098
0.000895096436154
0.000343335495468
0.0001244186961
7.1767773163e-05
6.2474727161e-05
8.17827872911e-05
0.000112835881824
0.00013543229011
0.000131591752433
8.89484202289e-05
0.000197937023542
0.00287278529722
0.0103266387186
0.0192217418271
0.028088304591
0.0367238609867
0.0461943858398
0.0599985923816
0.0872200441045
0.002150916439
0.000906836277431
0.000347735783802
0.00012410569801
7.67282212599e-05
6.73055568531e-05
8.90975125044e-05
0.000121050593491
0.000142899251743
0.000137055546707
9.06291887816e-05
0.000208748626895
0.00299398264776
0.0105816935858
0.0195282076881
0.0284477554978
0.0371738690201
0.0467899023382
0.0608491380388
0.0887861706023
0.00227934374804
0.00092824412912
0.000353141240086
0.000124254242901
7.97730494009e-05
7.19449846025e-05
9.59929755893e-05
0.00012828851073
0.000149214310658
0.000141673066117
9.20135654877e-05
0.000219086006294
0.00310715826948
0.0108146854228
0.0198076813807
0.0287830912146
0.0376089607607
0.047382683987
0.0616874321462
0.090203418527
0.00242894869087
0.000964113529406
0.000358084694188
0.000125680467833
8.18455121067e-05
7.56462777411e-05
0.000101178558741
0.000133061594305
0.000153067223997
0.00014452390281
9.30460390219e-05
0.00022817280262
0.00320273192239
0.0110067200021
0.0200429918381
0.0290802523743
0.0380172337543
0.0479630474173
0.0625094915624
0.0914671980214
0.00258475796853
0.00101443614157
0.000363282880494
0.000129126549855
8.35634413755e-05
7.76168626178e-05
0.000103412667721
0.000134206576664
0.000153512411896
0.000145098959662
9.3717255024e-05
0.000235324245506
0.00327355946758
0.0111448439013
0.0202236019737
0.0293308899815
0.0383909099979
0.0485238279411
0.0633147944292
0.0925930924278
0.00272098044688
0.00107472731388
0.00037351153842
0.000134842236312
8.49727884147e-05
7.72513417181e-05
0.000102060916714
0.000131432929318
0.000150300425637
0.000143081806555
9.37502062068e-05
0.000240293955215
0.00331638680681
0.0112243293778
0.020347144339
0.0295335796786
0.0387275143587
0.0490614623162
0.0641064006138
0.0936148922493
0.00278401211633
0.00112323041467
0.000388618688041
0.000144675452549
8.66852849182e-05
7.4542419253e-05
9.70930176872e-05
0.000124456848466
0.000143008522636
0.000138071143406
9.30024166155e-05
0.000243223282701
0.00333265719652
0.0112496683243
0.0204198661271
0.0296942295493
0.0390305578837
0.0495768880462
0.0648912553689
0.0945788536711
0.00272920753794
0.0011373990033
0.000401977135739
0.000158555566459
8.92968918109e-05
6.98724130107e-05
8.93035913379e-05
0.000114635495656
0.000132991419083
0.000130917894631
9.14300977258e-05
0.000244637100094
0.00332858839038
0.0112340316393
0.0204558232026
0.0298254061407
0.0393094090226
0.0500779178269
0.0656782571208
0.0955359638339
0.002537019254
0.00111057551656
0.000414080971435
0.00017338039476
9.01905387737e-05
6.42692398226e-05
8.04597561743e-05
0.00010403377148
0.000122165192159
0.000122819121124
8.9278369664e-05
0.000245406021731
0.00331358355429
0.0111962721727
0.0204739073391
0.0299436866988
0.0395769417472
0.0505675063222
0.066476936834
0.0965451229777
0.00222001319906
0.00104782227319
0.000421659702334
0.000186242809892
8.33463485285e-05
5.91312134853e-05
7.20529545181e-05
9.43420656614e-05
0.000112286256693
0.000115218476347
8.71413169623e-05
0.000246493494958
0.00329716503059
0.0111554522112
0.0204926840244
0.0300652373652
0.0398448186831
0.0510568196045
0.0672970622226
0.0976451269956
0.00186433895861
0.000968560439816
0.000425447107729
0.00019566029433
8.01182251532e-05
5.53995465205e-05
6.50577675576e-05
8.62178275544e-05
0.000104316965826
0.00010916763046
8.55999714698e-05
0.00024849550835
0.00328614498742
0.0111253260435
0.0205253914205
0.0302017641405
0.0401248318226
0.051555669105
0.068144511461
0.0988573086155
0.00158240106622
0.000890683904451
0.000422643366301
0.000201373732786
8.43387207403e-05
5.32167952594e-05
5.94770163643e-05
8.00881051391e-05
9.82735368285e-05
0.000104886712175
8.51004001843e-05
0.000251950500237
0.0032837594118
0.0111125051657
0.0205786945614
0.0303597020443
0.0404225539692
0.0520681203591
0.0690232045205
0.100195886925
0.00139226761253
0.000820997778173
0.000413891828771
0.000203616368382
8.76522390096e-05
5.24302434752e-05
5.5031364405e-05
7.55550835479e-05
9.45750662111e-05
0.00010309059376
8.63291508843e-05
0.000256684358583
0.00329135659779
0.0111201863775
0.0206567293903
0.0305439630902
0.0407433658038
0.0525975693386
0.0699327847917
0.10167099399
0.00132292216083
0.000780177111837
0.000408425687706
0.000204762038883
8.99450026035e-05
5.28641933457e-05
5.13999093191e-05
7.20152436323e-05
9.22710293041e-05
0.000103006906049
8.856066116e-05
0.000262997774178
0.00331145915478
0.011154345163
0.0207670126193
0.0307626876148
0.0410955829069
0.053150476966
0.0708744920568
0.103289473339
0.00139308140493
0.00079308079324
0.000416982053642
0.000208539817832
9.21319631271e-05
5.38603406506e-05
4.88054419319e-05
6.96906150105e-05
9.1187056688e-05
0.000103951446616
9.18306922063e-05
0.000271374340742
0.00334952016383
0.011226502023
0.0209224459628
0.0310282503606
0.0414908486358
0.0537363956018
0.0718512693329
0.10505434846
0.00155764253349
0.000856613326586
0.000442126970598
0.000216412796076
9.46942681085e-05
5.48778566638e-05
4.78870671676e-05
6.87964128579e-05
9.14702540471e-05
0.000106032596113
9.58590919892e-05
0.000282697073435
0.00341287056054
0.0113506081886
0.0211374259545
0.0313532848722
0.0419405424248
0.0543652277966
0.0728659701634
0.106958402384
0.00174485190973
0.000945832730563
0.000477335293178
0.000227163888612
9.74091620731e-05
5.67094687853e-05
4.89729913349e-05
6.95467605445e-05
9.33073139359e-05
0.000109523518397
0.000100770435638
0.000297993460491
0.00350799696083
0.0115369702544
0.0214213807316
0.0317449118401
0.0424508887754
0.0550432296877
0.0739185513852
0.108978844518
0.00191779455667
0.00104065218945
0.000513224466617
0.000237112633882
9.89528311891e-05
5.9315592493e-05
5.18738599839e-05
7.19320339769e-05
9.68747913779e-05
0.000114791302462
0.000106768893739
0.000318017020076
0.00363813268739
0.0117876043236
0.0217741741964
0.0322009315767
0.0430197772355
0.0557701967345
0.0750043629556
0.111077112326
0.00206965214739
0.00113040080804
0.000541618042686
0.000242347062208
9.8062037627e-05
6.21155247351e-05
5.61069995833e-05
7.56693425376e-05
0.000102160417024
0.000121738208683
0.000113769439021
0.000343049370681
0.00380167592371
0.0120946331664
0.0221847995708
0.0327089349976
0.0436358224196
0.0565381931592
0.0761138521147
0.113203687094
0.0022197367252
0.0012079096162
0.000557264383766
0.000240628456604
9.48770710767e-05
6.51032466612e-05
6.10319891975e-05
8.03362787063e-05
0.000108577381354
0.000129483565086
0.000121286817033
0.000372713753018
0.00399089599035
0.012440831751
0.0226330182692
0.0332475581211
0.044278035011
0.0573297983775
0.0772316547974
0.115305510944
0.00240196417966
0.00126039737821
0.000561604344812
0.000231692012539
9.23084027596e-05
6.89438220827e-05
6.62483068498e-05
8.59921229924e-05
0.000115586801543
0.00013726282111
0.000129125700243
0.000407179588997
0.00419669688071
0.0128052340387
0.0230938468053
0.0337881749051
0.0449116511675
0.0581047258726
0.0783235347641
0.117330048173
0.00254617689349
0.00129207151272
0.000577396037033
0.000223312002787
0.000105820722023
7.3643012257e-05
7.08807770916e-05
8.94664175309e-05
0.000118448911376
0.000139907201897
0.000133963031701
0.000436708728713
0.00435939611822
0.0131165086631
0.0235202826732
0.0342805350344
0.045466100921
0.0587559848575
0.0792227787426
0.11917237755
)
;

boundaryField
{
    emptyPatch
    {
        type            empty;
    }
    minY
    {
        type            fixedValue;
        value           nonuniform List<scalar> 0();
    }
    maxY
    {
        type            inletOutlet;
        inletValue      uniform 1e-05;
        value           nonuniform List<scalar> 
40
(
3.23936111975
1.66668118786
0.8001102077
0.323941131812
0.122057744502
0.0644613274063
0.049973202815
0.0459338359668
0.0458801965752
0.0472070720516
0.0485437122145
0.0450573154895
0.0381317381369
0.0300024588658
0.0224214028154
0.0165915038984
0.0123773248741
0.00919320597103
0.00640947984683
0.00416451624894
0.00254617689349
0.00129207151272
0.000577396037033
0.000223312002787
0.000105820722023
7.3643012257e-05
7.08807770916e-05
8.94664175309e-05
0.000118448911376
0.000139907201897
0.000133963031701
0.000436708728713
0.00435939611822
0.0131165086631
0.0235202826732
0.0342805350344
0.045466100921
0.0587559848575
0.0792227787426
0.11917237755
)
;
    }
    water_to_cooler
    {
        type            kqRWallFunction;
        value           nonuniform List<scalar> 
38
(
0.0637045773625
0.0646328826407
0.0657048308846
0.0668802492494
0.0681224767769
0.0694078089248
0.0707295319724
0.072096407293
0.0735263780631
0.0750380326766
0.0766426903104
0.0783390138671
0.0801108055044
0.0819278405991
0.083749206794
0.0855284689582
0.0872200441045
0.0887861706023
0.090203418527
0.0914671980214
0.0925930924278
0.0936148922493
0.0945788536711
0.0955359638339
0.0965451229777
0.0976451269956
0.0988573086155
0.100195886925
0.10167099399
0.103289473339
0.10505434846
0.106958402384
0.108978844518
0.111077112326
0.113203687094
0.115305510944
0.117330048173
0.11917237755
)
;
    }
    water_to_heater
    {
        type            kqRWallFunction;
        value           nonuniform List<scalar> 
59
(
1.09686945109
1.09686945109
1.03790732953
1.04373796488
1.1062060658
1.1062060658
1.19770596947
1.19770596947
1.2783144752
1.2783144752
1.32618911061
1.35655583251
1.39712880512
1.39712880512
1.39381136647
1.39381136647
1.32032669168
1.32032669168
1.24123209192
1.18707758901
1.15290698511
1.15290698511
1.15473776558
1.15473776558
1.2040184265
1.2040184265
1.30014870579
1.4306817776
1.54252178944
1.54252178944
1.57298818646
1.57298818646
1.56589803552
1.56589803552
1.67926669419
2.12862241548
2.91678312163
2.91678312163
3.50649797694
3.50649797694
3.38525823499
3.38525823499
3.09961967061
2.84933533968
2.63660822858
2.63660822858
2.45598554713
2.45598554713
2.31902708952
2.31902708952
2.24964996232
2.29297439279
2.46642434952
2.46642434952
2.76165284449
2.76165284449
3.10003075738
3.10003075738
3.23936111975
)
;
    }
    procBoundary0to1
    {
        type            processor;
        value           nonuniform List<scalar> 
41
(
1.23686445942
0.570910942009
0.303785397083
0.195109453585
0.151034694455
0.132560919688
0.12421125298
0.119807300036
0.115299950849
0.108516673185
0.0990928569589
0.0869239436255
0.0725195560206
0.0556176725285
0.0349414901306
0.0177853423263
0.0101741876582
0.00672320309582
0.00410883599478
0.00233516658927
4.51509130226e-05
6.8452112792e-05
9.78536721436e-05
0.000122027488012
0.000119754479348
7.61490980035e-05
4.34130328605e-05
0.000138807232279
0.00243828133172
0.00948502897262
0.0174660644535
0.0250308135097
0.0320018189406
0.039058617812
0.0480159247944
0.0629442283076
0.001028483171
0.000355057056768
0.00012284473118
5.18883851988e-05
5.18883851988e-05
)
;
    }
}


// ************************************************************************* //
