/*--------------------------------*- C++ -*----------------------------------*\
| =========                 |                                                 |
| \\      /  F ield         | OpenFOAM: The Open Source CFD Toolbox           |
|  \\    /   O peration     | Version:  2312                                  |
|   \\  /    A nd           | Website:  www.openfoam.com                      |
|    \\/     M anipulation  |                                                 |
\*---------------------------------------------------------------------------*/
FoamFile
{
    version     2.0;
    format      ascii;
    arch        "LSB;label=32;scalar=64";
    class       volScalarField;
    location    "0.82/water";
    object      p_rgh;
}
// * * * * * * * * * * * * * * * * * * * * * * * * * * * * * * * * * * * * * //

dimensions      [1 -1 -2 0 0 0 0];

internalField   nonuniform List<scalar> 
1497
(
101030.935489
101126.727191
101221.413282
101261.007741
101259.505568
101258.216573
101257.526393
101255.629658
101254.835611
101252.094528
101235.358237
101227.99077
101232.930794
100714.156735
101038.051451
100997.74942
100999.062833
101003.497783
101024.960454
101072.152272
101143.880661
101224.148386
101267.82186
101267.819457
101266.532257
101265.881367
101264.11191
101263.370594
101257.70159
101240.012154
101232.744445
101234.425785
101242.278468
100728.287022
101052.648384
101103.867578
101131.089596
101146.174206
101171.100744
101212.029819
101255.612837
101275.147038
101273.652312
101272.560667
101272.119879
101270.298963
101267.759851
101255.499677
101242.979447
101239.279455
101238.248338
101241.93098
101250.479809
100788.752347
101052.842326
101153.769652
101219.592427
101255.202878
101275.455076
101279.68523
101278.091226
101277.30801
101275.941552
101275.926754
101271.29797
101257.390026
101246.368109
101243.597339
101242.785971
101242.320643
101243.613858
101250.071411
101256.467565
100871.97286
101047.862213
101146.847607
101219.805135
101264.157642
101280.102381
101277.960496
101277.906821
101275.472964
101273.386862
101252.636942
101234.191567
101227.831001
101236.670705
101243.78675
101246.043804
101247.62416
101251.828679
101257.739073
101261.375047
100885.231976
100980.240278
101065.30411
101144.461466
101200.148707
101229.486399
101233.736403
101227.841886
101214.844906
101193.390924
101181.132561
101187.918462
101210.269537
101233.674739
101247.240079
101252.748661
101255.77447
101259.563424
101263.45209
101265.733288
100809.678711
100818.477025
100861.081
100920.89534
100975.749617
101008.101766
101016.112092
101016.525711
101024.48096
101046.416005
101085.55425
101137.832245
101187.703194
101224.758099
101248.242282
101255.302113
101258.85485
101261.864289
101264.60877
101266.476913
100704.985817
100668.84864
100680.745597
100702.993003
100724.229883
100735.929562
100739.958992
100755.846305
100805.851872
100884.014894
100971.583999
101061.826894
101144.032989
101207.983014
101243.683531
101253.374443
101257.243687
101260.748298
101263.98675
101266.989443
100598.026124
100594.985434
100620.600649
100628.280534
100626.127414
100621.380924
100619.285332
100634.470292
100682.814234
100767.318367
100866.193776
100970.401772
101076.504695
101175.067277
101240.390156
101253.58509
101257.742149
101261.68913
101265.546685
101269.053002
100551.423989
100590.696829
100622.081322
100628.233416
100621.486378
100611.794747
100611.584141
100618.82528
100656.466026
100726.442449
100816.514247
100917.690517
101028.463383
101143.223454
101236.067904
101257.744087
101261.578346
101265.589874
101269.250077
101273.17408
100552.676196
100600.975092
100634.740678
100642.892457
100634.176797
100621.630373
100617.563461
100624.850471
100660.256429
100725.684574
100810.98647
100909.493296
101019.959203
101137.975879
101237.941766
101264.432507
101267.970441
101271.240965
101275.054889
101278.305046
100554.229056
100624.674594
100661.283787
100675.412703
100669.904587
100655.851251
100646.019859
100651.350994
100681.46133
100740.259774
100821.953584
100919.275528
101030.207668
101149.541308
101248.569741
101272.460469
101275.169195
101278.507341
101281.210483
101284.833388
100569.614241
100656.830407
100682.106779
100704.155009
100717.518693
100716.395635
100710.154097
100714.834369
100739.708849
100789.680265
100863.287712
100956.574773
101066.948156
101184.79826
101269.375997
101280.787236
101283.305129
101285.386041
101288.43547
101290.670858
100610.12763
100675.46902
100687.867346
100706.236877
100745.009267
100783.635869
100799.410904
100812.879189
100838.393376
100884.012849
100951.477223
101040.345795
101146.611506
101247.591308
101287.417524
101288.877309
101290.475921
101292.835045
101294.354708
101277.673641
100645.807988
100678.92336
100687.892009
100701.332184
100741.974912
100828.774971
100892.536333
100932.00304
100969.725346
101019.520074
101085.693173
101167.480833
101250.277399
101292.558089
101294.772245
101295.852197
101297.587652
101298.616142
101284.560896
101262.359364
100649.588881
100677.484752
100686.495853
100694.234916
100729.937112
100828.009633
100954.478787
101044.302335
101112.323027
101177.115059
101237.085636
101282.357632
101299.804026
101300.267632
101301.035599
101302.451535
101303.113178
101302.411677
101268.083498
101267.440039
100628.082337
100675.475599
100687.539241
100692.935027
100722.963005
100819.842188
100968.818261
101114.104164
101227.013404
101291.526127
101305.435437
101305.541103
101306.175254
101306.451183
101307.899802
101307.959747
101309.554634
101303.577307
101271.523484
101271.889544
100607.082317
100684.936824
100694.717557
100699.314358
100728.499551
100822.403243
100975.705386
101143.027684
101279.519548
101313.363886
101312.826604
101313.729378
101313.196192
101314.785261
101313.794074
101315.429432
101314.562379
101312.774087
101280.638794
101279.244147
100602.678023
100713.637571
100718.052293
100722.874994
100752.880392
100843.004995
100994.099655
101165.400793
101300.570694
101322.109792
101322.40429
101321.334347
101322.893601
101320.89515
101322.702359
101320.591102
101322.243
101320.548353
101301.958959
101293.757061
100608.614686
100765.053739
100766.119238
100776.133894
100813.072427
100901.461359
101040.818305
101200.17107
101319.772661
101331.004023
101329.866213
101331.02681
101328.624716
101330.435981
101327.262775
101329.029818
101326.162367
101327.364719
101325.461895
101306.91292
100604.488902
100843.61996
100843.099856
100865.035488
100913.452744
101000.17087
101121.511263
101256.451743
101338.377599
101338.262108
101338.487415
101336.304627
101337.788734
101334.202762
101335.905427
101332.042687
101333.462707
101330.105745
101330.470707
101303.2753
100608.909927
100918.575261
100940.695131
100982.246159
101036.544402
101112.686047
101208.925435
101308.479766
101345.916529
101345.115388
101343.308927
101344.389056
101340.932398
101342.671028
101338.020949
101339.483125
101335.179604
101336.088261
101332.025646
101257.960663
100605.99855
100964.016977
101048.094191
101113.651337
101158.680663
101205.975272
101262.617006
101320.864093
101350.943365
101349.369302
101349.872267
101346.609592
101348.249532
101342.644095
101341.914647
101339.525422
101339.895428
101336.190841
101319.201162
101147.505354
100612.441359
101017.204427
101156.339712
101236.718636
101257.512391
101269.928382
101284.316123
101312.610861
101334.625313
101333.007583
101324.478238
101312.712041
101305.707901
101313.727416
101330.295888
101341.795102
101339.389281
101338.889889
101233.272047
101066.453967
100620.167922
101124.793128
101255.008898
101292.364
101290.241293
101288.678901
101287.080221
101285.995492
101276.997006
101270.685587
101267.701748
101275.985947
101296.039311
101317.225295
101333.321757
101340.440899
101340.721858
101292.807699
101119.773812
101061.803931
100742.367761
101270.075883
101298.497443
101298.231641
101295.113058
101294.965934
101290.80022
101282.888519
101263.696007
101261.060504
101268.294319
101288.275603
101314.214395
101333.027715
101338.644979
101338.570205
101319.588371
101184.075841
101041.03424
101058.526453
100982.466738
101313.896165
101312.607898
101307.32987
101306.448507
101298.131611
101295.784445
101284.281779
101269.717639
101276.54597
101295.194498
101315.563398
101325.841853
101328.185543
101327.995688
101310.731779
101221.28591
101070.050656
101019.556052
101064.536608
101085.928635
101256.242778
101247.579042
101247.248495
101247.976963
101250.015474
101243.520663
101235.61262
101246.61864
101271.030611
101287.17079
101293.409156
101291.753971
101276.452353
101237.848853
101160.541608
101046.680386
100981.969293
101004.837743
101066.515838
100917.539963
100904.48319
100898.021396
100912.771869
100950.851651
100986.96371
101020.140414
101068.939317
101136.583481
101184.469542
101201.966378
101198.364446
101151.309886
101069.843327
100972.116891
100891.19631
100856.512808
100894.763224
100974.296003
101047.720063
100690.698105
100602.804096
100596.178775
100603.032565
100631.368845
100663.112617
100699.593781
100764.641572
100876.722187
100963.702152
100987.406735
100962.200986
100873.531845
100774.813161
100709.027879
100686.424629
100708.886039
100790.962537
100906.4668
101011.115908
100581.897538
100541.852234
100513.58944
100496.7563
100498.655844
100504.261634
100514.844497
100543.996599
100626.077264
100708.991231
100735.368305
100715.344965
100667.183213
100631.686316
100619.945356
100619.947084
100638.106544
100707.462922
100829.501951
100965.551507
100581.093661
100544.969944
100505.024405
100477.126809
100471.744626
100470.944899
100473.588032
100490.388164
100543.427869
100607.439357
100633.920861
100630.415978
100618.153346
100613.717263
100614.650775
100615.898428
100620.840255
100681.389835
100801.520623
100945.055295
100607.950378
100559.763545
100508.839915
100475.21879
100468.055032
100468.060772
100469.787381
100489.168212
100537.629307
100596.670164
100627.119408
100629.791831
100620.394615
100615.119732
100616.20722
100618.049473
100632.585722
100696.137547
100816.189911
100954.858738
100626.333449
100590.129432
100523.152699
100478.654778
100468.789521
100468.693235
100472.280054
100499.244281
100549.315977
100608.158691
100642.078201
100649.845387
100646.735928
100643.23731
100643.634216
100654.533676
100687.693231
100764.481661
100882.288751
100998.533872
100628.76232
100620.777347
100552.002692
100491.958501
100471.079608
100469.136994
100478.717167
100523.955785
100597.478215
100666.10288
100696.200708
100712.166891
100724.270976
100731.321576
100738.334997
100759.22536
100806.595231
100890.448841
100988.040867
101044.235952
100626.931426
100630.091579
100593.467626
100518.633775
100481.892926
100474.777745
100489.638927
100545.870203
100662.013778
100782.330277
100812.781169
100827.718557
100856.104
100881.03901
100900.001097
100927.72316
100975.46023
101041.505339
101081.359869
101066.661721
100631.497124
100627.553228
100629.795004
100558.248673
100505.852516
100489.823557
100503.3473
100554.16388
100665.803402
100862.159049
100957.789431
100983.793056
101020.862097
101056.002486
101079.89949
101102.865382
101129.450902
101141.69305
101111.079515
101050.148184
100626.560056
100633.61753
100628.504877
100604.088135
100535.555549
100507.143232
100513.874386
100553.908419
100654.17554
100842.099329
100991.692218
101089.819778
101151.983107
101171.947978
101178.510666
101180.822931
101181.7858
101151.463843
101077.959385
100966.673813
101240.88962
101241.252356
101238.315293
101224.379571
101190.58079
101148.89406
101132.123423
101129.090753
101116.229613
101090.719241
101072.296023
100990.153682
100790.157393
100724.909638
100731.012338
100724.787205
100731.08849
100725.536054
101204.146919
101412.568469
101249.09975
101249.210603
101247.246718
101245.163178
101236.359422
101225.216359
101221.460657
101215.230801
101203.661137
101202.452963
101112.703678
100815.223997
100726.972633
100733.234568
100726.876334
100733.229899
100726.875719
100733.183957
101276.593836
101423.536915
101255.076526
101255.677713
101253.955941
101252.053313
101250.29214
101248.167702
101246.183523
101243.451388
101241.072539
101234.609446
100968.804495
100731.237773
100735.45553
100729.733777
100735.464291
100729.553212
100735.425413
100730.475102
101310.172897
101433.843467
101259.897601
101260.712455
101259.201579
101257.762279
101255.786072
101254.194208
101251.460782
101249.598443
101245.322548
101153.561279
100766.262589
100737.913745
100732.700061
100737.870341
100733.025744
100737.824856
100732.414784
100737.757248
101314.951101
101445.327964
101264.280563
101264.378021
101263.549172
101262.233597
101261.190788
101258.897477
101257.442742
101253.84944
101250.853121
100880.937285
100740.175091
100736.371241
100740.261714
100736.432624
100740.284885
100736.063121
100740.260048
100737.588565
101296.987175
101456.431961
101266.894141
101267.04296
101266.787763
101266.60006
101265.348648
101264.726291
101262.280666
101261.23114
101075.310385
100742.700711
100740.08937
100742.838875
100739.249153
100742.928181
100739.797059
100742.982049
100739.558497
100743.012831
101287.980961
101468.896802
101268.032576
101269.118116
101270.054402
101270.058841
101270.432541
101269.100998
101268.831562
101198.762592
100776.849323
100744.244275
100745.63454
100742.597952
100745.721017
100743.235093
100745.810585
100744.479629
100745.828345
100802.003075
101311.136653
101480.939762
101269.534366
101271.821475
101273.215902
101274.792558
101274.808114
101275.500497
101252.697455
100946.780281
100747.796503
100748.448989
100746.878857
100748.494633
100747.277689
100748.654514
100753.018935
100753.782956
100762.018785
100897.914977
101341.282994
101492.969101
101272.484509
101275.138837
101277.875472
101279.319014
101281.273328
101276.506263
101105.249314
100825.519985
100759.087845
100752.85907
100751.126785
100750.581463
100759.439266
100788.666936
100810.092865
100822.651283
100840.530749
100968.790608
101365.950462
101504.307844
101276.521897
101280.057309
101282.531317
101285.498119
101286.876685
101206.941011
100967.952479
100856.546956
100820.369067
100795.084378
100767.33216
100757.669348
100773.668217
100818.857044
100869.72416
100906.005181
100929.814762
101025.337698
101396.444448
101515.327371
101282.1159
101285.05161
101288.48899
101290.666017
101269.78702
101109.844455
100956.039655
100931.047385
100933.074768
100874.777978
100802.09242
100772.714658
100780.171667
100830.611749
100904.663295
100964.149998
100995.971163
101082.74769
101428.208219
101525.437758
101287.631437
101291.11494
101293.535333
101294.634775
101224.907169
101052.082833
100985.651713
101033.422234
101060.740981
100958.48973
100830.389812
100784.49786
100791.359405
100850.320232
100941.419769
101017.473458
101051.689675
101142.908663
101463.502489
101534.94541
101286.070057
101287.761656
101294.954488
101277.562032
101182.13366
101057.045779
101037.272359
101129.098668
101153.703395
101027.631718
100853.588998
100797.412405
100817.235956
100890.146219
100995.409555
101078.689595
101102.67504
101207.179134
101503.763265
101543.728721
101265.375311
101276.077018
101284.142137
101251.896998
101153.634266
101070.270428
101086.792442
101160.441122
101161.559652
101091.823915
100887.139203
100820.152041
100858.884988
100948.682573
101064.437707
101143.467866
101149.843523
101284.308355
101533.464525
101551.519047
101264.664854
101275.52242
101271.745331
101223.584795
101141.45571
101083.139321
101118.714322
101163.793551
101163.053208
101142.326994
100933.111211
100856.547879
100912.299271
101020.743638
101142.027234
101204.699958
101194.690402
101361.749295
101550.074831
101558.182898
101269.194188
101276.762003
101255.751937
101194.215226
101139.423468
101091.846258
101141.496478
101164.719066
101167.319495
101164.411402
100990.510451
100907.315614
100978.074675
101106.350957
101226.231986
101260.916455
101235.63654
101417.787284
101559.267692
101563.797979
101275.497603
101274.089536
101227.624212
101169.384287
101140.977439
101099.64521
101157.546822
101167.362843
101165.731033
101166.999274
101061.365753
100973.472308
101060.637096
101204.261843
101313.576277
101315.513548
101268.240148
101444.602759
101564.506006
101568.457422
101280.41387
101260.691319
101186.404513
101154.667368
101143.070938
101108.567662
101159.690591
101166.38182
101169.622231
101166.141164
101120.721687
101052.64207
101159.939269
101303.3805
101395.451744
101376.419064
101287.83
101444.917579
101565.986074
101572.171708
101283.245485
101218.788266
101148.717779
101147.995397
101143.92713
101108.642335
101142.172554
101168.754576
101165.507172
101167.899963
101135.447528
101138.971751
101268.862921
101393.794745
101465.260326
101432.334519
101306.361971
101414.766383
101559.317789
101575.008272
101256.114812
101155.589843
101131.466734
101145.953162
101137.23487
101079.18026
101084.413992
101163.93119
101166.693606
101162.862603
101135.211693
101224.012737
101371.237051
101466.598238
101521.735247
101483.371629
101325.539861
101365.52662
101538.065451
101577.2085
101188.899595
101114.237264
101126.721784
101141.835621
101101.788304
100997.63612
101008.900223
101163.924431
101160.51822
101144.927139
101149.302172
101317.199736
101453.354942
101521.565748
101561.520186
101527.949719
101340.72253
101323.794074
101498.510717
101579.201034
101109.333477
101107.230796
101126.85005
101122.647249
101021.82697
100924.66927
100959.119856
101066.753485
101086.414151
101098.974072
101237.267078
101419.692175
101519.100762
101563.741806
101582.454851
101555.484261
101345.036818
101287.489439
101441.56497
101581.208301
101082.622875
101105.661712
101126.178901
101082.608737
100943.432045
100911.42739
100951.152063
101008.113535
101051.918929
101154.287486
101370.311051
101513.404779
101570.020881
101587.721172
101589.741323
101568.063766
101334.481992
101234.465651
101374.917023
101582.997037
101079.319959
101115.375332
101123.746777
101033.307143
100917.156074
100908.686191
100957.75136
101027.479065
101109.641101
101299.408286
101496.891647
101576.55935
101592.814815
101593.77776
101592.811302
101571.324444
101321.145905
101170.326758
101306.527695
101584.172115
101086.43121
101122.242736
101110.980935
100998.225856
100913.765983
100907.846723
100972.14156
101075.514036
101228.168387
101447.619263
101573.879012
101595.871931
101596.176728
101595.387301
101593.974541
101571.723992
101317.546274
101123.792397
101244.956283
101584.670039
101101.609022
101122.603268
101091.325246
100983.702581
100915.114084
100911.47339
100978.080424
101114.40125
101336.619353
101535.54457
101595.249876
101596.709919
101596.190414
101595.450833
101593.951379
101566.378935
101302.963193
101099.861623
101204.432284
101584.539256
101108.170822
101116.627963
101071.055915
100977.260085
100921.6106
100918.375658
100978.233943
101143.948829
101416.329473
101571.564453
101595.833666
101595.535558
101595.199793
101594.631542
101593.134181
101550.719104
101258.150975
101089.821973
101226.227705
101584.031982
101102.064749
101106.579871
101057.659365
100974.147581
100929.423957
100926.299192
100986.641075
101191.12679
101476.530528
101583.5251
101593.892278
101593.81303
101593.692961
101593.34736
101591.872456
101532.519536
101196.013451
101083.988199
101304.111265
101583.194044
101088.39538
101095.02407
101049.018035
100976.284036
100937.049576
100934.700476
101012.34101
101263.665901
101521.096994
101586.879313
101591.63785
101591.88567
101592.027752
101591.996691
101590.514548
101515.438658
101133.027317
101078.32759
101381.787928
101582.362262
101071.592274
101085.668377
101046.425178
100983.226386
100947.1345
100945.910218
101052.782595
101344.49204
101550.548353
101587.385391
101589.681993
101590.254094
101590.755026
101591.087519
101589.195386
101485.219386
101114.087193
101102.232678
101444.751092
101582.209903
101055.365155
101078.486714
101046.679867
100993.333821
100963.949745
100966.620872
101106.636763
101416.263431
101567.965491
101587.827485
101588.776976
101589.643784
101590.391501
101591.044249
101587.484764
101440.032186
101119.867471
101200.833381
101496.966464
101582.828605
101048.705507
101074.589387
101047.241484
101006.649739
100986.71376
101003.771293
101180.649676
101475.514932
101578.246035
101588.626023
101589.688988
101590.654019
101591.594166
101592.365947
101581.561972
101386.625579
101162.141583
101297.621901
101529.436945
101584.354627
101052.272247
101071.023685
101047.074109
101023.625524
101019.202525
101058.303949
101268.799453
101520.434098
101585.949872
101591.749393
101592.807719
101593.849041
101594.78194
101594.744166
101546.985303
101325.300506
101240.557634
101353.572947
101543.443574
101587.387957
101056.95818
101062.679407
101045.765299
101043.256172
101063.714358
101127.116636
101346.494849
101548.006371
101593.118102
101597.197328
101598.294704
101599.269592
101600.213865
101576.963985
101438.953744
101327.497304
101333.18939
101368.175998
101541.888991
101592.427234
101057.145892
101046.112004
101038.309249
101064.640871
101115.469945
101192.685607
101392.02922
101560.958335
101600.914073
101604.740561
101605.831652
101606.805149
101586.418845
101448.0867
101429.352349
101425.690287
101421.077109
101346.535539
101498.567015
101599.543091
101039.111234
101010.846157
101019.556798
101081.638546
101162.866268
101239.466149
101404.104002
101568.320517
101609.988248
101614.167352
101615.309761
101599.546291
101458.207357
101454.195634
101458.543856
101542.249695
101500.85607
101302.592879
101375.889836
101607.813881
100980.520812
100955.339817
100992.212863
101090.308498
101196.398163
101268.448755
101399.630179
101565.657633
101618.390675
101625.189193
101613.052805
101467.834756
101466.146594
101477.688354
101563.661061
101619.183862
101545.918396
101254.639223
101245.25337
101608.47498
100891.197721
100902.966019
100979.07335
101097.463608
)
;

boundaryField
{
    emptyPatch
    {
        type            empty;
    }
    minY
    {
        type            zeroGradient;
    }
    maxY
    {
        type            prghTotalPressure;
        U               U.gas;
        p0              nonuniform List<scalar> 0();
        value           nonuniform List<scalar> 0();
    }
    maxX
    {
        type            fixedFluxPressure;
        gradient        uniform 0;
        value           nonuniform List<scalar> 
37
(
101412.568469
101423.536915
101433.843467
101445.327964
101456.431961
101468.896802
101480.939762
101492.969101
101504.307844
101515.327371
101525.437758
101534.94541
101543.728721
101551.519047
101558.182898
101563.797979
101568.457422
101572.171708
101575.008272
101577.2085
101579.201034
101581.208301
101582.997037
101584.172115
101584.670039
101584.539256
101584.031982
101583.194044
101582.362262
101582.209903
101582.828605
101584.354627
101587.387957
101592.427234
101599.543091
101607.813881
101608.47498
)
;
    }
    water_to_heater
    {
        type            fixedFluxPressure;
        gradient        uniform 0;
        value           nonuniform List<scalar> 
60
(
100714.156735
100714.156735
100728.287022
100728.287022
100788.752347
100788.752347
100871.97286
100885.231976
100809.678711
100809.678711
100704.985817
100704.985817
100598.026124
100598.026124
100551.423989
100552.676196
100554.229056
100554.229056
100569.614241
100569.614241
100610.12763
100610.12763
100645.807988
100649.588881
100628.082337
100628.082337
100607.082317
100607.082317
100602.678023
100602.678023
100608.614686
100604.488902
100608.909927
100608.909927
100605.99855
100605.99855
100612.441359
100612.441359
100620.167922
100742.367761
100982.466738
100982.466738
101085.928635
101085.928635
100917.539963
100917.539963
100690.698105
100581.897538
100581.093661
100581.093661
100607.950378
100607.950378
100626.333449
100626.333449
100628.76232
100626.931426
100631.497124
100631.497124
100626.560056
100626.560056
)
;
    }
    procBoundary1to0
    {
        type            processor;
        value           nonuniform List<scalar> 
41
(
100632.347167
100626.863765
100633.885493
100629.39538
100559.666559
100516.295646
100517.42133
100547.407213
100623.867927
100778.559799
100958.506916
101088.943381
101172.838115
101184.731626
101185.555119
101185.369506
101159.000947
101079.803344
100947.341996
100839.84587
101217.790135
101285.857521
101369.921884
101529.60294
101613.916542
101614.947775
101393.37852
101389.461215
101483.067279
101594.306904
101634.923939
101636.278109
101545.797151
101210.691236
101169.052322
101610.401194
100831.253711
100888.121001
100988.93069
101217.790135
101114.506374
)
;
    }
    procBoundary1to3
    {
        type            processor;
        value           nonuniform List<scalar> 
41
(
100950.689284
101048.385856
101155.230616
101237.860606
101251.151745
101249.907748
101248.487476
101247.780257
101245.772851
101244.863896
101242.369135
101230.312972
101225.668808
100711.282423
100945.802733
100896.395699
100887.974519
100888.239218
100907.051099
100955.033672
100955.033672
101231.045126
101232.821746
101225.545784
101197.684502
101137.423541
101072.574953
101049.056622
101050.680288
101046.91496
101026.298905
100996.424447
100988.906898
100968.170567
100877.518121
100739.644882
100728.998
100724.728865
100728.935155
101215.422696
101403.989706
)
;
    }
}


// ************************************************************************* //
