/*--------------------------------*- C++ -*----------------------------------*\
| =========                 |                                                 |
| \\      /  F ield         | OpenFOAM: The Open Source CFD Toolbox           |
|  \\    /   O peration     | Version:  2312                                  |
|   \\  /    A nd           | Website:  www.openfoam.com                      |
|    \\/     M anipulation  |                                                 |
\*---------------------------------------------------------------------------*/
FoamFile
{
    version     2.0;
    format      ascii;
    arch        "LSB;label=32;scalar=64";
    class       volScalarField;
    location    "0.5/water";
    object      rhom;
}
// * * * * * * * * * * * * * * * * * * * * * * * * * * * * * * * * * * * * * //

dimensions      [1 -3 0 0 0 0 0];

internalField   nonuniform List<scalar> 
1503
(
913.983599623
948.130973163
985.325613575
996.26779106
999.277685107
999.885564063
999.985595636
999.998978773
999.999980186
999.999999841
999.999999999
1000
1000
1000
1000
1000
1000
1000
1000
1000
693.686224161
870.824882777
946.297526212
981.566074469
994.084744947
998.403425321
999.641232626
999.938068831
999.994106884
999.999883537
999.999999649
999.999999999
1000
1000
1000
1000
1000
1000
1000
1000
693.683444449
828.900545034
915.765635746
964.007150854
986.034235687
995.303969735
998.688815262
999.710238014
999.958206434
999.997921556
999.99999158
999.999999991
1000
1000
1000
1000
1000
1000
1000
1000
693.684156368
790.096990084
877.826813978
937.835399631
972.005050978
989.177078638
996.543233902
999.12093736
999.840962224
999.985878546
999.999822461
999.999999827
1000
1000
1000
1000
1000
1000
1000
1000
700.849733418
767.237064797
839.0231886
901.982365385
947.909384132
976.673794394
991.555136155
997.628061402
999.515920732
999.942496284
999.998093342
999.999997466
999.999999999
1000
1000
1000
1000
1000
1000
1000
715.710057622
759.922133934
809.989683834
864.107785616
914.49751385
954.491317344
980.536329959
993.722704464
998.576684848
999.802282524
999.988873687
999.999949363
999.999999976
1000
1000
1000
1000
1000
1000
1000
728.173719156
758.590279649
792.195898257
833.31850701
879.550483447
924.51568964
961.034734169
984.687208583
995.866977734
999.327803863
999.949076389
999.999211825
999.999999617
1000
1000
1000
1000
1000
1000
1000
728.833677703
755.414213312
782.402879611
813.33578449
851.441883183
893.746131726
934.851904625
968.277071204
989.125970166
997.763289348
999.777706179
999.99303496
999.999995064
999.999999998
1000
1000
1000
1000
1000
1000
725.558521125
750.492221885
773.449206083
798.554200327
829.716783218
866.734098808
906.7643556
945.185513734
975.86775925
993.322951777
999.070483398
999.951939505
999.999584457
999.999999927
1000
1000
1000
1000
1000
1000
713.210259134
744.727608526
764.892280139
785.073775412
811.046188278
843.611754374
880.323389084
918.931551303
955.565699972
983.277969604
996.573531839
999.710378786
999.993250152
999.999997261
999.999999999
1000
1000
1000
1000
1000
709.927557299
742.472089556
757.602455407
772.563645384
794.005889411
823.122893571
856.975902405
893.345828954
930.648798444
965.564526128
989.571060892
998.55598277
999.934687686
999.999486296
999.999999941
1000
1000
1000
1000
1000
711.022374901
742.565027701
754.301797484
765.098548895
781.949086069
807.247675195
838.103308515
871.021332128
905.064698547
941.11673511
974.782654661
994.461039877
999.552704879
999.990948799
999.999993007
999.999999999
1000
1000
1000
1000
709.137582356
744.13207782
755.16872039
765.534690413
781.145095295
802.374281356
827.419852183
854.588493876
882.691755939
914.572321538
952.206323727
984.445649954
997.923953507
999.921217151
999.999506704
999.999999968
1000
1000
1000
1000
711.022057378
747.963721591
756.707723268
767.893376781
783.558454804
804.001367833
824.90019484
845.02219673
865.863074936
891.572227182
927.461114401
968.134399134
993.49175506
999.581987143
999.994346186
999.999995528
999.999999999
1000
1000
1000
709.413410678
754.136441451
760.701831729
773.489876406
790.493833056
809.706237116
826.679074306
840.438503197
854.945169111
875.570271181
907.615389994
950.144492053
985.741908541
998.588145353
999.968232098
999.999914907
999.999999962
1000
1000
1000
711.20800812
761.410870383
768.461488801
782.941480813
801.107553531
818.263176969
829.956528269
838.202306267
848.567984925
866.113788327
894.618125955
935.122383225
976.363927488
996.701329366
999.888668886
999.999405933
999.999999609
1000
1000
1000
710.263770342
768.005270874
778.541540136
793.494005295
810.091571393
823.573518996
830.975138785
836.202093997
844.371892281
859.88828636
885.036479135
922.618590868
966.641052985
993.902440969
999.707162776
999.99744615
999.999998106
999.999999999
1000
1000
711.348451797
771.699083613
786.657444429
799.831157526
812.687499357
823.570743627
829.531661753
833.000731047
839.913064148
853.138393085
874.168566692
908.599730077
954.799445598
989.477394158
999.263069038
999.98905109
999.999990269
999.999999999
1000
1000
713.497518382
771.814816281
785.555548925
797.741050525
809.508426265
818.978214921
823.684689682
827.069000783
833.120698907
842.803305049
858.6718644
888.435411534
935.634256868
980.239265166
997.840884588
999.940496661
999.999762768
999.999999999
1000
1000
724.200200502
767.238555013
774.086321342
783.272862273
795.04248509
805.944242386
813.079618424
818.666119685
824.662770201
831.751371356
841.506142148
860.959995077
902.480430487
958.546592278
992.697421335
999.624936236
999.99593
999.99999914
1000
1000
726.261166427
747.773903326
745.876257292
752.265076677
768.653387568
787.067250215
800.713414016
810.751724855
820.520307074
830.240012814
835.025146374
837.866571325
861.290978109
918.154248688
976.714508736
997.836175011
999.950321035
999.999869116
999.999999999
1000
711.086413411
717.61677868
714.333275611
720.526229796
741.154937894
767.594525715
789.116729722
805.431088498
820.712369024
832.400701155
835.826662487
835.892229215
836.655075303
873.290721641
944.179603268
990.785044858
999.58257526
999.99608182
999.999999674
1000
683.259820733
698.46964748
697.713639875
703.899229855
723.028819403
752.166680975
779.886160392
802.860105272
822.901235433
839.033429839
840.925602291
836.330699882
836.388679726
848.60106537
906.899888155
974.57111163
997.895458775
999.959914204
999.999941448
999.999999997
678.355637827
694.328342267
694.162934245
698.011220019
714.305408358
743.722798538
775.100094733
802.894338387
828.024223731
848.323365565
849.480528872
841.733681981
836.446931021
841.386840049
883.198707223
953.678873059
993.594919256
999.785458024
999.99878318
999.999999947
679.594815314
693.940801022
694.070443034
695.658661778
710.778456456
740.971514986
774.669492826
805.949348527
836.577197476
851.983224027
852.035715596
850.000243903
840.279466648
842.460781583
872.405115894
936.243803357
987.136745477
999.318419969
999.992989786
999.999999119
677.280981874
694.951697469
694.169527669
695.14761867
710.408571468
741.34050166
777.200148538
814.020053827
846.925247577
852.079756762
851.983222279
852.144791674
849.346984858
846.043686298
866.646239164
923.651117776
980.224392312
998.530003562
999.977861198
999.999972184
679.406012958
697.972088861
694.280259355
696.386635218
712.892877221
745.734002929
785.618668086
826.417664766
851.927986602
851.983176254
852.322335316
851.983211534
852.185053676
849.138961828
860.938386126
912.424698319
973.14130088
997.415617134
999.947741043
999.999849509
677.22154646
703.065895498
697.526011312
701.97334203
721.315358876
756.708441706
799.571486356
840.556808902
851.983118117
852.298484137
851.983177609
852.544259035
851.983192518
847.46686904
851.263554388
899.177179204
964.407553127
995.628132292
999.882024326
999.999451673
679.406071255
709.697485273
704.30428038
711.976887216
735.113694165
772.871569215
815.933523924
850.278372445
852.167366602
851.983131564
852.647386968
851.983166733
852.651811418
837.563127844
835.752603075
881.247552587
951.219869036
992.271490075
999.720454179
999.998241895
677.306519544
717.551230424
713.245244726
724.73471618
752.106588579
791.578147617
832.459205133
852.033605889
851.983074532
852.569834224
851.983132152
852.948295443
851.983144514
823.586073286
820.273001814
859.752674786
932.359501094
986.293934321
999.331929575
999.994547118
679.594534745
726.528804142
724.775291453
740.155627379
770.894170644
810.144759936
846.213824649
851.982999115
852.45142169
851.983087588
852.964801261
851.983118454
840.519317869
820.272970442
820.076277402
843.980451897
911.622150175
977.425937256
998.510231284
999.984054585
678.111419625
737.725208029
741.392855032
759.994747275
790.451392212
825.65240986
851.859790696
852.241773861
851.983031888
852.859106529
851.98308302
852.953653922
822.956027181
819.911624848
820.272938296
834.62705093
893.936095908
966.638717947
997.007725562
999.956283217
679.735090411
754.110598529
764.491238201
783.703347442
808.980154942
836.435942858
852.061865083
851.982958495
852.695525595
851.983037723
852.969048893
838.192635997
819.961474945
820.272903185
820.114377251
829.126225468
879.892157007
954.589352754
994.48419467
999.88601464
679.70180657
775.467684406
785.538587633
801.200627971
819.99947911
840.802710938
851.982848565
852.481019825
851.982981392
852.946509489
847.998809031
821.418442888
820.272863796
820.040190835
820.272862404
825.980788098
868.079518913
940.31932945
990.249593604
999.710653522
705.64482777
791.55891922
791.943245573
803.017124387
821.631409746
840.617923804
851.397515586
851.039223874
849.083191538
844.951507207
835.753924589
825.859211359
822.218516264
820.272819265
820.22317848
824.37979702
853.870041197
919.86150314
982.698777308
999.267143283
746.573848847
787.310713326
784.922006231
797.940948079
820.048627921
836.171004745
840.520172359
838.054205395
838.077095992
841.320936532
841.406964117
840.620188042
833.937982113
827.042096926
823.417937641
822.465194918
830.707313376
889.912653279
968.634979563
997.99869565
744.735315739
745.679915487
751.383595776
775.558270807
808.552694237
824.673932224
828.162786544
830.92292461
839.262053266
848.990696561
855.911259748
857.516000936
851.580648354
843.049026441
832.328000043
818.741264041
813.379341326
857.642263397
943.473319557
994.006438132
693.757550061
679.733232015
695.313291875
721.6451185
766.777673453
799.903893039
816.453575535
828.438659385
842.167056748
856.732662617
865.411728343
866.904989187
864.282595957
858.827287491
843.267077147
818.122814625
813.118226614
827.319174854
907.449854189
983.126007982
1000
1000
1000
1000
1000
1000
1000
1000
1000
1000
1000
1000
1000
1000
1000
1000
1000
1000
1000
1000
1000
1000
1000
1000
1000
1000
1000
1000
1000
1000
1000
1000
1000
1000
1000
1000
1000
1000
1000
1000
1000
1000
1000
1000
1000
1000
1000
1000
1000
1000
1000
1000
1000
1000
1000
1000
1000
1000
1000
1000
1000
1000
1000
1000
1000
1000
1000
1000
1000
1000
1000
1000
1000
1000
1000
1000
1000
1000
1000
1000
1000
1000
1000
1000
1000
1000
1000
1000
1000
1000
1000
1000
1000
1000
1000
1000
1000
1000
1000
1000
1000
1000
1000
1000
1000
1000
1000
1000
1000
1000
1000
1000
1000
1000
1000
1000
1000
1000
1000
1000
1000
1000
1000
1000
1000
1000
1000
1000
1000
1000
1000
1000
1000
1000
1000
1000
1000
1000
1000
1000
1000
1000
1000
1000
1000
1000
1000
1000
1000
1000
1000
1000
1000
1000
1000
1000
1000
1000
1000
1000
1000
1000
1000
1000
1000
1000
1000
1000
1000
1000
1000
1000
1000
1000
1000
1000
1000
1000
1000
1000
1000
1000
1000
1000
1000
1000
1000
1000
1000
1000
1000
1000
1000
1000
1000
1000
1000
1000
1000
1000
1000
1000
1000
1000
1000
1000
1000
1000
1000
1000
1000
1000
1000
1000
1000
1000
1000
1000
1000
1000
1000
1000
1000
1000
1000
1000
1000
1000
1000
1000
1000
1000
1000
1000
1000
1000
1000
1000
1000
1000
1000
1000
1000
1000
1000
1000
1000
1000
1000
1000
1000
1000
1000
1000
1000
1000
1000
1000
1000
1000
1000
1000
1000
1000
1000
1000
1000
1000
1000
1000
1000
1000
1000
1000
1000
1000
1000
1000
1000
1000
1000
1000
1000
1000
1000
1000
1000
1000
1000
1000
1000
1000
1000
1000
1000
1000
1000
1000
1000
1000
1000
1000
1000
1000
1000
1000
1000
1000
1000
1000
1000
1000
1000
1000
1000
1000
1000
1000
1000
1000
1000
1000
1000
1000
1000
1000
1000
1000
1000
1000
1000
1000
1000
1000
1000
1000
1000
1000
1000
1000
1000
1000
1000
1000
1000
1000
1000
1000
1000
1000
1000
1000
1000
1000
1000
1000
1000
1000
1000
1000
1000
1000
1000
1000
1000
1000
1000
1000
1000
1000
1000
1000
1000
1000
1000
1000
1000
1000
1000
1000
1000
1000
1000
1000
1000
1000
1000
1000
1000
1000
1000
1000
1000
1000
1000
1000
1000
1000
1000
1000
1000
1000
1000
1000
1000
1000
1000
1000
1000
1000
1000
1000
1000
1000
1000
1000
1000
1000
1000
1000
1000
1000
1000
1000
1000
1000
1000
1000
1000
1000
1000
1000
1000
1000
1000
1000
1000
1000
1000
1000
1000
1000
1000
1000
1000
1000
1000
1000
1000
1000
1000
1000
1000
1000
1000
1000
1000
1000
1000
1000
1000
1000
1000
1000
1000
1000
1000
1000
1000
1000
1000
1000
1000
1000
1000
1000
1000
1000
1000
1000
1000
1000
1000
1000
1000
1000
1000
1000
1000
1000
1000
1000
1000
1000
1000
1000
1000
1000
1000
1000
1000
1000
1000
1000
1000
1000
1000
1000
1000
1000
1000
1000
1000
1000
1000
1000
1000
1000
1000
1000
999.999999994
1000
1000
1000
1000
1000
1000
1000
1000
1000
1000
1000
1000
1000
1000
1000
1000
1000
1000
1000
999.99999994
1000
1000
1000
1000
1000
1000
1000
1000
1000
1000
1000
1000
1000
1000
1000
1000
1000
1000
1000
999.99999963
1000
1000
1000
1000
1000
1000
1000
1000
1000
1000
1000
1000
1000
1000
1000
1000
1000
1000
1000
999.999998
1000
1000
1000
1000
1000
1000
1000
1000
1000
1000
1000
1000
1000
1000
1000
1000
1000
1000
1000
999.999990419
1000
1000
1000
1000
1000
1000
1000
1000
1000
1000
1000
1000
1000
1000
1000
1000
1000
1000
1000
999.999962691
1000
1000
1000
1000
1000
1000
1000
1000
1000
1000
1000
1000
1000
1000
1000
1000
1000
1000
1000
999.999872073
1000
1000
1000
1000
1000
1000
1000
1000
1000
1000
1000
1000
1000
1000
1000
1000
1000
1000
1000
999.999527961
1000
1000
1000
1000
1000
1000
1000
1000
1000
1000
1000
1000
1000
1000
1000
1000
1000
1000
1000
999.997884594
1000
1000
1000
1000
1000
1000
1000
1000
1000
1000
1000
1000
1000
1000
1000
1000
1000
1000
1000
999.986904465
999.999997107
1000
1000
1000
1000
1000
1000
1000
1000
1000
1000
1000
1000
1000
1000
1000
1000
1000
1000
999.908258048
999.9998814
1000
1000
1000
1000
1000
1000
1000
1000
1000
1000
1000
1000
1000
1000
1000
1000
1000
1000
999.42910848
999.997659773
1000
)
;

boundaryField
{
    emptyPatch
    {
        type            empty;
    }
    minY
    {
        type            calculated;
        value           uniform 1000;
    }
    maxY
    {
        type            calculated;
        value           nonuniform List<scalar> 0();
    }
    water_to_cooler
    {
        type            calculated;
        value           nonuniform List<scalar> 
37
(
1000
1000
1000
1000
1000
1000
1000
1000
1000
1000
1000
1000
1000
1000
1000
1000
1000
1000
1000
1000
1000
1000
1000
1000
1000
1000
1000
1000
1000
1000
1000
1000
1000
1000
1000
1000
1000
)
;
    }
    water_to_heater
    {
        type            calculated;
        value           nonuniform List<scalar> 
61
(
913.924836345
693.518534007
693.518584129
693.518777814
693.518796606
693.518556689
693.51856167
700.685386186
715.549867537
728.017192808
728.01718717
728.676504806
728.676499658
725.399910493
725.399905903
713.046578071
709.762768585
710.8585033
710.858500636
708.972837835
708.972835644
710.858471951
710.858469691
709.249012549
711.044559681
710.099669766
710.099667191
711.184633598
711.184630656
713.333994549
713.333991115
724.040528255
726.101994776
710.921843603
710.921839774
683.085927715
683.085923806
678.18129409
678.181289894
679.421717302
677.10694431
679.233213716
679.233209545
677.047598659
677.047594575
679.233181265
679.233176916
677.132480756
679.421623284
677.9377561
677.937751835
679.56220998
679.562205552
679.527871721
679.527866737
705.478494472
746.423193084
744.581996895
744.581991856
693.584202637
693.584196669
)
;
    }
    procBoundary2to3
    {
        type            processor;
        value           nonuniform List<scalar> 
41
(
652.799236399
653.245482783
655.445038777
663.755747067
693.180712516
740.750632907
786.032240399
816.039968431
837.819751427
855.955994368
867.281567102
869.874144391
869.304600657
867.26386468
854.715946675
822.349195757
813.379238822
813.22960977
872.847585997
962.194172899
1000
1000
1000
1000
1000
1000
1000
1000
1000
1000
1000
1000
1000
1000
1000
1000
1000
997.308222538
999.972412482
1000
999.99999877
)
;
    }
}


// ************************************************************************* //
