/*--------------------------------*- C++ -*----------------------------------*\
| =========                 |                                                 |
| \\      /  F ield         | OpenFOAM: The Open Source CFD Toolbox           |
|  \\    /   O peration     | Version:  2312                                  |
|   \\  /    A nd           | Website:  www.openfoam.com                      |
|    \\/     M anipulation  |                                                 |
\*---------------------------------------------------------------------------*/
FoamFile
{
    version     2.0;
    format      ascii;
    arch        "LSB;label=32;scalar=64";
    class       volScalarField;
    location    "0.905/water";
    object      epsilon.gas;
}
// * * * * * * * * * * * * * * * * * * * * * * * * * * * * * * * * * * * * * //

dimensions      [0 2 -3 0 0 0 0];

internalField   nonuniform List<scalar> 
1504
(
4792.64286255
1263.17746313
359.010244851
117.169060348
36.0959471883
12.424534596
4.93187341901
2.25290869493
1.1991626272
0.742494088754
0.519610652872
0.395368683762
0.321299085361
0.308665364184
0.345717261102
0.373654951724
0.364705151376
0.295252449503
0.181530382494
0.0372462826365
4928.49826557
1360.94650298
406.893993478
132.014939148
41.3323912522
14.4086248727
5.72545403661
2.58970583002
1.35675671581
0.822373733059
0.563542652459
0.424225116533
0.345338351678
0.328918420973
0.357946733477
0.384043400795
0.384989414793
0.327264831896
0.221393019949
0.063563679044
5059.46464837
1441.70505072
446.350064492
144.596074698
47.6886209082
17.0328710939
6.75520951255
3.00985880914
1.54406077494
0.913295478664
0.612366863046
0.457904135728
0.375954666131
0.355698508339
0.375514165402
0.400464804637
0.415426158472
0.373443902892
0.271978240909
0.0989952073172
5222.62308463
1507.11607108
478.976286686
156.51956542
53.9209870123
19.7258471406
7.85526137926
3.47205947019
1.75078901469
1.01145575947
0.663918768313
0.495709901525
0.412749160879
0.387691378834
0.397005006974
0.423696177215
0.457340974952
0.435988689989
0.335125457934
0.143064765303
5313.07289548
1552.7828413
495.503692512
164.958683385
57.9923062147
21.6887629229
8.76002212816
3.89583570841
1.95131697163
1.10470959615
0.713761434182
0.536440008043
0.454753228559
0.423112343869
0.422392797952
0.455225808936
0.512324351182
0.515618275084
0.400787610865
0.194991144525
5544.71632714
1587.66879191
490.98884983
167.480329471
59.8037338865
22.7537860629
9.3688549238
4.23536231461
2.119137728
1.17874768745
0.757568260917
0.579143463757
0.501206732169
0.461428230601
0.453707480416
0.497256864079
0.581821454356
0.608508162964
0.473947205668
0.252697708087
5851.87612579
1652.69390411
507.903076845
169.531962091
60.1456757616
23.0966700728
9.70465898777
4.46449383334
2.22446611081
1.22120301676
0.792422572126
0.623483201548
0.551955122102
0.505662857313
0.494823515818
0.552422560442
0.664214875227
0.709682361098
0.561888921491
0.317129957702
6356.45987784
1686.63926675
516.366105552
168.841055977
59.38942454
22.9724855918
9.82842873023
4.55114643512
2.23614731853
1.22446352749
0.817951844411
0.669730684686
0.607371409558
0.559612829626
0.549799461653
0.62179267307
0.758414162562
0.824725639151
0.677640106094
0.394201013289
6626.22368233
1742.87777965
513.503207121
164.702411233
57.8031583358
22.5710001625
9.71867314474
4.43026350913
2.13672284588
1.18996029045
0.836510257463
0.717784939959
0.666227247812
0.624029684028
0.618872108533
0.703126189091
0.865539905634
0.958110152691
0.825124003534
0.493947089167
6421.57588826
1661.28024365
486.882415963
156.929335468
55.6478963759
21.8410382889
9.21246668053
4.05074104185
1.94013335604
1.13078470915
0.851401955944
0.764539303559
0.72455166654
0.690304178002
0.69380289934
0.788085551002
0.981449669411
1.10333155852
0.990719426036
0.625752476107
5995.3821509
1541.933118
454.237372931
148.254300858
53.0365266469
20.4190127446
8.21500636206
3.48883532194
1.7026673678
1.06908719161
0.863236947409
0.802295610386
0.772799810766
0.748631639721
0.759319107848
0.861689844345
1.09206727833
1.24614485206
1.15725207674
0.776358199242
5401.05483757
1383.26831542
409.875143245
135.924685651
48.4910908975
18.0074302051
6.91106488906
2.89107045814
1.48990246259
1.01872458447
0.864571912575
0.817058903772
0.795338046344
0.780342952349
0.795683002312
0.905130049111
1.16722821077
1.36307727111
1.29420998491
0.931352370327
4487.26923937
1164.71219944
357.141967782
121.621766337
42.982654932
15.3730727533
5.68698891585
2.42741963034
1.34969152059
0.977125488766
0.840728002159
0.791479418855
0.772324520326
0.763662639099
0.780702919707
0.8976417286
1.16433784977
1.40822917372
1.36048931217
1.04200223962
3297.98888166
969.204246371
323.013717783
113.022781986
39.4100066641
13.7858986173
5.08329612749
2.24730270567
1.29203480595
0.930203231843
0.779119453071
0.714485343176
0.691430745348
0.686349032357
0.70243183931
0.818502244346
1.05352504242
1.32398122802
1.33069244413
1.07961353131
2784.558716
967.761771906
345.258776541
123.328084261
42.2823319427
14.2840581518
5.20985215173
2.30614838657
1.28968203957
0.875677777965
0.687740823302
0.599870472873
0.564996594711
0.559180521705
0.574028757494
0.653170134093
0.849902950672
1.0928654462
1.18795951382
1.02582243832
3510.23727788
1267.26101797
443.392724856
149.972286143
49.658736082
16.8587991615
6.26977694675
2.72128757523
1.4142393764
0.864582386768
0.610895931393
0.488764934324
0.432583899728
0.416076590484
0.426310767021
0.468656814959
0.598115002959
0.789436250333
0.943761069148
0.896466151463
5354.59519037
1774.54653667
542.257216599
171.776962151
57.832884392
21.1750795668
8.50730711043
3.70026617225
1.78874219936
0.96747711223
0.598047823557
0.423849268777
0.33764774549
0.299938673144
0.295983266675
0.316528201177
0.376626635976
0.516578744379
0.672991666138
0.73649948878
6728.54275171
1838.69681369
563.501104222
187.770227442
67.0139448267
26.5346211959
11.5891537486
5.14690426746
2.40983570078
1.20738016092
0.667999333203
0.422039796422
0.299682139837
0.236719032059
0.212839645781
0.216789403232
0.244576208719
0.319944382865
0.462668289145
0.590071039815
6033.21144174
1646.74116396
513.561524659
180.297659895
71.2112716367
31.541927726
15.0573627861
6.84259929363
3.06692064701
1.50402185394
0.797938663738
0.471636310028
0.310292206403
0.222124621461
0.178904185434
0.168362621591
0.18065472076
0.222746272573
0.333496162959
0.484601406042
5356.88188147
1470.20942617
453.706141427
161.665026904
67.5184350804
32.4480280485
16.9146754097
8.28380499003
3.63041727117
1.76700084123
0.938953496764
0.546567043864
0.349485746443
0.2380790354
0.178538810765
0.156165534531
0.15882540041
0.185433783081
0.261778872952
0.424603392526
5088.62912251
1355.50349822
398.666791925
138.612091824
59.262532978
30.0850392533
16.5392667885
8.35637714292
3.90115472113
1.95136568384
1.05665665556
0.624112664791
0.399652577422
0.269174751739
0.197129094694
0.165870220225
0.161681048091
0.179505210524
0.240137227476
0.400995873836
5209.41389758
1302.79388157
357.179744022
118.946969036
50.5628262382
26.2541375487
14.618549667
7.46008186014
3.76034533637
1.98145993997
1.11555376046
0.681416891753
0.445144158625
0.304439702591
0.225583136725
0.188977714163
0.17998093132
0.191987998549
0.243690166204
0.404345500578
5826.17347772
1336.68647477
336.325295084
105.946466148
44.1025940831
22.3061267171
11.9387015719
6.3847134657
3.43185135984
1.90756016306
1.12437151459
0.71408195524
0.479776477327
0.337935159761
0.25866740994
0.220639432378
0.20891303048
0.217191789824
0.263645455389
0.423550305111
7128.51724411
1486.9466771
345.144028803
103.179406587
40.9744475011
19.431405564
10.3523523988
5.66988036702
3.15773644217
1.82019674896
1.11601331328
0.732318560664
0.505106131316
0.369593742145
0.295381264797
0.2589357292
0.245841043426
0.251328813005
0.295016505613
0.458172190494
9203.89754759
1815.6022101
416.254817753
121.558432715
44.9971177965
20.7514105769
10.5930831882
5.64406670516
3.10204267486
1.79470500748
1.1163799962
0.74279451
0.524273917103
0.401567079768
0.336142664651
0.302796262349
0.288815139946
0.291609575307
0.333523560759
0.503289837111
11494.5255635
2306.24461841
565.370212848
171.605591739
63.2890885987
27.2625060922
12.9122771223
6.41402602875
3.33134328324
1.85568743644
1.12716638076
0.745472946522
0.542271065155
0.436896957014
0.381496751448
0.351223083099
0.335793321296
0.33543381503
0.375805790309
0.549161280876
12392.1533716
2802.3495798
787.918327359
254.819643655
92.9597748982
37.9587291814
16.8149595577
7.80109386643
3.77066403469
1.95279906664
1.12739642686
0.745338490199
0.565111324626
0.477864324569
0.431390729993
0.402765646743
0.384631721303
0.379908254068
0.419086729996
0.58912173274
11293.9548171
3014.80315723
952.503360848
325.990532398
120.571748026
48.4070619296
20.7637751329
9.21724245108
4.15462412655
1.99239260138
1.11218808214
0.751043995562
0.596141918889
0.524181463244
0.483970228671
0.455205310121
0.432526102459
0.421840705702
0.457270726089
0.620754024532
9372.38808891
2883.20932727
965.85650994
345.365650426
131.449661154
53.3699115791
22.8200297406
9.84133045433
4.20373509773
1.94200966901
1.09134939191
0.766229405814
0.633089084223
0.571258243604
0.534671845426
0.50443176782
0.476157259496
0.457188152341
0.482623790388
0.63955646278
7690.69258975
2458.86372358
852.066246914
314.955777033
123.514440439
51.3351931815
22.0615193881
9.30791172974
3.90158043241
1.82860687352
1.07288451616
0.786436769843
0.666928206245
0.609809812814
0.574863358029
0.544047610615
0.51045784137
0.482304868782
0.492511416049
0.638806501702
6530.1172118
2047.98670713
707.862348203
264.662189966
105.887434516
44.8080974343
19.1984821774
8.02398285571
3.43776343478
1.70664890482
1.06016758148
0.799869285241
0.683959355638
0.626563732699
0.592869896167
0.564034622293
0.528775156016
0.492694249329
0.486432469005
0.595487812082
5483.85326157
1684.77832011
575.147796109
214.855323801
86.489571207
36.625225318
15.5897510472
6.64182786266
3.03386921387
1.62624699358
1.04883293304
0.792079116491
0.669997337164
0.608552097592
0.575430603104
0.552337212741
0.520179969302
0.481072389024
0.465596589573
0.522436296968
4432.47023589
1387.58802253
474.711090577
176.050802149
70.118039273
29.4766711137
12.7351071581
5.77553679235
2.89376351974
1.63303770353
1.04087022546
0.757917102727
0.620114344316
0.550214306328
0.515268045155
0.495538777334
0.471601491921
0.438937359494
0.419808795712
0.438547341376
3777.91212243
1243.24186089
432.141748302
159.240941256
62.8716921562
26.7119145301
12.1224624035
5.98748578434
3.19253170441
1.7727301624
1.05660121764
0.713074776467
0.547464594689
0.464116880651
0.422013213931
0.399384994582
0.384136835643
0.363678678533
0.347222012319
0.35015973514
3921.5279364
1332.89158744
476.365856943
176.1993935
69.3017742411
29.3954261682
13.7270363888
7.12022987535
3.88563750494
2.09444118443
1.1604813749
0.70893290886
0.491836999247
0.384644589541
0.328386142098
0.297176584146
0.281926845275
0.271392932247
0.262916320861
0.263427183469
4594.77837869
1576.50874603
572.137571991
211.461287054
81.2538206823
33.6421735802
15.6100006387
8.2529168258
4.66405190283
2.58134260249
1.40213713419
0.800116257749
0.497330498615
0.348702689163
0.272831757713
0.228308927881
0.203885003571
0.193808347639
0.1908401776
0.194066789499
4853.21369579
1537.89703247
515.593199257
188.473353141
75.6101964254
33.434429123
16.4554517652
9.09935008541
5.41701680343
3.17568516898
1.75489830519
0.982217988392
0.57572632169
0.36946105466
0.266888301413
0.206828001663
0.169413211841
0.151438415659
0.146863806014
0.150643390444
3918.47617953
1130.1200532
378.602709474
143.815200547
61.6636546053
29.6531577246
15.9227806656
0.0013331610483
0.00176357149415
0.00276622358122
0.00498819626286
0.00985090039587
0.0199003966888
0.0380712979165
0.0649666557015
0.0977014587941
0.132855668531
0.169083892693
0.20788704867
0.254820283035
0.324383311878
0.456775180426
0.767077557389
1.53202178352
0.00358760934954
0.00222019863034
0.00143652400264
0.00150985620173
0.00204392460087
0.00330033693672
0.00606573189768
0.0119656070285
0.0236063663402
0.0433265196038
0.0706370252285
0.102297921929
0.135339215789
0.168872054453
0.204547953159
0.247667170628
0.311783446228
0.434823625688
0.727882676503
1.45837251538
0.00467667196458
0.00262653784412
0.00165501116748
0.00172828311882
0.00239799124661
0.00397811064748
0.00740788751397
0.0144940977159
0.0277596494023
0.0487674227585
0.0760924348319
0.106425434281
0.137285985834
0.168176968623
0.200853399483
0.240347594355
0.299266810034
0.413193481426
0.689314942179
1.39249503876
0.00784557558527
0.00298305581036
0.00193085373039
0.00199943384616
0.00284509855563
0.0048328068118
0.00905900931002
0.0174613966775
0.0323060264047
0.054275523029
0.0812412366877
0.110043299202
0.138686619815
0.167003799044
0.196814483257
0.232876352163
0.286857560193
0.391911320714
0.651087009221
1.33202885513
0.0149435756078
0.00334496388272
0.00228787307007
0.00233901200265
0.00341005097671
0.00590316886964
0.0110631159881
0.0208749199918
0.0371676531928
0.0597352087211
0.086008628579
0.113123875748
0.139540702541
0.165364836825
0.192448907424
0.225274286173
0.274584030271
0.371009908057
0.612917685708
1.27399208192
0.0265374954384
0.00385930480856
0.00276232912466
0.00276898875094
0.00412433270742
0.007233326481
0.0134601117503
0.0247195965401
0.0422478034649
0.0650376845796
0.0903327272684
0.11564723428
0.139851679114
0.163274592945
0.187775796312
0.217562066758
0.262471279179
0.350524474292
0.574600246932
1.21513657168
0.041854930964
0.00475483245478
0.00341548643558
0.00331868112821
0.00502492448092
0.00886838393893
0.016275572857
0.028948429481
0.0474295686756
0.0700753817129
0.0941544536446
0.117591994677
0.139619264683
0.160743189652
0.182809350743
0.209753568284
0.250533412438
0.330483674081
0.536012377795
1.15219201254
0.0665613151858
0.00652912254356
0.00437539743597
0.00402441198557
0.00614804796372
0.0108422424118
0.0195026707423
0.0334700888843
0.0525717464644
0.0747349903937
0.0974105722037
0.118931183687
0.138837395895
0.15777527022
0.17755791852
0.201854617986
0.238772006242
0.310907594357
0.497142107802
1.08227387425
0.10228586798
0.0104129757899
0.00591163632172
0.00492849489008
0.00752001656213
0.0131623963226
0.0230871551957
0.0381479677473
0.0575170291846
0.0789046924894
0.10004216893
0.119642183285
0.137504309262
0.154379281421
0.172032234027
0.193870731555
0.227184195308
0.291818051951
0.458122653314
1.00342051752
0.15059223725
0.0187489159234
0.00849325350273
0.00608612011593
0.00915416551869
0.0158050922367
0.0269328062222
0.0428239179183
0.0621199021423
0.0824978384359
0.102015711071
0.119725148307
0.135637998754
0.150580262074
0.166256435109
0.185817740562
0.215775106015
0.273253557954
0.419251424798
0.915065978699
0.21689696254
0.0349415031327
0.0128496279829
0.00759756838322
0.0110561440671
0.0187229583884
0.0309240878376
0.047352347672
0.0662747286585
0.0854719878975
0.103336289385
0.119211961622
0.133282002748
0.146423667594
0.160271226425
0.177725777539
0.204563496669
0.255274016707
0.380967741211
0.818241592844
0.308897406704
0.0653572442054
0.0201089662053
0.00969356794676
0.0132321970138
0.0218549671976
0.0349485152463
0.0516233559188
0.0699270584998
0.087831311017
0.104045562719
0.118161903833
0.130500140259
0.141970157357
0.154129431578
0.169635857061
0.193578603204
0.237950406164
0.343790021975
0.715448962506
0.422709255699
0.113753965241
0.0304073859353
0.0129216101492
0.0157232197919
0.0251535978898
0.0389261158911
0.0555816594384
0.0730777340844
0.089622620748
0.104214554215
0.116653554641
0.127368772714
0.137288884744
0.147890590503
0.16159572674
0.182855474034
0.221350049548
0.308233285914
0.610242495502
0.536118089743
0.150711195535
0.0380057748122
0.0182312432219
0.0186565754261
0.0286123039669
0.0428240634182
0.0592236908707
0.0757678379078
0.090916986159
0.103926260324
0.114769928273
0.123964777553
0.132448067871
0.141613631428
0.153653938076
0.172428747654
0.205519961975
0.274721744097
0.506621545125
0.599081133293
0.22391757067
0.0491645702351
0.0256072420556
0.0222842709239
0.032256508475
0.0466296577226
0.0625614840023
0.0780431217824
0.0917804605452
0.103253467617
0.112582248874
0.120353739752
0.127506113261
0.135349642832
0.145853238927
0.162325210634
0.190471087271
0.243515363225
0.408420350319
0.63018818965
0.286122861655
0.0844568142737
0.0282199277447
0.026963242847
0.0361645113554
0.0503434581797
0.0656096367576
0.0799437258018
0.0922686849771
0.102257126998
0.110150468897
0.116591295807
0.12251283886
0.129142223495
0.13822938386
0.15256058685
0.176170551963
0.214672667433
0.31886159528
0.630587443087
0.329999463536
0.104783946007
0.0234353785885
0.0318385085933
0.0405412789804
0.0540136214954
0.0684043827653
0.0815199340949
0.0924418834295
0.10100035293
0.107535793267
0.112734022169
0.117518805794
0.123035380497
0.130817748458
0.143145874586
0.162549721067
0.188054563998
0.240281174237
0.604470502726
0.353305575848
0.14846634761
0.0318920466522
0.0304072902217
0.045617510843
0.0577858360325
0.0710277875924
0.0828480541894
0.092377120561
0.0995580842924
0.104808155993
0.108845231873
0.112579976575
0.117077313611
0.123656060893
0.134088799035
0.149505772488
0.163327522148
0.173964450472
0.56951061769
0.377077704575
0.191704329262
0.0468292735337
0.0214641282
0.0502302800859
0.0619770381071
0.0736336120875
0.084034945312
0.09216330665
0.0980076398766
0.102034865527
0.104983094236
0.107745846705
0.111308145808
0.116769884757
0.125373135115
0.13687264704
0.139964427509
0.120104042494
0.54044990228
0.409189793467
0.238447925992
0.0720201079927
0.020578127808
0.0480897428541
0.0670110801999
0.076453399186
0.085198693867
0.0918759737325
0.0964046080511
0.0992596065261
0.10118257258
0.103043149064
0.105744037403
0.110159206919
0.116989211934
0.124871085213
0.119942521127
0.0819353780019
0.526705347035
0.451304981219
0.290492881314
0.112872512205
0.0318227189399
0.0357276440668
0.0724808254069
0.0798346806858
0.0864793181046
0.0915817924991
0.0947876221802
0.0965085978616
0.0974621117554
0.0984815275279
0.100379991402
0.103794266638
0.108903369605
0.114053440105
0.109594189052
0.0772995330355
0.532259092453
0.504043022941
0.350650812361
0.167071616018
0.0437203926837
0.0267381534161
0.0742163015966
0.084331054261
0.0881150327393
0.0913901114909
0.0932178010342
0.0938245705995
0.0938553907235
0.0940835228149
0.0952147528879
0.0976176028626
0.100863575606
0.102942656815
0.0994985965346
0.0894389735751
0.555841785159
0.569348723092
0.432233611339
0.239024075775
0.0728579628816
0.0301378125562
0.0627159816555
0.090198991071
0.0905124546823
0.0914966894939
0.0918126164498
0.0912983689945
0.0904451531094
0.0899258551495
0.0903130371925
0.0916817702226
0.0929477184102
0.0917494102286
0.0885985334738
0.0976026056853
0.595225545302
0.646093826768
0.537978019163
0.336335803014
0.122646689621
0.0458906891059
0.0429480087171
0.0945952265131
0.0943510690972
0.092262272382
0.0908024133935
0.0891104661169
0.0873953591285
0.0861747138683
0.0858803141107
0.0863647148561
0.0861190064652
0.0828770183501
0.081376036142
0.107053313676
0.645805875678
0.731008903626
0.654274786769
0.433765747021
0.190474943555
0.0582138506775
0.0355081177718
0.0856291775732
0.100251637472
0.0943167300133
0.0905627223277
0.0875147836139
0.084891887889
0.0829840313719
0.0821458717908
0.0824358680993
0.0832321915309
0.0839084440999
0.0899348739439
0.133372788861
0.702902322431
0.817357339096
0.774521849311
0.540073481929
0.271868535108
0.0941901864526
0.0453518826607
0.0600220512256
0.105077459299
0.0984627355605
0.0915942042624
0.0868677943817
0.0832187460532
0.0805563653459
0.0790992729532
0.0791428368035
0.0812763503025
0.0878701662179
0.108030112125
0.18105340773
0.765552572915
0.90782447099
0.894994226924
0.661897027979
0.363307256515
0.143825668858
0.0615683398165
0.0441631934713
0.0956257486197
0.104507346023
0.0945562337197
0.0878012368857
0.0830961674762
0.0797410384339
0.0776645715385
0.0772963751008
0.0802527220171
0.0917779613643
0.128508515907
0.249076496621
0.832013505987
1.00069363707
1.01462095211
0.793317496896
0.454368768835
0.206200672526
0.0785231490518
0.0474896140158
0.070722875694
0.107601461175
0.100730002425
0.0920777361351
0.086853754557
0.0837309132277
0.0825817835927
0.0838875957962
0.0904105053487
0.110804254917
0.17219401498
0.364163076368
0.894524753647
1.08948508148
1.1234217111
0.928124110007
0.568963379085
0.286721823701
0.120301821118
0.0662671087789
0.0519098390409
0.0966107929693
0.111336524198
0.105157469551
0.10263133204
0.104996145214
0.110645195955
0.120538178683
0.139675956004
0.182486914324
0.292162925156
0.592506322499
0.937394326813
1.16574072561
1.2181306337
1.05625406405
0.708996178698
0.393120714889
0.177735695508
0.078055903044
0.0512726498124
0.0742175682434
0.123532139392
0.140787907715
0.152175914127
0.169073731095
0.190902338155
0.220195892928
0.266392064103
0.355079305112
0.555270369301
1.02524174853
0.940407140674
1.21617027319
1.2842463055
1.15466339569
0.843002585414
0.500231188696
0.250036153175
0.110767622762
0.0694948930444
0.059698483904
0.124669139574
0.204900584214
0.251335947849
0.289319296186
0.333581200427
0.391364845001
0.4805763522
0.645742966756
0.997540179946
1.75287774536
0.887520267275
1.21569559908
1.29925833458
1.20006230157
0.949968367431
0.61952212061
0.340005502721
0.159840607774
0.0802269881825
0.066552831536
0.104560476222
0.241011942255
0.370754265559
0.446009265639
0.51873233793
0.616599618739
0.767884405456
1.04222456177
1.61847680522
2.84501823699
0.779107136588
1.12783115289
1.24685223564
1.1879292644
1.00719374655
0.725015564441
0.429321152917
0.224657913267
0.115167611296
0.0927269740099
0.0914803292268
0.196210585572
0.424741536734
0.609910550689
0.733143999742
0.888323277409
1.12974084135
1.54735816159
2.39441014564
4.27902429947
0.616385408679
0.944492610377
1.12384375171
1.11263307037
1.00028871662
0.799860544305
0.536125673101
0.328112673448
0.179472651038
0.10878293536
0.11341034178
0.137783918709
0.303589243989
0.538497146041
0.575485842424
0.661299354818
0.881580674085
1.61794822821
3.18413649763
5.91973145592
0.43705426207
0.712292779547
0.93389448606
0.97650228057
0.929028240636
0.813054469048
0.628422135106
0.45228545026
0.311513319421
0.198619739793
0.142993233372
0.173207680509
0.196807957843
0.238128177307
0.279307343684
0.359967356592
0.485499321901
0.613334806422
1.18782976958
6.95342890289
0.30381952192
0.48550920943
0.70658878764
0.804797434752
0.810067398928
0.759756884224
0.661434855357
0.547052099772
0.450922231259
0.382464400349
0.318645624381
0.275110733518
0.255644775229
0.262539711838
0.318455734636
0.443069164277
0.706418838099
0.956509669245
0.875383682438
4.91434110864
0.217438376195
0.311490712294
0.503566202981
0.629325690753
0.673856448748
0.67044073556
0.633278665878
0.580788880078
0.530800766577
0.491365792802
0.469593687393
0.451178944937
0.434263479744
0.449103211648
0.561016669374
0.843274080242
1.50324700456
4.56089207129
1.525788695
3.7837095166
0.167157474434
0.219988792262
0.350371318144
0.481659028675
0.55101741611
0.575404974234
0.574751492793
0.561393230077
0.546187286372
0.534464280425
0.522036066108
0.504022777466
0.509578516855
0.614788699753
0.863309605599
1.38061439973
4.22301211657
13.3558626677
2.4323037721
3.8676750665
)
;

boundaryField
{
    emptyPatch
    {
        type            empty;
    }
    minY
    {
        type            fixedValue;
        value           nonuniform List<scalar> 0();
    }
    maxY
    {
        type            inletOutlet;
        inletValue      nonuniform List<scalar> 0();
        value           nonuniform List<scalar> 0();
    }
    maxX
    {
        type            epsilonWallFunction;
        blending        stepwise;
        value           nonuniform List<scalar> 
38
(
16.4472984926
15.6081097087
14.8028136714
14.0230568322
13.260025422
12.5050151043
11.7500754883
10.9893064876
10.2204567325
9.44602523327
8.67322111686
7.91296971062
7.17817419518
6.48165577951
5.83435403648
5.24441763338
4.71678855158
4.25296235906
3.85112885872
3.52623084472
3.34451693267
3.22348728103
3.10327504166
2.9978187543
2.95466798151
3.01015536075
3.23143299906
4.05082822094
6.50790288409
12.0220673373
21.4036252063
34.6367342159
51.150357171
70.1697205515
76.2665369645
34.668872339
16.4855636695
14.0748499651
)
;
    }
    water_to_heater
    {
        type            epsilonWallFunction;
        blending        stepwise;
        value           nonuniform List<scalar> 
60
(
15615.3795737
15615.3795737
16709.9451595
17669.5319893
18324.1511689
18324.1511689
18868.6041942
18868.6041942
19604.5263377
19604.5263377
20678.8959264
21793.4117576
21921.669223
21921.669223
20535.4349047
20535.4349047
18489.3289105
18489.3289105
15782.0166451
12044.9443046
8817.77260323
8817.77260323
8679.60093031
8679.60093031
12617.3420865
12617.3420865
20588.6266244
26704.9506254
25816.1385199
25816.1385199
23693.4068872
23693.4068872
22587.9544659
22587.9544659
22947.1624154
24834.5169026
28912.9913266
28912.9913266
35625.0954519
35625.0954519
43222.0668234
43222.0668234
46347.2942386
41792.8267867
34273.2800148
34273.2800148
27574.0139376
27574.0139376
22233.6634923
22233.6634923
17381.9948536
13373.9502572
11607.9231671
11607.9231671
12717.4168633
12717.4168633
16198.3281647
16198.3281647
18775.3047188
17266.0502433
)
;
    }
    procBoundary3to1
    {
        type            processor;
        value           nonuniform List<scalar> 
41
(
9.48345017747
6.00941122783
3.74255791392
2.14399601505
1.21011410063
0.699081840967
0.433642975596
0.298566392451
0.22123529568
0.170545447834
0.141715822881
0.130532975291
0.131091141298
3214.62132488
893.314153193
293.145098641
112.312088848
50.2788963484
25.8352282791
9.48345017747
14.9273830064
0.142792665676
0.175892720708
0.255019820808
0.375837809974
0.456049545656
0.493641122644
0.510225740696
0.516533610159
0.517664307813
0.514964329445
0.503558251762
0.489892441573
0.530741567918
0.709415597046
1.11983211281
3.88477484398
12.8312533621
15.431664405
2.81531508856
3.80883704097
)
;
    }
    procBoundary3to2
    {
        type            processor;
        value           nonuniform List<scalar> 
41
(
4594.81621425
1116.10860845
296.896542156
100.752373308
32.4574666702
11.1161384422
4.36194190628
1.9928985378
1.07032881409
0.674115827705
0.481367830397
0.371700592878
0.304620808184
0.297063260132
0.3402102248
0.370236062405
0.35312683425
0.273628760504
0.147519017569
0.0239354962426
0.00119025399379
0.00154162017914
0.0023471812793
0.00413201861035
0.00811099584577
0.0166664258124
0.0331108805454
0.059185485081
0.0926883650148
0.129852770845
0.168814042043
0.2108664424
0.261800243226
0.337054562054
0.479055452577
0.807331487367
1.61654158557
0.00354420498886
0.00182315204265
0.00126095931742
0.00126095931742
)
;
    }
}


// ************************************************************************* //
