/*--------------------------------*- C++ -*----------------------------------*\
| =========                 |                                                 |
| \\      /  F ield         | OpenFOAM: The Open Source CFD Toolbox           |
|  \\    /   O peration     | Version:  2312                                  |
|   \\  /    A nd           | Website:  www.openfoam.com                      |
|    \\/     M anipulation  |                                                 |
\*---------------------------------------------------------------------------*/
FoamFile
{
    version     2.0;
    format      ascii;
    arch        "LSB;label=32;scalar=64";
    class       volScalarField;
    location    "0.47/water";
    object      epsilonm;
}
// * * * * * * * * * * * * * * * * * * * * * * * * * * * * * * * * * * * * * //

dimensions      [0 2 -3 0 0 0 0];

internalField   nonuniform List<scalar> 
1496
(
2784.78856433
763.867162928
264.154893941
125.317868134
76.5982948219
50.5947357015
32.524425549
19.9087146126
11.8883050906
7.20504411502
4.62074859551
3.19126029381
2.41260907967
2.05060226772
1.95378905197
2.01841586746
2.14467617206
2.30753871811
2.36824393175
1.86048862061
2922.36162327
763.787688934
244.786562646
108.002418028
63.0448574051
41.3148960147
27.0517146896
17.1279616166
10.7367368194
6.9579212574
4.86910679623
3.69773123427
3.09383570659
2.89552869368
3.01001097638
3.30696639683
3.38057601358
3.06862146637
2.28206150873
1.65191171849
3071.77374116
772.245561386
238.092692897
100.591830189
56.7319779702
36.9650917934
24.6472016982
16.1557085848
10.6415267047
7.39246226043
5.61056695594
4.6568190847
4.27236607263
4.38002773698
5.02512783976
6.0356528367
5.65635854957
3.65658586149
2.01178783226
1.46448671432
3015.32882231
756.081177629
236.965973408
100.433842508
55.9366896781
36.2495591149
24.5255668778
16.6708508663
11.6155110312
8.63435507808
7.01365385634
6.24184590716
6.13835000237
6.74342904541
8.3298276773
10.5883338747
8.83079844585
4.25622520445
1.93181697913
1.27313944275
2517.85584065
683.088774522
229.729127669
100.052284888
55.1154584063
35.2539756231
24.2403535028
17.2772481238
12.8068468551
10.0734726114
8.54728867965
7.90126700918
7.97822091382
8.80525034049
10.6029792107
12.8391137449
11.3270433231
5.50038597282
2.14215355826
1.1014793972
2130.02929363
636.453665088
220.330137476
92.4708502153
48.2500702104
30.3804005804
21.6604792695
16.3051909729
12.5992760363
10.2712618738
9.04807498641
8.62664525122
8.84949800592
9.73995053728
11.4255509056
13.6103469469
13.0284204117
7.28527093981
2.6946723675
1.00456574523
2428.88455864
713.443765228
222.32304893
80.7645429918
38.2470541731
23.6489756297
17.6633572155
14.2451645695
11.772368122
10.3014132333
9.64074481013
9.56440153215
9.96151160537
10.8474755871
12.2753694155
14.0129662415
13.5978268031
9.52517579931
3.82453730939
1.03512123952
3626.79554893
846.438817778
220.123633775
69.0065412099
29.5231870172
17.545910092
13.5068345176
12.3585878962
11.5971006452
11.1502988219
11.0137878165
11.1585550358
11.5655873629
12.2292548317
13.1547791848
14.1039605971
13.5857583451
10.6391095205
4.76742559012
1.21184674871
4634.77729956
894.084218768
215.735030655
60.4922231716
22.9933899212
12.7324198535
9.88470675873
11.0028001926
11.8059034545
12.1981088975
12.4103125536
12.6172595839
12.8703911526
13.2041654768
13.587691522
13.8638323539
13.1571245001
10.6085236933
4.24542806079
1.36232608339
5091.30879392
939.69878381
217.499937899
55.0369236041
18.3549685005
9.30481658968
7.19618191533
9.86390616208
11.6758465175
12.594319991
13.0037639601
13.1788192809
13.2627877182
13.2958944236
13.2810935275
13.0728647775
12.059308112
8.84481243535
3.35116057876
1.34987029267
5845.22884864
1058.02169378
236.136245298
53.8624307204
15.4095706557
7.08803216005
5.44033363427
8.55919268165
10.8327907857
12.040872869
12.536685822
12.6770379912
12.6278222794
12.4663184584
12.170104435
11.571942069
9.89820903192
5.94503353562
2.55423520895
1.28800093988
6890.97009646
1230.2690369
273.416466553
58.9174572024
14.6880896631
5.99930623613
4.4205744078
6.81704830141
9.31162881843
10.6818337896
11.2343037975
11.3513396825
11.2242377825
10.9167608744
10.3756606402
9.26542324327
6.81912324357
3.80135606375
2.00527101151
1.26321966569
8140.29363326
1449.43058583
326.280215991
69.360884842
15.6344387676
5.60046682664
3.73090459349
4.98364917823
7.45178607011
8.90241124566
9.49103793194
9.59483774761
9.37969527016
8.89907958291
8.01300496813
6.41166735322
4.31502680068
2.65448150717
1.74451711132
1.29563999744
9430.42289415
1690.80596379
389.054924284
84.1803609528
18.0431675182
5.74658544961
3.36664369906
3.68142383389
5.54256292388
6.97719973864
7.61260771263
7.70194125696
7.36451740331
6.66227427716
5.57528311684
4.20789492113
2.99520143098
2.17937422844
1.70164843993
1.35582073102
10548.9672897
1916.84722721
453.075589306
102.598699138
22.11712126
6.47904978995
3.35961018129
2.99652859504
4.00640659408
5.19529458925
5.83569749243
5.90581327785
5.48834702232
4.76956447383
3.90213534835
3.11030910737
2.52168465567
2.1142821737
1.76241689148
1.38946487446
11122.1494535
2125.16800133
515.985858679
123.68994769
27.9332177344
7.87790117457
3.7228850828
2.80099458754
3.12376644639
3.89892231549
4.42619347121
4.50016989858
4.16667636895
3.6798412601
3.20261167898
2.83672483208
2.54379057536
2.22134354118
1.81073517313
1.36932477232
10999.3107651
2238.69081847
566.862171214
144.504781555
34.7887539067
9.8914307445
4.44933026701
2.99532050641
2.82357856332
3.20895733799
3.57441246608
3.70619714284
3.59441166218
3.39934935203
3.21205140013
3.02667042884
2.7462598139
2.31005840122
1.77537729752
1.33541050388
9997.81413339
2163.38432602
571.025658662
156.671861193
42.0203659208
12.4981112317
5.53248362834
3.51906721208
2.96918147865
3.05970739111
3.31322308019
3.54774162941
3.66588487439
3.66774689455
3.56911951796
3.32683580718
2.87871905443
2.27236369378
1.70196053871
1.30732372264
8240.90569426
1858.99000346
510.6660553
151.772362345
46.3050291347
15.6590984879
6.98369969262
4.37179487957
3.49667930838
3.36914859521
3.56474968916
3.90670567752
4.13330642082
4.13287251143
3.91666201636
3.4646830135
2.83132372514
2.15556788752
1.609789382
1.25730942957
6121.79203235
1434.69657387
421.151471421
138.106251717
47.9974471453
18.5111645022
8.87485922848
5.65199500143
4.44546828816
4.11168780401
4.24460466337
4.59002341095
4.68861644553
4.47429411239
4.01506288297
3.38657655
2.67190530831
1.99117889336
1.48953634526
1.18129278647
4249.48649425
1095.41304942
348.379406727
125.802667406
49.4774102932
21.6566401787
11.4883626765
7.59343250594
5.91293600806
5.281083746
5.24276141453
5.31407534074
5.02954723729
4.53175176892
3.90100463793
3.17680213775
2.43515652827
1.797993272
1.36214030599
1.10384276362
3083.15149287
875.879475439
300.203698489
119.86171221
53.5420469245
26.9041133806
15.7965088405
10.6203624817
8.05678422765
6.84401949264
6.33779678874
5.7849150876
5.09742109305
4.39047685114
3.63849982315
2.87305333961
2.17090878029
1.6169631066
1.2567045857
1.05172609402
2382.47329742
739.729648644
276.331630213
125.132342006
65.637978345
37.8092159591
23.3495111111
15.4759917734
11.1228531544
8.74063527441
7.27631420127
6.02603712464
4.99957491489
4.10614532693
3.28400091123
2.54210830374
1.92380085903
1.47141632592
1.18930162881
1.0333976634
2055.81451367
686.57677154
286.848993206
156.814338178
97.4056271103
60.2447777082
37.554111939
23.8262901118
15.6771188846
10.9957381212
8.09593968706
6.15713468612
4.77608393826
3.72187318023
2.88290009173
2.21804141769
1.72021366476
1.37906945026
1.16385404862
1.03554808656
2040.54111413
735.307862631
345.774009052
233.762598226
165.826541493
106.287921948
66.337792279
40.0058847771
23.3020194722
13.8790699034
8.8863007
6.13121902776
4.40409069696
3.26481331549
2.49245279195
1.95916897356
1.59517175815
1.34538170102
1.15844993599
1.01320238121
2531.58340167
886.406492009
401.604735509
317.71018844
253.251739972
175.818545671
116.585724362
71.3425150067
38.168685505
18.6761169862
9.95644285324
6.01797505851
3.99192789553
2.86459298932
2.20937777584
1.80524070192
1.5296834097
1.30404769645
1.08838124183
0.903114625669
4340.14730233
1152.49211412
411.609740988
337.417548161
294.062418142
225.140834932
165.334385026
111.892921557
63.1435773148
28.3631661758
12.9175084945
6.5944781673
3.93049923478
2.69983461153
2.07639858087
1.70627395423
1.41879002328
1.14107584029
0.888341877691
0.706145942182
6267.23163146
1436.96539543
453.432630749
318.931292104
292.132446759
246.669968792
201.321081759
154.187795555
99.7146962775
48.4779203489
21.0112253575
9.7564749934
5.09020506205
3.11637136249
2.18653134747
1.65527266123
1.24868290476
0.899980210408
0.642242707013
0.515351915842
6721.90515861
1687.81946671
532.796186398
309.219149955
272.879949809
244.954656766
215.161089771
181.381553299
138.066160273
86.2577146657
42.126421137
19.1082415237
9.30712013153
5.09992386709
2.93760635015
1.8014578272
1.13124230453
0.708425758588
0.468786549817
0.394334056429
6320.233804
1778.49827554
599.15018428
308.225676565
247.213100288
225.040815484
205.901385942
182.915533848
151.771552598
112.201316632
71.6407822278
41.1624975379
21.6548825326
11.6591935087
5.90155313734
2.5245074434
1.23849651424
0.660625814697
0.401443550144
0.329131986643
5572.84552529
1697.96001993
611.27257414
300.882732872
219.049822399
194.167691516
179.958630366
164.581390064
143.349677001
114.448489076
82.7413118241
55.6241767465
35.7219904921
22.9829793809
13.8901470928
5.91966510874
2.09521147829
0.885589967012
0.456562642384
0.31316605854
4794.54728491
1524.13195524
573.31647425
279.426715543
189.770947468
161.461685226
148.932686464
138.286188127
124.333341868
105.044080352
82.2724760476
60.8492279581
43.8107326001
31.7296447198
22.6477950223
13.2817755225
4.82429356534
1.78521532341
0.744298575087
0.393636515025
4169.35525039
1340.60957565
513.717170022
249.400006537
161.859351647
132.272132709
120.45962369
112.546925088
103.473770394
91.0868068992
75.8646080701
60.4394348378
47.2682866596
37.1453459648
28.8071509971
20.0033979561
9.825181625
3.67644348805
1.40768029625
0.626018977337
3698.5815779
1185.32680826
454.35969109
218.828222695
137.483288127
108.497008983
97.1897380917
90.88207668
84.7626105749
76.8852642842
67.0079526145
56.4828573629
46.9113198713
39.0265311206
31.9549889699
23.7773716071
13.8067296669
5.85140911127
2.31741371573
0.985483849082
3350.03337565
1063.15426064
404.155601871
192.150298176
117.544869266
90.0615450816
79.3312006054
73.9704427028
69.604867798
64.4582565692
58.0743119403
51.0389896628
44.3312633237
38.4427232713
32.6653848986
25.4146833809
16.0161294484
7.35400797012
3.06853866002
1.33205078165
3086.6744703
970.100213709
364.583335353
170.425618577
101.783220218
76.1340667699
66.0588696021
61.3430277101
58.0087175235
54.4950476956
50.2662077317
45.5459848884
40.887995273
36.5491107156
31.866425421
25.3966663658
16.5239157706
7.8687076428
3.41536104082
1.54404081435
2889.21859356
901.561448518
334.133721023
153.038592923
89.4889889852
65.7407884536
56.3967531836
52.1748058146
49.4834753979
46.9270007597
43.9864817011
40.7239096142
37.4554422202
34.2338543897
30.3428824715
24.3986177308
15.9418374685
7.79874814065
3.46432048927
1.61333827233
3.53863096552
3.42337593209
3.01346896049
1.42408727765
0.413446122233
0.0368473274076
0.00166434841128
0.0031623629829
0.0162837316162
0.0419470687946
0.0769190670869
0.139212627023
0.201155818313
0.257980933189
0.289068043902
0.331761302271
1.74664543595
2.38564371812
3.27720151845
3.99825880539
4.37254075166
4.06370855134
3.34785625707
1.159241227
0.219640191679
0.0082364576718
0.00125892670529
0.00291347030657
0.0152376195458
0.0426257921375
0.0763895655969
0.133517751584
0.194602801691
0.249397395646
0.293943279023
0.363435480597
1.78524143841
2.77262898631
3.96375959139
4.69026596578
4.97400839582
4.50989945866
3.47273087413
0.895067304784
0.13332228558
0.00489440140135
0.00139846469642
0.00271644668569
0.0144497368127
0.0437140009485
0.0786214990596
0.131111081599
0.188541839572
0.234645474367
0.287585787062
0.382516559999
1.72487824721
2.85247301815
4.20047883533
4.87076096266
5.0339362405
4.5238810707
3.21806186084
0.664641917592
0.100555922114
0.00612020581626
0.00171087827142
0.00265829921429
0.0139355705409
0.0455317443844
0.0840324781665
0.133446580342
0.183573348188
0.218290823239
0.273363167314
0.386237389308
1.4466764492
2.37731001349
3.65666652263
4.31479574409
4.42023188692
3.97654682508
2.58265623275
0.482612658063
0.0872267404834
0.0086218054414
0.00217365813556
0.00287474073197
0.0147220291409
0.0491637946081
0.0926401100549
0.141389424374
0.17968351666
0.203788919935
0.255408212232
0.375465154865
1.02817526674
1.55654080565
2.51966912084
3.18138267946
3.30528879988
3.02147868931
1.78262050859
0.350961755947
0.0763149440268
0.0109086730367
0.00279406189889
0.00349157788727
0.0175748585536
0.0556670501755
0.104834937955
0.154646064873
0.177666281848
0.191785949501
0.236596722042
0.353558319094
0.691449933627
0.862984740748
1.41924540567
1.97820056105
2.14579736358
2.03651840569
1.11695594642
0.263441101026
0.0655554480936
0.0121662010631
0.00350221682664
0.00465355021673
0.0224353253158
0.0657035405523
0.121469312822
0.170175488287
0.176695051445
0.182302842878
0.218111995294
0.323895034622
0.557238036583
0.523023663931
0.768521820995
1.14354810139
1.32204269049
1.32363243697
0.708619061723
0.210136818578
0.0571575866142
0.0124982310586
0.00418921910092
0.00640168088342
0.028988865718
0.0794678412247
0.143614418026
0.184067719084
0.175783913028
0.174413977233
0.200833677076
0.290144066083
0.57981228641
0.446984309135
0.523475836658
0.739707291607
0.893894208366
0.923613680358
0.502005805505
0.177962488405
0.0497292927716
0.0120297076611
0.00477551481365
0.00851777242929
0.0364233425483
0.0966176346518
0.170696928237
0.193150431649
0.175230078032
0.168099757819
0.185494895983
0.254850505508
0.677035115596
0.495784563914
0.489376770261
0.610956562113
0.729849102726
0.733390018184
0.400990102036
0.154081692697
0.0430066011105
0.0111497647285
0.00521924879013
0.0104835801028
0.0444313939631
0.117002390651
0.198093801649
0.199030564489
0.176436152085
0.164053450933
0.172220827167
0.219599465078
0.771196673257
0.58384950323
0.540487203617
0.617906204968
0.700141270469
0.642023983019
0.342186996242
0.131930485094
0.036683370994
0.0102171797553
0.00552118133079
0.0126906213384
0.0530327038584
0.140935862609
0.221574056254
0.205708043629
0.180509534511
0.162280186582
0.160172083939
0.185029895346
0.857386653193
0.678134801593
0.625533360281
0.684667009672
0.719352484287
0.578829011019
0.297039142238
0.10941295053
0.0304063839206
0.00931138215751
0.0057722714945
0.0155198899495
0.0621354025896
0.165107449327
0.239356364058
0.214351276999
0.186409983767
0.161868579467
0.148701766793
0.151888893002
0.943259743773
0.765883838741
0.724049105358
0.766414573128
0.7296244379
0.51409175763
0.25302246528
0.0864790049587
0.0242294852845
0.00842209598939
0.00607043870184
0.0188171311858
0.0712779231567
0.183432071245
0.253008621123
0.224827651229
0.193244003169
0.162273803012
0.137874827807
0.121473322919
1.01761680656
0.843580540992
0.821519507401
0.821928721813
0.696672063793
0.443552739432
0.201500311816
0.0640215875067
0.0188561256002
0.00761049516462
0.00650453634289
0.0228714549581
0.0804775311211
0.194351013047
0.264650946855
0.236552895495
0.20041472271
0.164320486439
0.131321262444
0.100144471325
1.06215319561
0.908195955073
0.889618783562
0.815900671991
0.625056629468
0.366501808161
0.145386965232
0.0446575080107
0.0148848117941
0.00686905542728
0.00696106239906
0.0278508693917
0.0905866688952
0.20314003448
0.276726164113
0.247808581553
0.207282733252
0.172621382009
0.147873255858
0.132780177451
1.07469840578
0.951928637205
0.898676788112
0.754963947912
0.533713526556
0.270716582229
0.0967963369292
0.0303852330243
0.0124793741985
0.00610031498451
0.00740653105014
0.0350845178241
0.104732725193
0.216635796206
0.28949915915
0.255029958206
0.211191512532
0.180272927445
0.164190418453
0.170685526405
1.07867275357
0.96734836013
0.858374284979
0.666484742765
0.410401530762
0.176478584494
0.0624384910837
0.0212969038389
0.0114066849999
0.00531635088435
0.00809241559809
0.0466217991039
0.124699253783
0.236684177991
0.298014167843
0.253844103698
0.211544011353
0.186694193542
0.178436366363
0.206896894119
1.08749700602
0.955836033346
0.794290254749
0.53647762238
0.272098538171
0.112305966499
0.042590703753
0.0162033541554
0.0110465715626
0.00468196866464
0.00914293077492
0.062660964952
0.150752237428
0.261493298912
0.296974837494
0.244929219121
0.210068914328
0.192529414785
0.189837852365
0.237452869422
1.08214567266
0.920240604304
0.696579088237
0.388588400774
0.18040135435
0.0790324551755
0.031601146225
0.0135207610886
0.0106546318214
0.00439588902679
0.0117095511867
0.0847870082028
0.185057149443
0.281151991317
0.279561821361
0.228487163469
0.209665057887
0.19856890451
0.197031345271
0.257808319961
1.047516057
0.867902084605
0.58231505525
0.290287483814
0.135024517969
0.0613380309759
0.0248238390706
0.0121625073792
0.00945198782349
0.00452935594367
0.0196514571813
0.128905604669
0.234557169603
0.273960621346
0.238735801025
0.20490952731
0.21205130312
0.206675732427
0.201346432612
0.266739018724
0.992562380483
0.803630380347
0.498198879154
0.236641021203
0.109885972918
0.0487968028718
0.0202677634534
0.011375833691
0.00742672990712
0.0054810138718
0.0525065504653
0.257565212962
0.274060803493
0.221183183151
0.174115361745
0.178366639924
0.224173260097
0.229120820223
0.211686748151
0.271072595874
0.947635224748
0.75505708373
0.442881989176
0.203457706389
0.0905303856889
0.0387776787186
0.0173111929545
0.0105989052324
0.00643731280991
0.0172077892373
0.243138023439
0.463784987456
0.225935702202
0.135234973938
0.101644765825
0.149034462032
0.252121617798
0.28341682645
0.240996281789
0.283801264474
0.935461679441
0.743666266941
0.417571603797
0.183289331637
0.0752772518184
0.0320664046212
0.0162308042805
0.0112333533638
0.0176392575265
0.21448380308
0.644135481347
0.417306697911
0.13122549689
0.0572737525485
0.0515727612038
0.117347236957
0.271880979095
0.336067473561
0.284423821677
0.309153653628
0.954876628421
0.79188293017
0.454670414546
0.189875373873
0.0737372099388
0.0352378019619
0.0265029582998
0.0448889527676
0.240579596715
0.71774936131
0.595870189635
0.244793860666
0.0407328588609
0.0210686753511
0.0323773002331
0.108335743742
0.275587298624
0.345904297998
0.313781633746
0.328065592696
0.985834851802
0.92769246755
0.659090622904
0.28744696888
0.12120301718
0.0744546114361
0.106287305689
0.333701956367
0.669056250525
0.652972107801
0.342221925198
0.0515802719776
0.0115745305513
0.0157843927143
0.0337828695149
0.120007936134
0.27027780407
0.345656323094
0.323145455419
0.326654967786
0.970532271561
1.11313253038
1.28668660834
0.877588673921
0.42505257003
0.27454953521
0.364981503395
0.53928268062
0.542875417902
0.249573986184
0.0505280214381
0.0146904077586
0.018631055348
0.0278188710637
0.0532867106981
0.139740807003
0.264356408899
0.344198525832
0.341109979296
0.319977680085
0.850591458316
1.13420585166
2.1530095385
4.69056575458
2.88492289266
1.04589477556
0.554856161917
0.323108947253
0.120358241719
0.0315452524459
0.0204101029533
0.0305870850234
0.0442329158802
0.059469986275
0.0890663203063
0.163438148025
0.27259440432
0.362899846863
0.383295257277
0.339617402859
0.682219407853
0.961334084119
2.50475832494
10.1597917021
11.1607234251
3.49040391244
0.662437880095
0.0905091357838
0.0144353646005
0.0135196303151
0.0271359534917
0.0500245273053
0.0848065247503
0.134620475658
0.172609783805
0.233121072733
0.347049559092
0.443102683978
0.465525890155
0.449359815616
0.57343017096
0.829470848525
2.03688634057
8.69036936928
14.3817833848
3.16049590295
0.892763144942
0.0855292288435
0.00636559178875
0.00971589238897
0.0248566437631
0.0518535437131
0.135706302739
0.31541174444
0.503816281168
0.614772962642
0.68248281101
0.648442444914
0.626956756523
0.687466247412
0.517567807414
0.763085087985
1.45398391904
4.89269897259
13.0499602953
2.66274174807
0.72043706634
0.190699127003
0.0287632740439
0.0105639209165
0.021111855056
0.0493228598419
0.147283394234
0.512252893816
2.00079919342
3.04209523178
2.21030785836
1.14249412512
0.908852326229
1.09393330505
0.454022759239
0.687489280692
0.996790559231
2.32933934798
5.89946193701
1.80025441019
0.658039350355
0.255041682726
0.0668995805956
0.0168331648332
0.0178476137175
0.047201500868
0.16067499906
0.611638432498
2.72429501686
4.73284454688
4.7852711394
1.68070355161
1.2211435456
1.77621563671
0.369316577225
0.571466249139
0.696027125221
1.184249369
2.42053186663
1.08666876328
0.548168470891
0.228312957506
0.0677152053053
0.0166383955004
0.0124442670497
0.0316417609175
0.112043129523
0.349011430156
1.22521819392
6.68685423636
9.33669312697
4.89446122666
1.70241657175
2.16382176461
0.329267975964
0.436030193935
0.517476847822
0.584169218576
0.976994880711
0.579140829462
0.341031577597
0.179166035571
0.0636944943628
0.0173978924206
0.0115033350946
0.0169995290513
0.0455241965106
0.146682388733
0.321336063647
3.35165626168
16.8040369399
18.1051768462
3.08454287249
2.28132432883
0.379731745459
0.364650365741
0.418125215407
0.43192366351
0.479234124433
0.411116468494
0.35805949774
0.245544776924
0.108680749423
0.0384027677333
0.0219001491951
0.0213715493038
0.0281516597663
0.0572512474945
0.164468708119
0.783300056843
36.2825225476
37.8630624733
4.93561653115
2.34102676004
0.513907146344
0.378372569993
0.385072834872
0.432162889579
0.500406221861
0.588522468174
0.690934805998
0.606819751816
0.341205658625
0.144114960729
0.0697826956545
0.0479999636592
0.0439147973024
0.0503910262778
0.101668257314
0.602848426444
45.9687461503
44.2742966561
5.81415715946
2.29602549306
0.677087394192
0.45136697507
0.419046571483
0.499525731198
0.633116391926
0.73896210469
0.806596287686
0.674543587311
0.452551578144
0.274906982093
0.150265863113
0.0983248958629
0.0779483853848
0.0683814433668
0.100948085859
0.755059200031
30.3120842455
63.8926564704
7.716499847
2.25796290847
0.81399845416
0.542137900056
0.481732213448
0.532092071244
0.595101750582
0.646962208339
0.690549795008
0.550245298777
0.338082118467
0.228148645554
0.167114757428
0.131344656652
0.104116921011
0.0830330682191
0.0876859507098
0.305810324111
11.7542629962
112.569755184
9.98879799627
2.71037473311
0.881328942123
0.593411402025
0.503199784501
0.52324532245
0.593569518051
0.707926488518
0.77395184961
0.619736878235
0.309685078991
0.204409536001
0.157968279926
0.129493203662
0.108682574901
0.0887707293958
0.0882268700581
0.217426375045
7.29867829237
198.694116855
2.51540789705
9.56529593421
)
;

boundaryField
{
    emptyPatch
    {
        type            empty;
    }
    minY
    {
        type            fixedValue;
        value           nonuniform List<scalar> 0();
    }
    maxY
    {
        type            inletOutlet;
        inletValue      uniform 0.0001;
        value           nonuniform List<scalar> 
40
(
2889.21859356
901.561448518
334.133721023
153.038592923
89.4889889852
65.7407884536
56.3967531836
52.1748058146
49.4834753979
46.9270007597
43.9864817011
40.7239096142
37.4554422202
34.2338543897
30.3428824715
24.3986177308
15.9418374685
7.79874814065
3.46432048927
1.61333827233
0.881328942123
0.593411402025
0.503199784501
0.52324532245
0.593569518051
0.707926488518
0.77395184961
0.619736878235
0.309685078991
0.204409536001
0.157968279926
0.129493203662
0.108682574901
0.0887707293958
0.0882268700581
0.217426375045
7.29867829237
198.694116855
0.0001
0.0001
)
;
    }
    water_to_cooler
    {
        type            fixedValue;
        value           nonuniform List<scalar> 
38
(
1.92022974298
1.97009873099
1.99278140719
1.99318155939
1.97898947797
1.95535651478
1.92692816923
1.89591123647
1.86411928366
1.82807498018
1.78086703506
1.72642659354
1.68025691732
1.67123982117
1.76314033209
1.88179505536
1.99149244919
2.04660111724
1.99814747221
1.85385603739
1.70550595533
1.65525611897
1.69926508186
1.77211338835
1.86820946252
2.0575784801
2.42865229124
3.0774171168
4.03292370343
5.22563023575
6.47296260983
7.16175079824
7.40796161194
7.48514143414
7.24606767889
6.73069660383
6.40878880992
12.0828838618
)
;
    }
    water_to_heater
    {
        type            fixedValue;
        value           nonuniform List<scalar> 
59
(
7286.76532197
7286.76532197
7398.66736692
7513.19620318
7074.29122211
7074.29122211
5961.55553727
5961.55553727
5642.46450468
5642.46450468
7321.59979345
11484.312731
14566.867522
14566.867522
15955.5764795
15955.5764795
17965.7227126
17965.7227126
20859.7627178
24427.505402
28282.7577816
28282.7577816
31816.4442902
31816.4442902
33982.440125
33982.440125
33754.7400713
30729.4293171
24651.8750942
24651.8750942
16969.8362955
16969.8362955
10906.8755006
10906.8755006
7635.48488242
6021.69115995
5425.48253578
5425.48253578
5656.99201842
5656.99201842
7715.65698336
7715.65698336
13841.8349343
20967.5533828
24184.9389859
24184.9389859
24286.3643626
24286.3643626
22372.2470385
22372.2470385
19739.5632703
17296.5461207
15341.1138802
15341.1138802
13826.2312805
13826.2312805
12669.7011834
12669.7011834
11819.8437353
)
;
    }
    procBoundary0to1
    {
        type            processor;
        value           nonuniform List<scalar> 
41
(
2756.81413471
785.640406954
293.297627311
150.762267543
96.5400967109
64.0784883861
40.355884989
23.9164595775
13.6857403122
7.83313381243
4.64551848393
2.9325725514
2.01214427008
1.56017660356
1.38106922464
1.36358159515
1.45741980115
1.66402036838
1.94926095791
1.97763622056
2.71458907431
2.77333435214
2.60754119984
1.63539654629
0.673415742811
0.137245829555
0.00688897012341
0.00340789035621
0.0175640879614
0.0417409117191
0.0790641666455
0.145695204161
0.206147810916
0.254815774421
0.272361921151
0.29535370412
1.70911371966
1.97114847866
2.54543881172
3.15460924135
3.15460924135
)
;
    }
}


// ************************************************************************* //
