/*--------------------------------*- C++ -*----------------------------------*\
| =========                 |                                                 |
| \\      /  F ield         | OpenFOAM: The Open Source CFD Toolbox           |
|  \\    /   O peration     | Version:  2312                                  |
|   \\  /    A nd           | Website:  www.openfoam.com                      |
|    \\/     M anipulation  |                                                 |
\*---------------------------------------------------------------------------*/
FoamFile
{
    version     2.0;
    format      ascii;
    arch        "LSB;label=32;scalar=64";
    class       volScalarField;
    location    "0.22/water";
    object      nut.gas;
}
// * * * * * * * * * * * * * * * * * * * * * * * * * * * * * * * * * * * * * //

dimensions      [0 2 -1 0 0 0 0];

internalField   nonuniform List<scalar> 
1503
(
3.20689970425e-07
1.22423611342e-07
5.09048388498e-08
3.42912183686e-08
1.27693211422e-07
9.33735151251e-07
3.99309863336e-06
9.08252576204e-06
1.37756294327e-05
1.67646598889e-05
1.83319784925e-05
1.90617325015e-05
1.93672779983e-05
1.94771440543e-05
1.95043713207e-05
1.95007753023e-05
1.948842575e-05
1.94758466125e-05
1.94657906386e-05
1.9458769826e-05
1.64223291895e-06
9.88206104011e-07
4.73700742902e-07
2.46448907855e-07
1.03674622976e-07
7.88504858787e-08
1.64654643031e-07
9.55649026959e-07
4.15444428963e-06
9.5229519812e-06
1.41932255842e-05
1.70469954658e-05
1.85009923147e-05
1.9156866483e-05
1.94171033278e-05
1.94994180266e-05
1.95097045294e-05
1.94956181841e-05
1.94769509989e-05
1.94610480634e-05
2.27966103162e-06
1.6507953302e-06
1.01981291248e-06
5.50543824488e-07
3.03940626347e-07
1.45840662476e-07
1.05079095036e-07
2.45201672038e-07
1.3098497881e-06
4.69346545271e-06
9.69706864411e-06
1.40618200385e-05
1.68858420644e-05
1.84194398512e-05
1.91511314033e-05
1.94556956931e-05
1.9556766342e-05
1.95714643459e-05
1.95556978171e-05
1.95339421166e-05
2.69592020202e-06
2.05590613847e-06
1.40314258614e-06
8.61149168755e-07
5.56030578468e-07
2.64201863139e-07
1.41954372436e-07
1.35776713628e-07
5.0330414443e-07
2.32470220435e-06
6.32734509634e-06
1.10485369567e-05
1.48403399392e-05
1.72699866241e-05
1.86092102935e-05
1.92593968172e-05
1.95320105744e-05
1.96201116503e-05
1.96288085704e-05
1.96100145269e-05
2.98330824176e-06
2.35210915081e-06
1.6846997913e-06
1.12270681983e-06
6.74654924166e-07
4.47457772537e-07
1.92978031222e-07
1.25781977032e-07
2.42407134927e-07
1.1859294603e-06
4.08481429157e-06
8.49086312918e-06
1.27459821681e-05
1.58866206192e-05
1.78395866841e-05
1.89048641148e-05
1.94169646457e-05
1.96256674063e-05
1.9686182266e-05
1.9684008409e-05
3.14251016715e-06
2.55338532785e-06
1.89559162769e-06
1.32722991284e-06
8.6654998969e-07
4.95818445792e-07
3.03548671531e-07
1.29833469519e-07
1.45668581929e-07
6.04374317025e-07
2.58908346497e-06
6.4299348835e-06
1.07934356082e-05
1.44222884743e-05
1.69161432719e-05
1.84104083558e-05
1.92041159418e-05
1.95729302537e-05
1.97125864498e-05
1.97426732797e-05
3.19882811907e-06
2.64029779356e-06
2.01421447142e-06
1.46584494076e-06
1.01342469026e-06
6.39011371519e-07
3.37050063561e-07
1.78576498242e-07
9.91410602914e-08
2.95658998799e-07
1.56271024689e-06
4.77059877392e-06
9.0381756572e-06
1.29745459191e-05
1.59120123768e-05
1.78120862239e-05
1.89038291789e-05
1.9459993204e-05
1.97021608264e-05
1.97797942392e-05
3.219925806e-06
2.67575113007e-06
2.07568739064e-06
1.5528365236e-06
1.1185291918e-06
7.53339275868e-07
4.44473647063e-07
2.20915481986e-07
9.81448969252e-08
1.31055482055e-07
8.39604796761e-07
3.40413754607e-06
7.46945716371e-06
1.15918211483e-05
1.48829320078e-05
1.71475566346e-05
1.85338120837e-05
1.92916156779e-05
1.96535601338e-05
1.97919918241e-05
3.23220957868e-06
2.69554425161e-06
2.1097112282e-06
1.60589879768e-06
1.19054810864e-06
8.41391105938e-07
5.40068369628e-07
2.84039907404e-07
1.36976198529e-07
6.9288123287e-08
3.42414170937e-07
2.20977232386e-06
6.02760947024e-06
1.02797080221e-05
1.38618409275e-05
1.64478939712e-05
1.8113146482e-05
1.90759243094e-05
1.95683308103e-05
1.97773853623e-05
3.24057790014e-06
2.70796130125e-06
2.12967623543e-06
1.63692409961e-06
1.23806140264e-06
9.07730361936e-07
6.20402294584e-07
3.63286328848e-07
1.55666019927e-07
7.1506794651e-08
1.07540166029e-07
1.14049669231e-06
4.62868572968e-06
9.00740289877e-06
1.28534363895e-05
1.57292256871e-05
1.7655658257e-05
1.88206442453e-05
1.94478975257e-05
1.97344563976e-05
3.22903872898e-06
2.70811447412e-06
2.1352572042e-06
1.65108605857e-06
1.2681373515e-06
9.57696114351e-07
6.86612446601e-07
4.3425265012e-07
2.08711714151e-07
6.86425960998e-08
5.4252341355e-08
3.85877620805e-07
3.17918746179e-06
7.6942252747e-06
1.18146362982e-05
1.49785016561e-05
1.71612882298e-05
1.85255060091e-05
1.92912631734e-05
1.96621342595e-05
3.20975531277e-06
2.69654891305e-06
2.12765396542e-06
1.6519155745e-06
1.28665809048e-06
9.96501548733e-07
7.40446968907e-07
4.94296741132e-07
2.58120324681e-07
8.60370896665e-08
4.43531965687e-08
1.1607610956e-07
1.73482171826e-06
6.23215817559e-06
1.06430169529e-05
1.41369231576e-05
1.66019554591e-05
1.8181748745e-05
1.90973261708e-05
1.95600990538e-05
3.18160843385e-06
2.67741909468e-06
2.11368682157e-06
1.64979024764e-06
1.30287791107e-06
1.0299521893e-06
7.84893634637e-07
5.43383259661e-07
3.00377174999e-07
1.04596719163e-07
3.49139928861e-08
5.6292307791e-08
6.68790483951e-07
4.52074565685e-06
9.17658412713e-06
1.3103538222e-05
1.59380962454e-05
1.77780565329e-05
1.88637325495e-05
1.94286542608e-05
3.17857209237e-06
2.66722906439e-06
2.107571459e-06
1.65776545362e-06
1.32657284221e-06
1.06399288153e-06
8.23742071954e-07
5.8437803318e-07
3.36868834309e-07
1.24761405118e-07
3.81338243946e-08
3.82846216608e-08
2.04077979409e-07
2.64620392804e-06
7.32402275983e-06
1.17924697118e-05
1.51229669206e-05
1.7295301508e-05
1.85852771354e-05
1.92679807281e-05
3.19050020917e-06
2.67458586373e-06
2.13115743187e-06
1.69564994358e-06
1.36827010646e-06
1.10247619822e-06
8.60078347001e-07
6.21274413694e-07
3.71868973811e-07
1.50789844048e-07
4.55893211603e-08
2.61797140615e-08
6.88183179864e-08
1.1800118211e-06
5.21859118391e-06
1.01450534265e-05
1.41002468319e-05
1.6705866471e-05
1.82525092336e-05
1.90768997096e-05
3.24048112277e-06
2.75579137487e-06
2.23455959997e-06
1.78707850598e-06
1.43045821234e-06
1.14281663836e-06
8.93739405739e-07
6.56380540359e-07
4.12382706191e-07
1.87933404071e-07
5.78192828317e-08
2.53694670801e-08
3.89368686837e-08
3.92961948902e-07
3.15726812345e-06
8.16729759116e-06
1.28215089023e-05
1.5978556114e-05
1.78518197528e-05
1.88516460195e-05
3.43382660607e-06
2.97041616344e-06
2.4150239107e-06
1.90201042158e-06
1.48982850525e-06
1.17554471356e-06
9.22019459322e-07
6.92616558528e-07
4.641315787e-07
2.37008593518e-07
7.61375117475e-08
2.78394015663e-08
2.85482420981e-08
1.01334615497e-07
1.51576864517e-06
6.00032028554e-06
1.12691425384e-05
1.50849667841e-05
1.73664044085e-05
1.85851117771e-05
3.72517508268e-06
3.20910559942e-06
2.55750372847e-06
1.97289919058e-06
1.52396673166e-06
1.19521420313e-06
9.43512791195e-07
7.29731436271e-07
5.21400148277e-07
2.96387937318e-07
1.02022938487e-07
3.18383975524e-08
2.3679071959e-08
4.69546652315e-08
4.89460264505e-07
3.89806872508e-06
9.48152852133e-06
1.40093725464e-05
1.67792578164e-05
1.82673473692e-05
3.89131658853e-06
3.27835671041e-06
2.59286689551e-06
1.99702911256e-06
1.5385684572e-06
1.20440065608e-06
9.58236562041e-07
7.61695247279e-07
5.74807185854e-07
3.58288047365e-07
1.34660765158e-07
3.71328607447e-08
2.38140012308e-08
2.95927116096e-08
1.19177507686e-07
2.03015711741e-06
7.55155055775e-06
1.27512283231e-05
1.60747091099e-05
1.78866117866e-05
3.96446478395e-06
3.33511696422e-06
2.63011094018e-06
2.01829703448e-06
1.54907354044e-06
1.20979753185e-06
9.6821040562e-07
7.8637110691e-07
6.18353844595e-07
4.1124042998e-07
1.66904155157e-07
4.30295050965e-08
2.38168920636e-08
2.75575786649e-08
6.79794504302e-08
6.72030658491e-07
5.58098489269e-06
1.13323645477e-05
1.52412778104e-05
1.74309267228e-05
4.01080722864e-06
3.37414038068e-06
2.66066313168e-06
2.03995812639e-06
1.55940656218e-06
1.21399130964e-06
9.74967091111e-07
8.04727415654e-07
6.52784021726e-07
4.53392288913e-07
1.9249310132e-07
4.75369932389e-08
2.36408178254e-08
2.57145571612e-08
4.09277698325e-08
2.07290342665e-07
3.64115841818e-06
9.81265526123e-06
1.42759682882e-05
1.68890611159e-05
4.01099177965e-06
3.38857472567e-06
2.67873604022e-06
2.05406580939e-06
1.56654068688e-06
1.21660391533e-06
9.79909571213e-07
8.2075137832e-07
6.83104011964e-07
4.86259679912e-07
2.10914116743e-07
5.05036772812e-08
2.33593492746e-08
2.41275852796e-08
3.40488893808e-08
1.15872412026e-07
1.8865166227e-06
8.16389855513e-06
1.31600970351e-05
1.62463105137e-05
4.00729055321e-06
3.39281156943e-06
2.68614267656e-06
2.05956057351e-06
1.56957746907e-06
1.21849434559e-06
9.8659427114e-07
8.39754832042e-07
7.11918040413e-07
5.11128039482e-07
2.24274116618e-07
5.29143065754e-08
2.32950544675e-08
2.31109329276e-08
2.91499820762e-08
7.6800096346e-08
8.30197205651e-07
6.40402519946e-06
1.18763299903e-05
1.54854297924e-05
4.00564044162e-06
3.39565110355e-06
2.6864121414e-06
2.05808730864e-06
1.56972248876e-06
1.22239197701e-06
9.98732198003e-07
8.6328930369e-07
7.37935804645e-07
5.29497096603e-07
2.35569971218e-07
5.61865276087e-08
2.36332061632e-08
2.27615211958e-08
2.6363110315e-08
4.75684084904e-08
3.74003221737e-07
4.66677639624e-06
1.04200169111e-05
1.45873084187e-05
4.03063736416e-06
3.40772378039e-06
2.68981348149e-06
2.05684084944e-06
1.5711212138e-06
1.23076604721e-06
1.01740226998e-06
8.88831275722e-07
7.59682866237e-07
5.42770266562e-07
2.46074692799e-07
6.07143777934e-08
2.43693580877e-08
2.29442177216e-08
2.52860905531e-08
3.312566121e-08
1.7938098749e-07
3.0676705873e-06
8.78386342871e-06
1.35280729167e-05
4.05033242691e-06
3.42198658359e-06
2.69531217146e-06
2.05727907807e-06
1.57500163029e-06
1.24338196175e-06
1.03989141073e-06
9.13186177256e-07
7.76972699725e-07
5.50796294419e-07
2.54763095797e-07
6.56242649911e-08
2.52506216752e-08
2.3440769197e-08
2.52328933552e-08
2.89324749876e-08
9.15752382527e-08
1.74624463011e-06
7.01746086101e-06
1.22941026926e-05
4.07485639321e-06
3.43183744139e-06
2.69498556455e-06
2.05522526132e-06
1.57942423173e-06
1.25859989592e-06
1.0631117247e-06
9.34842570222e-07
7.88765920526e-07
5.51996623077e-07
2.5930771662e-07
6.9402776587e-08
2.59315808792e-08
2.38777263344e-08
2.5644367841e-08
2.793593845e-08
5.798546413e-08
8.41216270444e-07
5.2661378592e-06
1.0898595919e-05
4.07657203557e-06
3.42426073175e-06
2.68061512731e-06
2.04675537658e-06
1.58384486511e-06
1.27632171171e-06
1.08653832588e-06
9.53382961014e-07
7.9251845727e-07
5.44478387846e-07
2.58494121545e-07
7.15625478541e-08
2.64862403154e-08
2.41119676317e-08
2.60427582728e-08
2.77664218225e-08
4.21880265258e-08
3.35287891038e-07
3.64990273829e-06
9.36155542323e-06
4.07338108849e-06
3.3937577697e-06
2.64703206441e-06
2.03209359278e-06
1.59203079014e-06
1.29917077053e-06
1.11101666979e-06
9.6704473049e-07
7.8558664504e-07
5.29112485357e-07
2.53569642396e-07
7.41342209553e-08
2.74542593451e-08
2.41905295848e-08
2.59420042149e-08
2.74084332262e-08
3.07543774128e-08
1.28503272933e-07
2.26347195437e-06
7.71437789916e-06
4.01720441041e-06
3.31804567244e-06
2.60241885048e-06
2.02976726941e-06
1.61791357235e-06
1.33254316112e-06
1.13646137351e-06
9.72106527699e-07
7.67425463059e-07
5.09220510114e-07
2.50461882857e-07
8.01831476337e-08
2.89306853138e-08
2.41287972077e-08
2.54324135651e-08
2.66548095812e-08
2.84850216668e-08
6.66884555093e-08
1.22469704332e-06
6.04197639613e-06
3.89932735026e-06
3.24314938497e-06
2.60162779563e-06
2.07738593325e-06
1.67737494388e-06
1.37836330661e-06
1.15787914164e-06
9.62523839522e-07
7.4140349824e-07
4.95756059899e-07
2.5835514789e-07
9.00414908107e-08
3.11736729532e-08
2.40747931806e-08
2.47797254287e-08
2.55703604265e-08
2.65354538932e-08
4.74509120809e-08
5.53986656918e-07
4.42759764755e-06
3.84067684535e-06
3.27256082646e-06
2.69541227256e-06
2.19101073403e-06
1.76425472199e-06
1.4227512503e-06
1.16211195702e-06
9.41087903906e-07
7.23807739182e-07
5.00611799153e-07
2.78425743989e-07
1.04547362516e-07
3.46304533335e-08
2.41721903868e-08
2.41306132107e-08
2.43915499193e-08
2.46704775309e-08
2.94436683102e-08
2.05188872036e-07
2.93088609288e-06
3.91285493525e-06
3.41484136283e-06
2.86587578914e-06
2.33541192333e-06
1.84477212755e-06
1.44965804874e-06
1.15590996869e-06
9.269356665e-07
7.26169129844e-07
5.25840948882e-07
3.12204715155e-07
1.25760687467e-07
3.99119138633e-08
2.45474427513e-08
2.35739648536e-08
2.32832542638e-08
2.29369422539e-08
2.49554640762e-08
8.17714894763e-08
1.69469367904e-06
4.11017508413e-06
3.64560111735e-06
3.07956544049e-06
2.47915531913e-06
1.92048985952e-06
1.47813783314e-06
1.16134201267e-06
9.3220625171e-07
7.48624508853e-07
5.68295867115e-07
3.60406155129e-07
1.56438320376e-07
4.79168538706e-08
2.5336640016e-08
2.31184259278e-08
2.22425085941e-08
2.13398102864e-08
2.22627938371e-08
4.87084674438e-08
8.26330232968e-07
4.37532181761e-06
3.91505627294e-06
3.30134155377e-06
2.6357419906e-06
2.01508767255e-06
1.52780685742e-06
1.18771165784e-06
9.55267157323e-07
7.83661145999e-07
6.20565494479e-07
4.20131122824e-07
1.98053227076e-07
5.95337564793e-08
2.66390121449e-08
2.27025049614e-08
2.11971324107e-08
1.96939521686e-08
1.98395184925e-08
2.81603096531e-08
3.02945840868e-07
4.5938954221e-06
4.11537974092e-06
3.48623779136e-06
2.80560846149e-06
2.13545120475e-06
1.60038631928e-06
1.23012159292e-06
9.87528069002e-07
8.21726778718e-07
6.73371676503e-07
4.83728950427e-07
2.47712715304e-07
7.50656424423e-08
2.84671384837e-08
2.22725443197e-08
2.00569408896e-08
1.79751936641e-08
1.75442443033e-08
2.14686877958e-08
1.0234999557e-07
4.68779835417e-06
4.21737527434e-06
3.63691540891e-06
2.97947431137e-06
2.26997835627e-06
1.68299165043e-06
1.27622932975e-06
1.01902170051e-06
8.55052740826e-07
7.18911611124e-07
5.41767323455e-07
2.98101343747e-07
9.33200130691e-08
3.08162634344e-08
2.18086649062e-08
1.88624603533e-08
1.63043447118e-08
1.52972017971e-08
1.74246929144e-08
5.27621039507e-08
4.72950000764e-06
4.29652847956e-06
3.78368915261e-06
3.1302081353e-06
2.39405957406e-06
1.75715391144e-06
1.31422241872e-06
1.04274937499e-06
8.79665375807e-07
7.53153383278e-07
5.87336683389e-07
3.41338303893e-07
1.11769601544e-07
3.35499725413e-08
2.13218936949e-08
1.76744427347e-08
1.47337259923e-08
1.31947363726e-08
1.40458155758e-08
2.74489030094e-08
1.94546642435e-05
1.94530100073e-05
1.94531994853e-05
1.94547912872e-05
1.94573874751e-05
1.94602745308e-05
1.94616907999e-05
1.9457196448e-05
1.9436039683e-05
1.93732511285e-05
1.9213088921e-05
1.88363692677e-05
1.80028650956e-05
1.62760962809e-05
1.30352192391e-05
8.01091734603e-06
2.87037954473e-06
4.76477806655e-07
1.49101821981e-07
6.78102721629e-07
1.94503464396e-05
1.94449178318e-05
1.94435946677e-05
1.94449687725e-05
1.94470449659e-05
1.94458389378e-05
1.94324780217e-05
1.93874062956e-05
1.92693640316e-05
1.89960408515e-05
1.84144074393e-05
1.72670457483e-05
1.51892469751e-05
1.18403319805e-05
7.35812670123e-06
3.05262941336e-06
7.30704340731e-07
1.91777678223e-07
3.50373760456e-07
1.34733937183e-06
1.95162452345e-05
1.95054989811e-05
1.9500474216e-05
1.94980713008e-05
1.94927548482e-05
1.94734714541e-05
1.94176244485e-05
1.9280608369e-05
1.89796161865e-05
1.83730383842e-05
1.72449040398e-05
1.53217497889e-05
1.23770582542e-05
8.49121155325e-06
4.42007220653e-06
1.51456521465e-06
3.75670147764e-07
2.36589003782e-07
7.05550450643e-07
1.96794251689e-06
1.95875918941e-05
1.95705801538e-05
1.95588018235e-05
1.95468129188e-05
1.95233480882e-05
1.94664629399e-05
1.93347949991e-05
1.90548328421e-05
1.85063046233e-05
1.75135303003e-05
1.58606620142e-05
1.33603951143e-05
1.00064448658e-05
6.19629019283e-06
2.84379100208e-06
8.91340063394e-07
2.89077266802e-07
3.89224542778e-07
1.16652149717e-06
2.47521276331e-06
1.96621375663e-05
1.96392633121e-05
1.96176984481e-05
1.95891443071e-05
1.95346684081e-05
1.94187478628e-05
1.91795610319e-05
1.87178963626e-05
1.78905681016e-05
1.65200682742e-05
1.44379198263e-05
1.1578472227e-05
8.1211603044e-06
4.62137938225e-06
1.9311902895e-06
6.01848823122e-07
3.05601763249e-07
6.42994233531e-07
1.63445053061e-06
2.84289148716e-06
1.9728338736e-05
1.97008370178e-05
1.96664099084e-05
1.96136275261e-05
1.95146387043e-05
1.93194423036e-05
1.89475660722e-05
1.82821278769e-05
1.71744513426e-05
1.54706415959e-05
1.3071070427e-05
1.00245920712e-05
6.63570234406e-06
3.51168190444e-06
1.37126119409e-06
4.67388367984e-07
3.96204597896e-07
9.69846246891e-07
2.03310704246e-06
3.09214308897e-06
1.97805215974e-05
1.97498897891e-05
1.96993671618e-05
1.96143845157e-05
1.94578416284e-05
1.9166183837e-05
1.86446340173e-05
1.77684138885e-05
1.63983189834e-05
1.44187968743e-05
1.18017713457e-05
8.68781086349e-06
5.45556079515e-06
2.70770227455e-06
1.01716093106e-06
4.22714168563e-07
5.55655708412e-07
1.31910207218e-06
2.33957905203e-06
3.25614931411e-06
1.98147849165e-05
1.97824650337e-05
1.97124875332e-05
1.95874599634e-05
1.93616514651e-05
1.89603315954e-05
1.82800233247e-05
1.71972547927e-05
1.55927502936e-05
1.33950241002e-05
1.0640638996e-05
7.53796568327e-06
4.50509037692e-06
2.11314859194e-06
7.94571699001e-07
4.42685913932e-07
7.73457850644e-07
1.64491599452e-06
2.56472083362e-06
3.36111721468e-06
1.98282939897e-05
1.97955251105e-05
1.97027773503e-05
1.95304430023e-05
1.92255820009e-05
1.87055763717e-05
1.78640258622e-05
1.65861997781e-05
1.47787965536e-05
1.24142894183e-05
9.58365452815e-06
6.54341895725e-06
3.72972880372e-06
1.66959649485e-06
6.63197373052e-07
5.17690630288e-07
1.02795011716e-06
1.92324762713e-06
2.72753975894e-06
3.42528363935e-06
1.98187478003e-05
1.97866116552e-05
1.96680246394e-05
1.94420613347e-05
1.90505758477e-05
1.84067388301e-05
1.74064680126e-05
1.59491222107e-05
1.39699926919e-05
1.14823112603e-05
8.62127977254e-06
5.67720910264e-06
3.0918407002e-06
1.3406424314e-06
6.00108987344e-07
6.42082497831e-07
1.29277746874e-06
2.15009519641e-06
2.84441934405e-06
3.46116058354e-06
1.97845593971e-05
1.97540581401e-05
1.96069549468e-05
1.93221772398e-05
1.88387257897e-05
1.80692174938e-05
1.69162438571e-05
1.52966905328e-05
1.31747496307e-05
1.05999761276e-05
7.74309669849e-06
4.91846443281e-06
2.56600010856e-06
1.10241995865e-06
5.91995898775e-07
8.07847494046e-07
1.54598247882e-06
2.33170490449e-06
2.92763637389e-06
3.4774137531e-06
1.97252441844e-05
1.96973592048e-05
1.95195017253e-05
1.9171883262e-05
1.85931557891e-05
1.7698753489e-05
1.64013155059e-05
1.4637154679e-05
1.23982947229e-05
9.76604673785e-06
6.93988705564e-06
4.25198571042e-06
2.135004992e-06
9.38190161916e-07
6.3092155402e-07
1.0028438729e-06
1.77480839141e-06
2.47677147414e-06
2.98621198544e-06
3.48011041588e-06
1.96415798722e-05
1.96173842742e-05
1.94069416426e-05
1.89934922822e-05
1.83178659641e-05
1.73012554604e-05
1.58687940443e-05
1.39769914187e-05
1.16439421598e-05
8.97860731512e-06
6.20432082637e-06
3.66716928314e-06
1.78674289854e-06
8.35508384641e-07
7.11254854744e-07
1.21270360712e-06
1.97515668133e-06
2.59305385457e-06
3.02674319447e-06
3.47353401257e-06
1.95352661367e-05
1.9516159773e-05
1.92716577043e-05
1.87902182814e-05
1.80173438511e-05
1.68824553987e-05
1.53248341619e-05
1.33211930847e-05
1.09137152667e-05
8.2356431697e-06
5.5308906118e-06
3.15670278535e-06
1.51183617726e-06
7.84861395039e-07
8.273037264e-07
1.42412711172e-06
2.14834000895e-06
2.68672939343e-06
3.0540007646e-06
3.46069105372e-06
1.94079716251e-05
1.93961000221e-05
1.91164401559e-05
1.85654842277e-05
1.76958888128e-05
1.64473388123e-05
1.47742978022e-05
1.26732314e-05
1.02085112706e-05
7.53511414463e-06
4.9154840615e-06
2.71526399621e-06
1.30211813765e-06
7.78960150725e-07
9.72046770189e-07
1.62738126104e-06
2.29790130241e-06
2.76263813708e-06
3.07139532425e-06
3.44362469871e-06
1.92600417602e-05
1.92588941288e-05
1.89435179104e-05
1.83220486938e-05
1.73568377343e-05
1.59995313135e-05
1.4220375854e-05
1.20349241771e-05
9.52810032662e-06
6.87485543269e-06
4.3548899405e-06
2.33844377937e-06
1.14998079977e-06
8.12137473255e-07
1.13718276643e-06
1.81704434304e-06
2.42770181171e-06
2.82459230079e-06
3.08135066938e-06
3.42362607167e-06
1.90894397637e-05
1.91045560821e-05
1.87537693712e-05
1.80613546415e-05
1.70020534101e-05
1.55409630082e-05
1.36644592712e-05
1.14064844869e-05
8.87123873512e-06
6.25257361827e-06
3.84645873708e-06
2.02207203514e-06
1.04840722496e-06
8.79628066991e-07
1.31412166575e-06
1.99128364963e-06
2.54116991444e-06
2.87559874099e-06
3.08560268985e-06
3.40141043282e-06
1.88915702271e-05
1.89311795258e-05
1.85465567215e-05
1.778345957e-05
1.66319621793e-05
1.50720377024e-05
1.31064454718e-05
1.07869194197e-05
8.23606009574e-06
5.66609131936e-06
3.3880303323e-06
1.76199116966e-06
9.91285343164e-07
9.7682345908e-07
1.49520581788e-06
2.15050451868e-06
2.64116132003e-06
2.91802856844e-06
3.08544215972e-06
3.377299652e-06
1.86599581626e-05
1.87354693058e-05
1.83202247635e-05
1.7487548826e-05
1.62461175074e-05
1.45922739e-05
1.2545453754e-05
1.0174773299e-05
7.62076155642e-06
5.1138537627e-06
2.97809311194e-06
1.55414854719e-06
9.73592831707e-07
1.09873366466e-06
1.67455888964e-06
2.29610009768e-06
2.73000814222e-06
2.95375727791e-06
3.08190821812e-06
3.35142220891e-06
1.83872622537e-05
1.85135157568e-05
1.80727945437e-05
1.71726444815e-05
1.58439813698e-05
1.41011779036e-05
1.19807672096e-05
9.56907661932e-06
7.02446562687e-06
4.59555270972e-06
2.6159778108e-06
1.39476219883e-06
9.9123183642e-07
1.23982655181e-06
1.84831621979e-06
2.4296416045e-06
2.80958415725e-06
2.98427446391e-06
3.07592553621e-06
3.32391076363e-06
1.80656881615e-05
1.82610728257e-05
1.78022923981e-05
1.68380920521e-05
1.54256013229e-05
1.35990832108e-05
1.14127637802e-05
8.97027050802e-06
6.44801066797e-06
4.11257847728e-06
2.30180470576e-06
1.28033680491e-06
1.04054435081e-06
1.39425489104e-06
2.01433512448e-06
2.55251160648e-06
2.88136371616e-06
3.01076156207e-06
3.06837596504e-06
3.29505801473e-06
1.76859551226e-05
1.7973084354e-05
1.75065728336e-05
1.64836827301e-05
1.4991997113e-05
1.30877171602e-05
1.0843553597e-05
8.38079357074e-06
5.89433520473e-06
3.66796808257e-06
2.03600100618e-06
1.207470842e-06
1.11772882385e-06
1.55632708218e-06
2.17166079871e-06
2.66582508113e-06
2.94648771415e-06
3.03414298089e-06
3.06010591015e-06
3.26539417139e-06
1.72366637065e-05
1.76431096979e-05
1.71829428318e-05
1.61094783427e-05
1.45451387649e-05
1.25702588499e-05
1.02770331498e-05
7.80503556394e-06
5.36818661488e-06
3.26567982618e-06
1.81848527077e-06
1.17257638745e-06
1.21843182431e-06
1.72100329488e-06
2.32001037732e-06
2.77047402857e-06
3.00583466192e-06
3.05511844467e-06
3.05188611717e-06
3.23567339585e-06
1.6704121206e-05
1.72631569035e-05
1.68279125656e-05
1.57154467182e-05
1.40874843036e-05
1.20508017688e-05
9.71827411545e-06
7.24861059856e-06
4.87516942568e-06
2.90937390574e-06
1.64789422599e-06
1.17168120523e-06
1.33768739118e-06
1.8842291844e-06
2.45941089339e-06
2.86718781533e-06
3.06008007643e-06
3.07418324591e-06
3.04435189347e-06
3.20678923945e-06
1.60726978648e-05
1.6824309589e-05
1.64373682172e-05
1.53011446521e-05
1.36213160224e-05
1.15334882292e-05
9.17253943327e-06
6.71725938829e-06
4.42048659936e-06
2.60118782975e-06
1.52124819697e-06
1.20038883391e-06
1.47018389028e-06
2.04302107081e-06
2.58999435518e-06
2.95656157519e-06
3.10973010856e-06
3.09164205333e-06
3.03795257896e-06
3.17966286772e-06
1.53294453931e-05
1.6318879226e-05
1.60075184519e-05
1.48658508157e-05
1.31483562955e-05
1.10218267659e-05
8.64442233944e-06
6.21585005391e-06
4.00785894886e-06
2.34101200353e-06
1.43416904158e-06
1.25395983507e-06
1.61068018993e-06
2.19532513266e-06
2.71188687897e-06
3.03904739069e-06
3.15513022533e-06
3.10762235161e-06
3.03292938515e-06
3.15515168573e-06
1.44693362012e-05
1.57429827367e-05
1.55363152766e-05
1.44092362755e-05
1.26699342448e-05
1.05185240775e-05
8.1374442577e-06
5.74781499834e-06
3.63897377178e-06
2.12648142263e-06
1.38143054122e-06
1.32743369602e-06
1.75436269055e-06
2.33974079324e-06
2.82513368002e-06
3.11492663984e-06
3.19646349611e-06
3.12209291093e-06
3.02932345465e-06
3.13400685541e-06
1.34913515575e-05
1.50962569297e-05
1.50238996969e-05
1.39318647262e-05
1.21873648386e-05
1.00256980464e-05
7.65410525618e-06
5.31509667797e-06
3.31353256762e-06
1.95351817174e-06
1.35749985263e-06
1.41573160138e-06
1.89702529435e-06
2.47521912261e-06
2.92964322361e-06
3.18429260891e-06
3.23375921463e-06
3.13489132669e-06
3.02700060504e-06
3.11687553234e-06
1.23930867327e-05
1.43785975768e-05
1.44712121308e-05
1.34347557044e-05
1.1701956733e-05
9.54506453469e-06
7.19611870362e-06
4.91840571952e-06
3.02966331972e-06
1.81702859197e-06
1.35684739524e-06
1.51373436763e-06
2.03508372696e-06
2.60083282122e-06
3.02516762226e-06
3.24706829199e-06
3.26692646244e-06
3.14576100497e-06
3.02567170495e-06
3.10431182853e-06
1.11746628138e-05
1.35878045915e-05
1.38779723659e-05
1.29182117431e-05
1.12144812065e-05
9.07780684873e-06
6.76450218211e-06
4.55744501107e-06
2.7843262529e-06
1.71141714641e-06
1.3740204459e-06
1.61638263191e-06
2.16551877102e-06
2.7156757142e-06
3.11134114601e-06
3.3030685997e-06
3.29581456985e-06
3.15439584487e-06
3.02489528389e-06
3.09675043987e-06
9.83061505588e-06
1.27163258202e-05
1.32405734829e-05
1.23803859218e-05
1.07242919654e-05
8.62409009921e-06
6.35934285054e-06
4.23086008726e-06
2.57349695934e-06
1.63083604769e-06
1.4036305136e-06
1.71885236416e-06
2.28584267194e-06
2.81889459027e-06
3.18777524764e-06
3.35209420604e-06
3.3202885476e-06
3.16049003623e-06
3.02406544735e-06
3.09441098327e-06
8.34455890339e-06
1.17483120779e-05
1.25508702819e-05
1.18164012788e-05
1.02285583233e-05
8.18240366551e-06
5.97926990091e-06
3.93591931044e-06
2.39216866017e-06
1.56929733843e-06
1.44041776493e-06
1.81681231084e-06
2.39412995157e-06
2.90981065726e-06
3.25418454001e-06
3.3940324685e-06
3.34030282196e-06
3.16379248034e-06
3.02240699358e-06
3.09713433354e-06
6.74421462491e-06
1.06687740352e-05
1.17981548927e-05
1.12186788125e-05
9.72195272656e-06
7.74897953743e-06
5.62085703081e-06
3.66815205377e-06
2.23437326668e-06
1.5208158359e-06
1.47946093138e-06
1.90670927703e-06
2.489093634e-06
2.98806579414e-06
3.31050614715e-06
3.4289398012e-06
3.35595754502e-06
3.16416376479e-06
3.01900617917e-06
3.10418841858e-06
5.13540681633e-06
9.4801959211e-06
1.09745470229e-05
1.05786813156e-05
9.19701664812e-06
7.31757113833e-06
5.27827263612e-06
3.42123073119e-06
2.09339343672e-06
1.47966661596e-06
1.51648800518e-06
1.98600110368e-06
2.57015847238e-06
3.05373768782e-06
3.35698353512e-06
3.45709112649e-06
3.36752877006e-06
3.1616293987e-06
3.01289739387e-06
3.11411413015e-06
3.60726304693e-06
8.19495474084e-06
1.00774650142e-05
9.88934389735e-06
8.64539235987e-06
6.87987725221e-06
4.94344198961e-06
3.18727014516e-06
1.96221129908e-06
1.44073571812e-06
1.54818153338e-06
2.05327322125e-06
2.63748368512e-06
3.10738953299e-06
3.39419921288e-06
3.47899193336e-06
3.375468827e-06
3.15641563785e-06
3.00319973407e-06
3.12469594121e-06
2.20740769874e-06
6.82589354818e-06
9.10950977914e-06
9.1475967957e-06
8.05969611894e-06
6.42666990824e-06
4.60687694865e-06
2.95762702875e-06
1.83417121193e-06
1.39989368513e-06
1.57238010958e-06
2.10821488465e-06
2.69191172503e-06
3.15004799091e-06
3.42305859416e-06
3.49536007295e-06
3.38038162876e-06
3.14895284791e-06
2.98926337161e-06
3.13311452922e-06
1.05833267705e-06
5.42356494487e-06
8.08534540558e-06
8.35616228147e-06
7.43489652058e-06
5.94929837231e-06
4.259191524e-06
2.72420366794e-06
1.70379583589e-06
1.3543199242e-06
1.5881389793e-06
2.15148493904e-06
2.73485833608e-06
3.18312986785e-06
3.4447389432e-06
3.50708403741e-06
3.38296724479e-06
3.13979638506e-06
2.97065152337e-06
3.13603948712e-06
3.79324660966e-07
4.06791243127e-06
7.03390590471e-06
)
;

boundaryField
{
    emptyPatch
    {
        type            empty;
    }
    minY
    {
        type            calculated;
        value           nonuniform List<scalar> 
40
(
1.94525977156e-05
1.94519615297e-05
1.94518626017e-05
1.9451739921e-05
1.94516178884e-05
1.94515022735e-05
1.94513937213e-05
1.9451293245e-05
1.94512018985e-05
1.94511194884e-05
1.94510457548e-05
1.94509801756e-05
1.9450921928e-05
1.94508702193e-05
1.94508244057e-05
1.94507839689e-05
1.94507485109e-05
1.94507177409e-05
1.94506914854e-05
1.94506696562e-05
1.94506526533e-05
1.94506409099e-05
1.94506341137e-05
1.94506316834e-05
1.9450633187e-05
1.94506383066e-05
1.94506468292e-05
1.94506586206e-05
1.94506736189e-05
1.94506918182e-05
1.94507132732e-05
1.94507381093e-05
1.94507665704e-05
1.9450799084e-05
1.9450836262e-05
1.94508784313e-05
1.94509249424e-05
1.94509767863e-05
1.9451047284e-05
1.94517603331e-05
)
;
    }
    maxY
    {
        type            calculated;
        value           nonuniform List<scalar> 0();
    }
    water_to_cooler
    {
        type            nutkWallFunction;
        blending        stepwise;
        value           uniform 0;
    }
    water_to_heater
    {
        type            nutkWallFunction;
        blending        stepwise;
        value           uniform 0;
    }
    procBoundary2to3
    {
        type            processor;
        value           nonuniform List<scalar> 
41
(
4.82534324751e-06
4.44194191595e-06
3.96073530155e-06
3.23974005272e-06
2.48545420471e-06
1.80568996585e-06
1.33699109963e-06
1.05653934122e-06
8.95418104683e-07
7.7600590169e-07
6.18013878756e-07
3.72365276074e-07
1.2777440522e-07
3.64271928557e-08
2.08122571309e-08
1.65027051949e-08
1.32720777878e-08
1.13227822202e-08
1.12319651236e-08
1.64557707714e-08
7.52305544756e-06
6.76910068263e-06
5.44148246461e-06
3.8930589411e-06
2.48097312445e-06
1.56758954428e-06
1.3027516702e-06
1.59572625794e-06
2.18457286596e-06
2.76821441275e-06
3.20837496332e-06
3.46065549219e-06
3.51523960384e-06
3.38413401129e-06
3.12998112117e-06
2.94815093015e-06
3.13211662737e-06
1.33696938033e-07
2.75396356896e-06
7.52305544756e-06
5.97117565324e-06
)
;
    }
}

