/*--------------------------------*- C++ -*----------------------------------*\
| =========                 |                                                 |
| \\      /  F ield         | OpenFOAM: The Open Source CFD Toolbox           |
|  \\    /   O peration     | Version:  2312                                  |
|   \\  /    A nd           | Website:  www.openfoam.com                      |
|    \\/     M anipulation  |                                                 |
\*---------------------------------------------------------------------------*/
FoamFile
{
    version     2.0;
    format      ascii;
    arch        "LSB;label=32;scalar=64";
    class       volScalarField;
    location    "0.255/water";
    object      km;
}
// * * * * * * * * * * * * * * * * * * * * * * * * * * * * * * * * * * * * * //

dimensions      [0 2 -2 0 0 0 0];

internalField   nonuniform List<scalar> 
6000
(
0.0364000287489
0.00858126395277
0.00161088979112
0.000318938547071
0.000148863322212
0.000138443867236
0.000140047045275
0.000141224261808
0.000141715205247
0.000141678603323
0.000141288725984
0.000140723669387
0.000140120012296
0.000139561688236
0.000139089329554
0.00013871398504
0.000138429743348
0.000138223194951
0.000138079509074
0.000137985723366
0.490305161752
0.152931923523
0.0421090735199
0.00974362955913
0.00181798199634
0.000355875404437
0.00015544953937
0.000140953314011
0.000142326927497
0.000143000061017
0.000142935798878
0.000142484498583
0.000141832701752
0.000141104168731
0.000140389605663
0.000139749032733
0.000139213628265
0.000138791898689
0.000138478128101
0.000138260215471
0.68390708869
0.257508595682
0.0924874639163
0.0297841139991
0.00774280332304
0.00154006385585
0.000314815326557
0.000152684080437
0.000142416837929
0.000143460405478
0.000143934346933
0.000143797302658
0.000143322447863
0.000142651253569
0.000141884137791
0.000141106199313
0.000140384790679
0.000139764362192
0.000139266677622
0.000138896202293
0.837454301635
0.334375793375
0.132839281666
0.0507689337927
0.0170955676166
0.00449367832745
0.000896035157412
0.000222791426532
0.000146930892142
0.000143550426007
0.000144346914012
0.000144584276181
0.000144376561521
0.000143889238389
0.000143218647101
0.000142446934485
0.000141653785871
0.000140909317189
0.000140265153455
0.000139751411275
0.91651475375
0.383998724253
0.161744831041
0.0675858942562
0.0264773099776
0.00882277756549
0.00219466421889
0.000447154238143
0.000169590223101
0.000144759769009
0.000144453506434
0.000144983051416
0.000145053452478
0.000144784978713
0.000144273637426
0.000143592057215
0.000142815324051
0.000142022038869
0.000141283892468
0.000140655477714
0.928540056476
0.40788138912
0.181001767705
0.0805458857916
0.0347065743569
0.013522859723
0.00424097693909
0.000969070147647
0.000243591253019
0.000151128495757
0.000144805825055
0.000145202687803
0.000145492435977
0.000145420553541
0.000145066976866
0.000144497983698
0.000143779464251
0.000142986807861
0.000142199514959
0.000141489027077
0.907493554687
0.411539503634
0.190582439208
0.0893294600244
0.0412095825278
0.0178122258076
0.00659812929074
0.00184838293437
0.000421787636299
0.000172364711598
0.000146511419427
0.000145449861195
0.000145791745269
0.000145858395279
0.000145630271896
0.000145163520228
0.000144514867266
0.000143750939212
0.000142949253959
0.000142188647982
0.886711025517
0.406926153477
0.194048905972
0.0947918324325
0.0459537473728
0.021239015139
0.00882767704646
0.00297006979788
0.000751951485027
0.000227100097991
0.000152208615365
0.000146010225607
0.000145996825922
0.000146109291059
0.000145966631872
0.000145586092755
0.000145011275651
0.000144296652074
0.000143510751795
0.00014273282702
0.863128313303
0.401768125163
0.196029138363
0.0985152525086
0.0492529979455
0.0237639886499
0.0106915206959
0.00417650647333
0.00126722961453
0.000345438633602
0.000169010829499
0.000147643907968
0.000146211823534
0.000146199779031
0.000146094330674
0.000145786250704
0.000145289729121
0.000144642560674
0.000143900730751
0.000143135874017
0.842996433069
0.401453482539
0.199632997233
0.101624546156
0.0514135646682
0.0254303248386
0.012152157721
0.00535535884811
0.00194087589933
0.000565916111124
0.000213808605031
0.000152771323707
0.000146794637733
0.00014624998456
0.000146097658401
0.000145842168146
0.000145425107415
0.000144856564406
0.000144174847124
0.000143440314756
0.855135225466
0.414446226842
0.206778599786
0.104521227612
0.0527501395401
0.0265847062228
0.0134070420585
0.00651734240158
0.00277003433107
0.000934172427084
0.000321793147008
0.000170936081441
0.000148912207126
0.000146563497013
0.000146158834757
0.000145903521278
0.000145545535428
0.000145044552386
0.000144416375205
0.000143708189497
0.930960774028
0.445837619267
0.216619036776
0.106907704987
0.0539133117296
0.0278834443653
0.0147616242092
0.00777991889038
0.00376773308717
0.00149424046053
0.000530204199352
0.000227912406598
0.000156155883678
0.000147746957026
0.000146544053749
0.000146160433094
0.000145802234012
0.000145325212082
0.000144713732656
0.00014400115608
1.0674979
0.479834920346
0.224424977105
0.109737704783
0.0560143619703
0.0297595446956
0.0163711059882
0.0091757605725
0.00491787497723
0.00223502268705
0.000854723823712
0.000360700912475
0.000181223826523
0.00015106315717
0.000147522749347
0.000146760765775
0.000146305346185
0.000145781637724
0.000145125593252
0.000144356745187
1.13375530754
0.500954924772
0.232475722159
0.113659484485
0.0585747452336
0.0317522143064
0.0179990589002
0.0105331296354
0.0060845858053
0.00307733324188
0.00128350514774
0.000578223006016
0.000255547364449
0.000160305388483
0.000149412122829
0.00014775543234
0.000147078883297
0.000146430617862
0.000145661974177
0.000144778464622
1.15067836441
0.51043486092
0.237120015669
0.11615367387
0.0603328153678
0.0332474257848
0.0193345532155
0.0117195615575
0.00712651047239
0.00388290394508
0.0017294004572
0.000835566546012
0.0004075226407
0.000187013041085
0.000152896698819
0.000149133358838
0.000148082900924
0.000147240917233
0.000146299968964
0.000145249803695
1.15274827984
0.512815034134
0.239010738804
0.117495858388
0.0614142170192
0.0342479986157
0.0203137681528
0.0126739539019
0.00799615699183
0.00458075342019
0.00211885357972
0.00106318533882
0.000602642500173
0.000249562587022
0.000160005853426
0.000150932926187
0.000149273787905
0.000148176951901
0.000147016226846
0.000145758470934
1.14761714886
0.512589776531
0.239841081267
0.11823725039
0.0620198579357
0.0348700858933
0.0210247110878
0.0134402935846
0.00871731467431
0.00513873758547
0.00243131200734
0.0012311943195
0.000777510851978
0.000353504809681
0.000173831416955
0.000153229950697
0.000150619439041
0.000149218145214
0.00014780372303
0.000146309289761
1.15065939845
0.513143366589
0.240394367937
0.118620310903
0.0623560301458
0.0352917432056
0.0215769391658
0.0140753504598
0.00931574594549
0.00558940102337
0.00268632585593
0.00135535761459
0.000905698423198
0.000474597558505
0.000196395265163
0.000156199217681
0.000152103996241
0.000150349496942
0.000148664945711
0.000146919261421
1.16759050792
0.518788288836
0.242052801674
0.119332922
0.062870066569
0.0357933579806
0.0221253315765
0.0146416598719
0.00980840662191
0.00598101507094
0.00293054259756
0.0014749473863
0.00100562322681
0.000588658547679
0.000234496136311
0.000160632478239
0.000153727768682
0.000151536559464
0.000149591221677
0.000147600570999
1.19586304079
0.528755564656
0.245730285237
0.121093784584
0.0639767567089
0.0365843307915
0.0227521682927
0.0151339860427
0.0102251055406
0.0063811777466
0.00323306736011
0.00163657300928
0.00111181311531
0.000705736446855
0.000302527398156
0.00016900441905
0.000155675397713
0.000152740904515
0.000150548463586
0.000148341370738
1.22306497224
0.538877667693
0.250373001933
0.123975368371
0.0658703217559
0.037730054102
0.0234016580578
0.0155504522077
0.0106221361412
0.00681053606349
0.00363400204708
0.00186129286094
0.0012495079355
0.000856173050417
0.000418730507623
0.000190842191334
0.000158849325361
0.000154003407252
0.000151485882215
0.000149097352756
1.23627743371
0.54322768803
0.254766149341
0.12802259016
0.0685712727092
0.0390910937065
0.0239749573873
0.0158520158865
0.0108963791184
0.00717206946797
0.00409236496954
0.00209980692925
0.00142891683502
0.00105955347203
0.000605194564459
0.000251026230638
0.000165430859533
0.000155525827528
0.000152368146128
0.000149806635857
1.2243080369
0.545538565888
0.262343512243
0.134256678523
0.0718480317213
0.0401824533821
0.0241240089068
0.0157822541505
0.0108867435765
0.00740533514785
0.00448494843743
0.00231311897046
0.00154892362647
0.00128283921522
0.000861417201388
0.000385999178241
0.00018147837311
0.000157835322373
0.000153225408891
0.000150426526848
1.20168965426
0.559908602184
0.277330426519
0.142537842261
0.0745402561437
0.0402811450526
0.023700232076
0.0154698350878
0.0107637092087
0.00751582009512
0.0047557027142
0.00246576905414
0.0015793111885
0.00141071820896
0.00112063562725
0.000604438582506
0.000223334084625
0.000162044746883
0.000154164761544
0.000150957109699
1.23078234828
0.597507735593
0.298822724778
0.150245466933
0.0755030329557
0.0401031162345
0.0235469006672
0.01529911125
0.0106715060165
0.00758327560991
0.00496117983949
0.00257690794376
0.00156080962771
0.00140962444135
0.00128222842875
0.000846041597393
0.0003163363187
0.000170430299728
0.000155360322912
0.000151432316049
1.33834563491
0.654012438486
0.319598054153
0.155702438656
0.0769448306468
0.040997626747
0.024019839094
0.0154712281839
0.0107508616176
0.00773503000776
0.0052074112248
0.00270533677074
0.00152738523662
0.00136959085034
0.00130763892699
0.00102694126383
0.000466023373264
0.000187607284275
0.000157078877432
0.000151901771406
1.52078325248
0.711510243619
0.333899190937
0.160517498486
0.0807385635013
0.0432989806623
0.0252573006804
0.0160667126842
0.011085704972
0.00806813482626
0.00556997218158
0.00290930177653
0.00151912780838
0.00132960472239
0.00129180114591
0.00112522635289
0.000634584739348
0.000220994680602
0.000159771997135
0.000152420555499
1.70962358269
0.751741268761
0.344753776979
0.166480854837
0.0854473917974
0.0465777589412
0.0271042452766
0.0170317196203
0.0116714430616
0.0085747871499
0.00604120627686
0.00322340380235
0.0015709722106
0.00131211730205
0.00129416840293
0.00118797219477
0.000785416706752
0.00027928197567
0.000164365317728
0.000153064897338
1.79051897024
0.782127431977
0.356943399754
0.173106953347
0.0898763319932
0.0495588833183
0.0289578755243
0.0181381338143
0.0124119203126
0.00916781341914
0.00654732893084
0.0036375997636
0.00170829403093
0.00133190734337
0.001332578884
0.00125737962606
0.000917486738122
0.000371657339207
0.000172677662782
0.000153951744785
1.82470150054
0.7984267457
0.364831127006
0.177733521986
0.0929930932842
0.0517278512664
0.0304374646355
0.0191398128831
0.0131698729394
0.00976665058476
0.0070216450814
0.00405064399785
0.00191597978602
0.00139582569995
0.00140395959394
0.00134181651551
0.00104870361653
0.000502650345916
0.000188765612338
0.00015533782193
1.83822410211
0.805961520001
0.369685644647
0.180595617824
0.0947690784799
0.0530568742949
0.0314802883576
0.0199814469402
0.0138910371431
0.0103272374958
0.00744284154105
0.00440705782234
0.00212601199381
0.00148712105141
0.00149445403829
0.00143771106908
0.00118504135127
0.000662595657886
0.000221871593677
0.000157842733607
1.83934032943
0.808759480985
0.372158218594
0.181847240357
0.0955180637482
0.0537874531219
0.0322046687773
0.0206915305394
0.0145417604508
0.0108101478561
0.00778360998538
0.00467670208684
0.00229898028952
0.00158327731635
0.0015889055111
0.00153568543868
0.00131614247982
0.000828770416642
0.000285621720288
0.000162516629207
1.84793780581
0.808989000859
0.371973613965
0.181617072761
0.0956556756083
0.054191384788
0.0327200056057
0.0212763361666
0.0150785385411
0.0111757184034
0.00801852672879
0.00484647331425
0.00242006657512
0.00167243468876
0.00167567359983
0.0016214575924
0.0014081546682
0.000976800203225
0.000386444026705
0.000170842983135
1.86788368691
0.813723214884
0.372638847454
0.181620758173
0.0958179876017
0.0544866166576
0.0330972164251
0.0217418036423
0.0154676368153
0.011402439757
0.00813904943064
0.00492509804017
0.00249830751832
0.00175376091334
0.00174855678308
0.0016947647572
0.00147578333875
0.001094839381
0.000511189885484
0.000185521867899
1.8948054686
0.820730040694
0.374590439822
0.182090223248
0.0960102896853
0.0546609473757
0.0333544077928
0.0220804961683
0.0156857214626
0.0114876787937
0.00815302216992
0.00493769741643
0.00255615123701
0.00183062682256
0.0018079930676
0.00175962595353
0.00154060128431
0.00119092719848
0.000639359003242
0.000211995434999
1.9167798539
0.828127118463
0.377131180396
0.182876043515
0.096245702754
0.0547721571165
0.0335508973467
0.0222765301021
0.0157239802845
0.011442694792
0.00807921598901
0.00491412577812
0.00261422743064
0.00190331001033
0.00185716832695
0.00182177303672
0.00161754644223
0.00128699838985
0.000765211496374
0.000259131705309
1.93720495349
0.832884187199
0.378741080084
0.183512330045
0.0964501106382
0.0548539460613
0.033690142805
0.0222788389066
0.0155895507397
0.0112842751961
0.00793868643632
0.00487756792257
0.00267989350762
0.00196318104511
0.00189833725845
0.00188448757585
0.00171372015243
0.00140068069296
0.000897292653274
0.000336030540721
1.95397865865
0.833740328951
0.378236544147
0.183381218932
0.0963666690965
0.0548217937974
0.0336418791192
0.0220235881296
0.0152940724632
0.0110224661362
0.00774499447395
0.00483742953507
0.00274318463195
0.00200072203555
0.00192949286412
0.00194656008205
0.00182517992477
0.0015434883835
0.00104268982887
0.000444790817442
1.96736015019
0.832012423116
0.37602542103
0.182573396509
0.0961544489387
0.0547687623948
0.0333719626036
0.0215640450004
0.0148795788898
0.0106807685185
0.00751751018896
0.00479762437103
0.00279716737317
0.00201896398638
0.00194599102446
0.00200133852985
0.00193422239456
0.00166749230438
0.00119427851532
0.000579102198918
1.94897658571
0.817749696632
0.36956030118
0.181005731078
0.0962092081338
0.0548277188497
0.0329932429795
0.0210487115148
0.0144219492388
0.0103000831352
0.00728490767346
0.00476936661563
0.00285733773013
0.00203049027634
0.00194154498809
0.00203322770664
0.00201165562172
0.00177372878363
0.00133406153862
0.00072771792961
1.86410077103
0.780853203467
0.359540934597
0.180424207857
0.0973653890572
0.0553481237519
0.0328046415096
0.0206412810256
0.0139931354175
0.00991423558757
0.0070807688745
0.00477645952719
0.0029474588706
0.00204508677508
0.00190555595892
0.00201858536174
0.00203327871199
0.00182878126911
0.00144032677999
0.000875317589849
1.70547733048
0.739062347489
0.354223312717
0.183788890753
0.100554743206
0.0567009384332
0.0330670218761
0.0205257487126
0.0136797763274
0.00960898697294
0.00694920210447
0.00480859539628
0.00303323603211
0.00204180582047
0.00182815693296
0.00194171088643
0.00199214821617
0.00182620421579
0.00146100025117
0.000995686375903
1.58241228733
0.722202733465
0.361052611328
0.192842031546
0.105747694735
0.059685174675
0.0346467113167
0.0210207477895
0.0136459569673
0.00947631739024
0.00689103719675
0.00485843594291
0.00310429394395
0.00200698307726
0.00171511261654
0.00180275459085
0.00188825961116
0.0017619882892
0.00144808928411
0.0010604694923
1.54862355915
0.737298930454
0.377897593911
0.204605008727
0.113879645555
0.0658456003399
0.0381704989187
0.0225644707623
0.0141487442848
0.00959903252111
0.0069514321172
0.00496670442878
0.0031971033462
0.00197276284791
0.00157977069953
0.00162062524981
0.00172679888698
0.00164883834231
0.00139764722078
0.00108194018915
1.59233466658
0.769827839063
0.393341924914
0.215204577776
0.124729793249
0.0753063750089
0.0443163892898
0.0256154250897
0.0153655963866
0.0100449601425
0.00717933780431
0.00517697685204
0.00336068095805
0.00197830587491
0.00144993412962
0.00143585497823
0.00153616328387
0.00150855061725
0.00131920944856
0.00104969644247
1.69540286601
0.802575816239
0.401257375555
0.222772177699
0.137553655643
0.0874245126453
0.0528175256176
0.030096744005
0.0172911115234
0.0108405515002
0.00760021349099
0.00551225951058
0.00362609615325
0.00206280676023
0.0013691700323
0.00127862823421
0.00135303208084
0.00136537417113
0.00121935087729
0.000993917539573
1.79287534377
0.81941488225
0.406444890675
0.229470350612
0.148019003619
0.100034535458
0.0625811024074
0.0353907450132
0.0196885084679
0.0119131209103
0.00818907241169
0.00594899778495
0.00397540696495
0.0022316064776
0.00135382068913
0.00115845671783
0.0012022440989
0.00123247426917
0.00111213432354
0.000924117257244
1.7981726943
0.823915365534
0.410497065517
0.234098753207
0.154994642361
0.10929242797
0.0710981322631
0.0407249901305
0.0222427853233
0.013136386499
0.00887495267068
0.00643076271738
0.00435821602762
0.00245891568361
0.00139775122586
0.00108989308779
0.00109153568268
0.00111610524624
0.0010100905477
0.000849315155571
1.78801202334
0.824109828829
0.411918460823
0.23626750046
0.158995759969
0.115417299976
0.0769273942864
0.0447124500144
0.0245445964282
0.0143800894376
0.00958858016487
0.00690305603728
0.00472189484948
0.00271134945059
0.00148362571549
0.00106102565794
0.00101132039298
0.00101790002716
0.000920701997271
0.000772982443146
1.77998589749
0.824329540537
0.412282366277
0.236933333853
0.160894431854
0.118860549225
0.0802229674236
0.0470494631865
0.0261233356887
0.0153981303381
0.0102254448728
0.00731564781327
0.0050216606875
0.00293848600979
0.00158803090198
0.00105788935832
0.000946593023832
0.00093787393306
0.000842708082767
0.00069924613752
1.78024653378
0.827299889076
0.413394521493
0.237260568288
0.161572713134
0.120138385408
0.0811278273128
0.0478030651868
0.0269425262181
0.0161123071515
0.0107358545255
0.00765163584667
0.00525559157597
0.00311958565966
0.00168114153852
0.00106106339564
0.000897550194728
0.000871882368455
0.000770699456385
0.00062773701739
1.78826418955
0.833938543286
0.416126591334
0.237967451263
0.161633281401
0.119539618439
0.0798429606456
0.0471851222915
0.0270895315465
0.0165218965714
0.0110985607015
0.00789880352943
0.00542373640844
0.00325150773605
0.00175176248043
0.00105852539556
0.000855466831958
0.000813094922372
0.000698788833571
0.000555213662748
1.81213505048
0.844726939069
0.420237896869
0.238871540427
0.160931084114
0.116775266411
0.076537567691
0.0454034787424
0.0266235270387
0.0166136756453
0.0112930705102
0.00804620076403
0.0055227387733
0.00332919433802
0.00178768158473
0.00104191800235
0.000812419984793
0.000753817645508
0.000622652847864
0.000478099487322
1.85982676393
0.866115584562
0.42868415037
0.240915120145
0.159399173235
0.111714596021
0.0715605741471
0.0426803312426
0.0256180806546
0.0164046950625
0.0113194529368
0.00809036299951
0.00554766287996
0.00334281647571
0.00177761892068
0.00100722345242
0.000763370024489
0.000687771977387
0.000539640794823
0.00039526352088
1.92536436375
0.899211875041
0.443286943091
0.244844184614
0.156921391913
0.104789838139
0.0655111921417
0.0393598800886
0.0242428470222
0.015969633884
0.0112017864885
0.00803444792927
0.00548939942919
0.00327584837297
0.00172281029142
0.000955762640297
0.000706109352503
0.000610465312681
0.000447953821647
0.000308191813525
2.01073331724
0.949520731546
0.466827365373
0.252007344991
0.154442631408
0.097471584655
0.0594544559249
0.036027239304
0.0227862236117
0.0154279877623
0.0109794194302
0.00788484880009
0.005338404366
0.00312846100815
0.0016290147385
0.00089084436392
0.000637912215685
0.000521013951205
0.000350166206041
0.000224230529424
2.15015337039
1.02208539343
0.501220801808
0.264411306508
0.154947624418
0.092365083997
0.0548134947802
0.0334157505103
0.0215934204481
0.0149063159804
0.0106987615991
0.00765307790091
0.00509952868126
0.00293056352497
0.00150381204303
0.000813614866203
0.00055752100067
0.000422906639487
0.000254544537471
0.000156028064961
2.3521517315
1.12270322137
0.549579308022
0.287370062606
0.160544244147
0.0915714499578
0.0529307741136
0.0322116351079
0.0209712423174
0.0145333126646
0.0104145801451
0.00737479932535
0.0048144472586
0.00271040256037
0.00136145680422
0.000725712296832
0.000468136204334
0.000323665500393
0.000174677420384
0.000113042231553
2.62932995569
1.27101765609
0.628089206251
0.323840520378
0.173374928758
0.0959901941602
0.0550157397532
0.0329956639125
0.0211780509514
0.0144610218529
0.0102178344755
0.00712075753143
0.00454294713286
0.00249665141074
0.00122267585965
0.000633367744264
0.000377385445214
0.0002336908907
0.000121877575729
9.30397219432e-05
2.99964452303
1.4904283318
0.740725449512
0.372470373205
0.194152250893
0.106417037704
0.0609893215175
0.0360955088627
0.0224596619125
0.0148596381059
0.010220630149
0.00696135354202
0.00432917209199
0.00232046781875
0.00110471093401
0.000544450168384
0.000295024390346
0.000163209084594
9.54002757304e-05
8.66325157625e-05
3.57069236693
1.77871534636
0.861751862014
0.427371253991
0.223295658494
0.122913419314
0.0703706546523
0.04122392143
0.0249711747004
0.0158789814313
0.0105112965085
0.00694217945795
0.00420518439079
0.00219980973733
0.00101603801851
0.000467485241909
0.000227733519354
0.000117796494678
8.52217761383e-05
8.61949153182e-05
4.47505845733
2.06090291425
0.982174704628
0.493152073132
0.260143269227
0.143696519121
0.0820847515554
0.047813628167
0.0284264146196
0.0174453876097
0.0111089841369
0.00709494680672
0.00418236026982
0.00213544259782
0.000957734612026
0.000408606547368
0.000179064940084
9.43822252021e-05
8.25364163327e-05
8.74342854054e-05
5.15110528005
2.31742362308
1.11000109533
0.560577553309
0.297917357138
0.165000249453
0.0937632986808
0.0541616185876
0.0318207098683
0.0191104083572
0.0118690077407
0.0074035927902
0.00426430862495
0.00212864428645
0.000929217618251
0.000371681576916
0.000148813488485
8.56909377788e-05
8.27271382231e-05
8.83522194327e-05
5.50188296248
2.44624345876
1.19993182731
0.613497387823
0.32637457716
0.179897835024
0.101600276075
0.0584715475054
0.0342221859042
0.0204047050252
0.0125698368236
0.00775970326674
0.00442258674593
0.00218869294747
0.000937588373383
0.000358664962298
0.000136519549781
8.53713076745e-05
8.42074245532e-05
8.83862814798e-05
5.70000591759
2.56721074254
1.25658561712
0.641751555651
0.339843757605
0.186083900378
0.104649466133
0.0602298476006
0.0352767206143
0.0211208686241
0.0130959980296
0.00809675137914
0.00462041496231
0.00230486567729
0.000994406151485
0.000372997716165
0.000141551095742
9.00900041476e-05
8.68006239983e-05
8.83205701095e-05
5.61141955669
2.60893733585
1.27627117537
0.647716421985
0.339920823048
0.184537469853
0.103459230013
0.0596021892954
0.0350508110465
0.0213146790384
0.0134528208935
0.00840765861032
0.00485640952842
0.00247793728543
0.00109969402206
0.00042176681681
0.000161929404906
9.98706614962e-05
9.08457053157e-05
8.92686531486e-05
5.38041011553
2.56414781199
1.25359434354
0.631833599131
0.3284335429
0.176820645017
0.0988062049756
0.0569252734485
0.0339016765406
0.0212021327751
0.0137109544291
0.00871194316253
0.00514023551393
0.00271437090283
0.00125839898441
0.000507599791475
0.000198693624231
0.000115435956501
9.6879794513e-05
9.15848519858e-05
5.09939311328
2.4426145461
1.191309865
0.597280436554
0.307895428615
0.164309184277
0.0912313131158
0.0528961971086
0.0324697006677
0.0210511640834
0.0139561849428
0.0090385263151
0.0054838150431
0.0030222407639
0.00147586125907
0.000631400041591
0.000253434307163
0.00013727702981
0.00010502449997
9.51364633496e-05
4.73112815709
2.25698459156
1.09483759642
0.545885020861
0.279508684545
0.147923611215
0.0823055965691
0.0491605322975
0.0315168033995
0.0211208443774
0.0142825504161
0.00942825992278
0.00590517439955
0.00341127017559
0.00176144267784
0.000798174308416
0.000329461643339
0.000165723946684
0.00011480265861
9.96393485665e-05
4.18474207739
1.97934181662
0.953589339643
0.474609806541
0.243490943323
0.130189438932
0.0750346616561
0.0471201320011
0.0314263419025
0.0215256565598
0.0147470768321
0.00991156374254
0.00641156877327
0.00388421848706
0.00212274148192
0.00101799710678
0.000433153295317
0.000199045618928
0.000125455723139
0.000104075384818
3.46735107272
1.6413804947
0.793757252684
0.399523411421
0.209918210717
0.11741424036
0.0716724537157
0.0470924134344
0.0321850971265
0.0222763749155
0.0153859182177
0.010507023361
0.00699892708674
0.00442838021724
0.00255661786265
0.00129893190304
0.000578852091934
0.000248441640867
0.000137473547755
0.000107086629382
2.84920818804
1.38721113884
0.687538333696
0.354738344758
0.193704611717
0.114311400144
0.0732722112303
0.0494390937298
0.0340568211687
0.0235829530385
0.0163276267894
0.011265251226
0.00766487617318
0.00501506271451
0.00302650952146
0.00161611731026
0.000756848925989
0.000319497583596
0.000147084034848
0.000107035124716
2.65758043022
1.33976321689
0.679524926568
0.359760190183
0.202324660966
0.123479643223
0.0808199770991
0.0547118581402
0.0374158956103
0.0257002680716
0.0177219629475
0.0122491232935
0.00841990829472
0.00562356449559
0.00349235042294
0.0019202887346
0.000928184548928
0.000400107924691
0.00016319673305
0.000101984553224
2.91461240511
1.48853888192
0.757531755527
0.394347457391
0.221580224257
0.137739583985
0.0917722642232
0.0624440086392
0.0424717756214
0.0289754965326
0.0198301362327
0.0136107095806
0.00933987313415
0.0062866811246
0.00395581512528
0.00218789317621
0.00105766879815
0.000458782636032
0.000181871824067
9.58145669477e-05
3.39522185352
1.66386235939
0.816736760803
0.419050955823
0.235725408774
0.149402419035
0.102247328856
0.0708828567093
0.0483248941606
0.0329370795578
0.0224624647578
0.0153258460592
0.0104515233312
0.00704339547058
0.00445785322205
0.00244240442688
0.00114362436915
0.000483599551133
0.000186443271478
9.52659539352e-05
3.54453420118
1.56705029539
0.754021666586
0.400476361311
0.238107530655
0.158034249082
0.112133600222
0.0798005208218
0.054299299265
0.0366940406803
0.0249307714725
0.0169918940051
0.0116191603486
0.00787570891257
0.00503072175302
0.00273742396892
0.00122766541693
0.000490875579315
0.000181618231326
9.26477253011e-05
3.33694026232
1.43573763166
0.690198099715
0.374181642062
0.23061714978
0.159066826215
0.117148790196
0.0865517217613
0.0598651350478
0.0395546847423
0.026730361084
0.0182624150413
0.012597472263
0.00867392330467
0.00563717453007
0.00309411840761
0.0013571235522
0.000512716274906
0.000180713513347
9.06362480727e-05
3.17594114708
1.35204754633
0.640098252639
0.346427157149
0.216358383339
0.15222510239
0.11425111636
0.0857418143714
0.0598787853141
0.0402761179863
0.0274517239994
0.0189474542129
0.013258017495
0.0093076217609
0.00617891132741
0.0034682012106
0.00153983217202
0.000569898034576
0.000194429701412
9.31405992261e-05
3.19681285547
1.31182246859
0.598140810174
0.317031742997
0.19723677816
0.139330432692
0.104462195451
0.077983296293
0.0551075281243
0.0382662487551
0.0266871127949
0.0188138857023
0.013467721265
0.00967034164107
0.00654765874012
0.00374940881215
0.00170323361377
0.000636899792376
0.000216625638644
9.93489813897e-05
3.41099432844
1.31405191697
0.574612753156
0.295896880452
0.181207949048
0.125777287329
0.0915385949403
0.067503427046
0.0486695968706
0.0347613196511
0.024913754382
0.0180757883041
0.0133269736204
0.00980002220729
0.00672521089537
0.00388651585403
0.00179769718444
0.000687301223511
0.000238648644705
0.000107342173554
3.79887938693
1.39605874699
0.593743828359
0.300220394992
0.178643478019
0.117815640024
0.0829013781613
0.0598201195216
0.043207908837
0.0313129862967
0.022975435592
0.0171864794542
0.0130687840887
0.00979715302453
0.0067362782804
0.00388092210693
0.00181424716565
0.000710498395659
0.0002556025902
0.000115465660445
4.14128381322
1.52091549571
0.653988079184
0.329475751567
0.191120741441
0.12177582123
0.0821203338041
0.057043667379
0.0402868157633
0.0290588456749
0.0216025243302
0.0165654492732
0.0128802616611
0.00971856421878
0.00660504542019
0.00377087139729
0.00177625665333
0.000713826863119
0.000268455084383
0.000124035905116
4.11114489476
1.6073373833
0.711011195048
0.367033516845
0.212946531158
0.133176767573
0.0871535115871
0.0584317160333
0.0399906335134
0.0283412725349
0.021082443951
0.0163371888159
0.0127711166448
0.00954066625678
0.00638364735547
0.00362276325554
0.00172589881723
0.000716583309921
0.000284109641928
0.000135182439406
3.93447357266
1.60533728198
0.735820282504
0.390959240529
0.229439039912
0.143791572027
0.0933760280196
0.0615922541842
0.0413150011136
0.0287879660801
0.0212018347104
0.0163146846346
0.0126103548683
0.00929252745414
0.00616050957696
0.00350353840659
0.00170200381664
0.000732778759171
0.000307357364758
0.000152198690088
3.910913793
1.55419579933
0.728723114832
0.39127965204
0.233290082609
0.148156187552
0.0968721260813
0.0639935875954
0.0428139241855
0.029545730712
0.021413065425
0.0162330079154
0.0124038043051
0.00906450409368
0.00600366539088
0.00345620785956
0.00172321401115
0.000768070801512
0.00034103148861
0.00017602631369
3.89370473638
1.5121874256
0.693300589483
0.372990451469
0.225499774266
0.14530573126
0.0961688335062
0.0642898496058
0.0433486467347
0.0297772641821
0.0213811560214
0.0160956149747
0.0122192780909
0.00890034347459
0.00593899157597
0.00349471966785
0.00179002367753
0.000832525608615
0.000389750369724
0.000207904972259
3.76304037486
1.42072235879
0.642419196119
0.344941694147
0.210305111953
0.137165021339
0.0920634624427
0.0625462663548
0.0426040758186
0.0293693571574
0.0211794081262
0.0159456509288
0.0120650452787
0.00879693130945
0.00595268161112
0.00359799741405
0.00190550878265
0.000931115535724
0.000455682252005
0.000248561576523
3.64526218208
1.33598069598
0.595974652398
0.316522438221
0.193224371197
0.127206050978
0.0866209410827
0.0597197696942
0.0410618983433
0.0286750475044
0.020921043706
0.0157825389286
0.0119173596271
0.00872582243877
0.00599735879197
0.00372613694908
0.00207458157122
0.00106230247484
0.000539608523324
0.000299663181316
3.53117728606
1.28229393568
0.563996534641
0.295575870521
0.180107950327
0.119262986619
0.0820178984664
0.0569373476474
0.0395185697283
0.0280810814717
0.0206969556817
0.015599683798
0.0117533589851
0.0086217455184
0.0060043254479
0.00388321639685
0.00227843902508
0.0012199211776
0.0006389170427