/*--------------------------------*- C++ -*----------------------------------*\
| =========                 |                                                 |
| \\      /  F ield         | OpenFOAM: The Open Source CFD Toolbox           |
|  \\    /   O peration     | Version:  2312                                  |
|   \\  /    A nd           | Website:  www.openfoam.com                      |
|    \\/     M anipulation  |                                                 |
\*---------------------------------------------------------------------------*/
FoamFile
{
    version     2.0;
    format      ascii;
    arch        "LSB;label=32;scalar=64";
    class       volScalarField;
    location    "0.865/water";
    object      epsilon.gas;
}
// * * * * * * * * * * * * * * * * * * * * * * * * * * * * * * * * * * * * * //

dimensions      [0 2 -3 0 0 0 0];

internalField   nonuniform List<scalar> 
1497
(
7.73720992443
4.43345378297
2.72891195171
1.721384553
1.12375855937
0.809299865803
0.655201203297
0.577077072199
0.532077903028
0.497947667794
0.456960546678
0.408322218708
0.362585679362
3317.84110069
1017.88495438
362.801351087
144.669230582
62.0229951539
28.5407672223
14.4190724386
8.14332914699
5.12817973977
3.34121930208
2.03935255713
1.20851290576
0.782098568164
0.576355612853
0.473186581417
0.416761545979
0.381275256497
0.350443238069
0.315735980536
0.278660308058
3303.71483239
1105.56084315
409.075680208
163.388080244
69.7307065012
32.4556092715
16.7655497562
9.84508038788
6.50542897049
4.34191557045
2.58634375656
1.40582477965
0.809495483281
0.523336151833
0.386149511822
0.315444120681
0.274208134169
0.247043079115
0.224819276009
0.202524877397
3672.92183235
1238.55804965
453.122115881
181.399231225
79.5288048726
37.8914689504
19.7634816366
11.6021480362
7.73476694342
5.33943941342
3.32075918034
1.77640691685
0.937022967216
0.536995771823
0.349077275181
0.259061232799
0.209447610548
0.178491718553
0.160177035344
0.148402284264
3717.27396801
1199.18002937
421.398221021
167.866833064
75.8305918241
37.872903785
20.7289388023
12.6628171532
8.6695882177
6.25620128729
4.17542926409
2.31067097416
1.14388314618
0.606431673816
0.361780667055
0.247391650773
0.188277754975
0.150782718966
0.129525351769
0.120297738364
3030.29599018
895.207678758
314.022859559
128.261096579
60.4579486543
32.2016598787
19.0705379068
12.5710657593
9.1285315585
6.90604194151
4.88912685528
2.88490997188
1.3743041163
0.696579310125
0.399457511038
0.263646073184
0.195406755289
0.15163603853
0.125143468995
0.113495451915
2534.00356485
722.399284576
245.808397797
97.7578153365
46.2783909855
25.9255885167
16.6323077305
11.8839693486
9.17374612441
7.21054479877
5.23990568011
3.16742873747
1.51054861371
0.764447409293
0.437227429203
0.28977130746
0.215974987354
0.167948336854
0.136873873788
0.121448953696
2327.49703775
639.341595388
208.237174769
76.8882423447
34.7799250026
20.1053633548
13.9459206588
10.7547439113
8.74328699188
7.03085864331
5.09460426492
2.9916029654
1.47169692909
0.771319512052
0.455782888636
0.313235761508
0.241181297901
0.192268570342
0.158746070765
0.139989941863
2330.15288383
626.086781517
189.255217746
62.0787244304
26.1190105865
15.315317534
11.3648669705
9.35274291546
7.90934323785
6.36456579088
4.40815575279
2.46882992534
1.29972880843
0.72583593975
0.456729597016
0.333795592589
0.26987773233
0.223348441031
0.189715065098
0.168130807083
2458.52126303
696.643583023
205.575621116
62.3291227771
21.8614146774
11.7418927576
8.87507510829
7.63503928188
6.66151329794
5.21572289817
3.37209771068
1.91810302015
1.08744296917
0.658971155055
0.452431500776
0.357101284185
0.304855067534
0.26371406043
0.231959522155
0.206037445054
2595.81083614
775.072714524
264.941450546
129.317512757
29.1849268282
10.4271783147
6.78603883581
5.71629982943
5.02109287858
3.76956681662
2.40184638101
1.45381096862
0.898464068368
0.60108071188
0.456010765479
0.388830516973
0.350129782183
0.318663117308
0.288967972272
0.249365798436
2934.02172483
862.463658594
337.174483546
355.250800755
56.2348261331
12.7887662302
5.93731924393
4.27419056091
3.52300451165
2.60386611774
1.72143850708
1.12723062774
0.767575928216
0.570072159277
0.473661943507
0.431551462677
0.412061196404
0.395906253852
0.357777616959
0.269065186193
3164.89496352
941.784797688
416.410664244
670.936249493
109.571841777
21.1293455792
7.00342255727
3.80136785065
2.69602368565
1.92673640711
1.32765662714
0.937807926563
0.697805848646
0.56525364316
0.504668743918
0.488674192756
0.499421442185
0.494943125142
0.398495381609
0.245812764692
3143.18437001
970.640479988
454.253257993
748.088755332
273.883751988
44.6411517929
11.3902426174
4.56614022123
2.56414030962
1.66874117269
1.15404528357
0.852188549525
0.673772645451
0.57961376402
0.547516737249
0.56541609634
0.605894726136
0.55889893091
0.371341407454
0.21069584465
2950.40193074
931.540828353
436.450396039
640.960266393
350.510784437
95.838814018
23.1227787341
7.29767031551
3.1962976418
1.76858502385
1.15223294864
0.845695777828
0.682478941164
0.608261493519
0.603952564415
0.645789211213
0.655640200289
0.535817966133
0.326424769469
0.178410463724
2682.80977389
867.88722474
400.924017957
499.573465727
333.76778791
136.502135491
42.3143096707
13.4964712891
5.00908862602
2.28929926638
1.30704714775
0.901248396754
0.717557701543
0.650538063874
0.655646941094
0.661180283894
0.622582942523
0.490223659286
0.283643508257
0.15325559081
2496.24160903
816.557810334
356.567445302
344.416229734
261.771985536
140.781018383
61.682085264
22.3968481575
8.25966104346
3.33176098364
1.62794422326
1.01401657268
0.774039851114
0.688380629462
0.654265114489
0.618484823798
0.57796133348
0.439428147594
0.247981741668
0.13821948396
2733.50134183
801.671446775
303.686597769
234.589659802
186.365899716
118.611620248
65.2909928464
30.9129199217
12.0015371777
4.669419396
2.05247008826
1.15424605645
0.824971943383
0.6897221204
0.617266483692
0.577876776331
0.532653561956
0.38774471161
0.222356624805
0.131725588606
2589.3498964
766.295651542
280.506588542
170.021670675
129.600511647
91.0558158032
57.8995332989
33.1199975194
15.4550405159
5.90896037893
2.42036449195
1.25677692212
0.841878407501
0.669300228415
0.588577972629
0.549902562627
0.48816527036
0.343351210154
0.205981525504
0.132202492367
2448.34983711
725.321732171
257.327000199
132.814613027
92.8523941377
67.8797093705
47.4288263199
30.4520313039
16.0945046657
6.28229383658
2.54642765437
1.28331175673
0.83291776826
0.651317828761
0.572942313773
0.527357993104
0.447248638703
0.310031120671
0.198313141083
0.138681706736
2325.64241066
690.491665081
238.367912275
110.338401031
70.1762607481
51.3425366723
37.9438613731
26.2724160025
14.4361885346
5.75222576178
2.4154780204
1.24034644762
0.808542748091
0.634508897003
0.558260032433
0.503304915449
0.410342621743
0.287924595281
0.198694631741
0.150326154579
2284.98813
676.104531745
226.907644898
96.5724821867
55.8809073047
39.7409868777
29.7740964449
20.7323981
10.7287256346
4.60682341188
2.093683107
1.13733955484
0.7651106236
0.610659704965
0.537935295993
0.475399225954
0.380213848061
0.277084810049
0.206558090375
0.165932990254
2424.61063598
683.956608254
224.258186908
87.7079010356
45.841146727
30.559354121
21.6342972606
13.9879506394
7.12047492209
3.35343036919
1.68525593066
0.994218372328
0.705590021074
0.579684757464
0.513440178457
0.448983062067
0.361397272588
0.277431029545
0.220482847168
0.184025060328
2643.38254602
738.464406756
232.288635191
81.7955346905
38.2646214932
22.1062677569
13.9479871912
8.44830444244
4.50417523127
2.33952667561
1.31362673006
0.852552359599
0.645244623537
0.549042700412
0.492199968912
0.432166762601
0.356406452164
0.287056307923
0.236628933411
0.200823269158
2803.73331143
818.120646526
248.917564529
86.4396000396
33.7791146878
15.3940719365
8.70275373612
5.16360236092
2.92675190372
1.68285842923
1.05468637123
0.748496472329
0.601150868868
0.529122985573
0.482602177841
0.429312766218
0.362890179444
0.300180755418
0.249921085239
0.212960466176
3274.07193864
937.681210045
278.319603105
98.4716917854
32.174252261
12.3480505818
6.21604808132
3.60497774979
2.15920080374
1.35479975772
0.923430617022
0.697635741951
0.583879566874
0.527310247793
0.487376888664
0.436689928471
0.37263929094
0.309585724743
0.25741887677
0.219794299225
4042.71109008
1121.57759526
336.974729814
120.275913986
37.2964412335
13.1077033251
5.98520013465
3.28085337095
1.98568670423
1.29165862306
0.910148606303
0.703760982158
0.597757513
0.54396178256
0.501432022196
0.446316582948
0.379658490096
0.315083213663
0.261901182507
0.223239063786
4646.32678926
1353.20894216
436.277329837
161.391264231
52.3418966105
18.4639554363
7.97263006164
4.08337431718
2.35476426948
1.48577646379
1.0230044038
0.774930682177
0.645702432245
0.576099568805
0.520488052701
0.456674744057
0.386158128976
0.319873203122
0.265316868091
0.225658251258
4826.02447771
1592.60681995
584.04716159
220.611585502
79.2841730812
30.3133118031
13.0260200678
6.29254191015
3.3818742214
1.99547236637
1.28938893889
0.920030736115
0.726544469273
0.618847107711
0.539901390544
0.464012492621
0.388701241423
0.32130402782
0.267483038844
0.229480687748
5109.321594
1867.25121796
679.34785302
271.249514024
114.965386671
49.1237736441
21.6402437056
10.115744015
5.13081414092
2.83368819395
1.698919271
1.1201393121
0.820375686451
0.655181933041
0.545981802434
0.45704005847
0.37996309718
0.316629106706
0.268782781761
0.236198727331
6394.68126489
1975.53092749
667.572593472
272.645549468
125.062034897
59.1709303717
28.1669987125
13.6469382511
6.89976687933
3.69459191657
2.10360652849
1.30690965036
0.898722558298
0.676483935781
0.539584441524
0.442321111313
0.368206026544
0.312495746801
0.273094903473
0.248414577809
6688.38546888
1775.37516959
579.553909827
235.595994974
108.650531791
52.6899772035
26.2523333159
13.4513427536
7.13595078784
3.90103136645
2.23707175244
1.38740233468
0.935700593836
0.683256539068
0.530866786404
0.430519838338
0.361005148591
0.313380707844
0.283552238534
0.269905799588
6466.83197721
1619.2214696
489.525790727
184.818305465
80.9023988243
38.6059297604
19.5978501202
10.4736793454
5.86936927159
3.433526957
2.08744323753
1.33671784318
0.9102424169
0.661669281893
0.511055434782
0.415963452457
0.355193306551
0.318767977745
0.302618635311
0.306975535729
6909.12221068
1571.95669611
427.518014244
144.530918182
58.0571892968
26.7870081158
13.5587507012
7.49772188414
4.47896089569
2.78337066373
1.7813701217
1.182147333
0.823005230421
0.607257643854
0.476772346835
0.397972166446
0.352922064787
0.333383521458
0.337778429013
0.373175055575
8125.09719124
1676.28878511
411.481656005
125.728297463
46.6087871987
20.0294529063
9.85990321078
5.628150101
3.47563798954
2.23672614534
1.47787957765
1.00783995409
0.71998306695
0.546743390835
0.444742625134
0.387925013225
0.362735402777
0.364554577081
0.401081744664
0.50088496254
9846.21607538
1944.99868281
460.812197953
134.898244247
45.4132522712
18.1009042869
8.71809597467
4.86391587369
2.97394775856
1.91339636378
1.27322292977
0.880544828681
0.643666166951
0.505120617202
0.428204411852
0.391720966978
0.38757361697
0.42147220109
0.519074129744
0.723733229958
11694.1679718
2331.52378565
575.376045104
169.109461669
57.9602394145
22.2684380518
9.79188843101
4.97963826708
2.85728959449
1.7767273379
1.16719100448
0.809222603405
0.600348729414
0.483126336691
0.424454563155
0.408189792125
0.433863796233
0.519973446047
0.710097878962
0.990993157801
13346.4639778
2744.36404999
726.436793267
236.622437522
84.4353567609
31.5376270013
12.5562698484
5.64450479828
2.94391927844
1.73621644562
1.11542128494
0.769012253061
0.574127759603
0.471398060572
0.429653576898
0.439322703059
0.511461275165
0.675235404457
0.865633317775
1.10043878523
0.338777876312
0.393861222724
0.59067222458
0.767613731345
0.851474094637
0.832548565754
0.739751172972
0.680628645726
0.853850302037
1.01657633533
0.751771297444
0.585478901035
0.560436803355
0.537994952448
0.459822022399
0.294277988081
0.208880099871
0.242021533272
0.509813857129
2.59754077634
0.255293078327
0.274044821637
0.375838571932
0.51863477678
0.610880626811
0.638930071011
0.636957502995
0.744868717561
0.861094605858
0.824115427937
0.727830927304
0.645253555395
0.586808131425
0.529914130154
0.422095803609
0.217752268924
0.133994133839
0.157165240087
0.388227507229
2.32725252667
0.188381366496
0.195794025217
0.243511569772
0.330402845611
0.41714815438
0.468418705551
0.530757632502
0.653788077384
0.738420625846
0.751264000042
0.717244699082
0.659987653747
0.596163979787
0.524020647055
0.391557138942
0.193194594432
0.114805398281
0.122355087255
0.305613788041
1.96962211671
0.143142668443
0.149033256088
0.174384012502
0.219516065487
0.282375238971
0.336972505702
0.40646132481
0.511822426202
0.633412652263
0.698084780226
0.697040626408
0.648478067403
0.584122484644
0.512134498964
0.350894794414
0.175293817536
0.108511657052
0.110744386059
0.262455927321
1.86215216757
0.118918137611
0.124567264582
0.139873906256
0.165222297631
0.200518243922
0.242843546574
0.296033431904
0.389637613328
0.540364395058
0.641244617904
0.664262574859
0.625521522361
0.566428212345
0.490825417583
0.302457356825
0.155699727628
0.105111288421
0.109097427984
0.239662580207
1.64396408418
0.111457665107
0.115157073479
0.123868806666
0.137789123331
0.156382473916
0.178912377617
0.213993048385
0.299685036854
0.45313597612
0.585985870997
0.633693836588
0.605639651698
0.551034237163
0.454641895622
0.253770875456
0.138567831629
0.103421872366
0.110292037188
0.225283210698
1.47402816383
0.116245118808
0.115856080728
0.117923638776
0.122976873203
0.131101471019
0.140717034279
0.158342353236
0.230664916883
0.376931675112
0.537412990927
0.609768171851
0.594566190312
0.541859622009
0.398275730151
0.205915281674
0.125172862654
0.101416448916
0.111538800715
0.215808979783
1.33164085132
0.13029020186
0.123638430206
0.117617863991
0.114009407238
0.114905166066
0.118620053244
0.12830831123
0.177265361149
0.31230350288
0.495358855051
0.591527898945
0.58882129895
0.533181191667
0.326156503818
0.162535881332
0.114536255125
0.099669437352
0.112852568204
0.209947315445
1.2181269993
0.151884844458
0.135662967928
0.117885642105
0.106438798396
0.103587887859
0.105646093018
0.111385457071
0.144530173464
0.262416800142
0.461746716518
0.576800297415
0.581055641752
0.506267715104
0.247613209783
0.128260098688
0.104601850377
0.0991847986821
0.114477740495
0.20663520364
1.13217742768
0.177456389483
0.142412300563
0.113422306726
0.0984341531594
0.0952595614155
0.0965110606754
0.099902513661
0.124658810067
0.226372975718
0.438726790286
0.562374812264
0.56422041487
0.438161184495
0.174655472329
0.103513756057
0.0993031978502
0.101146773438
0.116863391539
0.205975284778
1.06884916208
0.187822378623
0.135241061169
0.104174293127
0.0904061081967
0.0883510965772
0.0888994048062
0.0910303837369
0.110966715721
0.203450718955
0.426695969446
0.543760323103
0.532327715585
0.326374482375
0.119887997148
0.08585974906
0.0986188888242
0.130308884718
0.12479873001
0.212069161261
1.02210366099
0.173429095882
0.121339872999
0.0927379217296
0.0829446520019
0.0817526865015
0.0819999190971
0.083524254978
0.101007525883
0.19274421759
0.419317952114
0.511731598176
0.470158194339
0.207369925923
0.0843990399251
0.0773628439384
0.103678375354
0.162977869439
0.163401977882
0.219576341394
0.988334099411
0.14955722685
0.104971385268
0.0815633285495
0.0759754567458
0.0753924673651
0.0756619660227
0.0771013658727
0.0944424446774
0.19155105517
0.406514695887
0.456225271537
0.35620920652
0.123266933065
0.0614407680683
0.0755574154586
0.153236753802
0.2761892571
0.175064369569
0.223914580551
0.975249017262
0.126021467047
0.0888036033774
0.072436403614
0.0697608507031
0.0698371681498
0.0703396182626
0.0725652018421
0.0903182810874
0.193729705825
0.378608376618
0.372509849731
0.221497596547
0.077888881601
0.0507718073909
0.111770345039
0.337524909697
0.531001809989
0.15531419996
0.238910058599
0.981708022805
0.107158512629
0.0767455821743
0.0663381799833
0.0652853878307
0.0659274516309
0.0668142546647
0.0711446371331
0.0885540762146
0.197564801401
0.332092293092
0.264809450631
0.126927890933
0.0520509017861
0.0651420748165
0.251970969866
0.762377878184
0.703298179562
0.154540608613
0.256186624583
1.00112875139
0.0952678291376
0.0704003013632
0.0637686242644
0.0634774966387
0.0644640527071
0.0662556619817
0.0728875964028
0.0897992241884
0.193662465811
0.265546557598
0.166845820058
0.0773769874875
0.0404052247396
0.122816967542
0.6652637465
0.888257873641
0.755231179168
0.163726197958
0.275777457821
0.969969020923
0.0904716036778
0.0699051011669
0.0650392377731
0.0649433523173
0.0662010913587
0.0691660338931
0.0742400534822
0.094015210838
0.180898962831
0.190711640125
0.106779020703
0.0496344950765
0.0606975473773
0.377509058151
0.802659317214
0.974370445755
0.807306180182
0.17622282066
0.299416859292
0.947184643191
0.0916204765122
0.0746467616892
0.0703750787641
0.0701501617584
0.0715110033551
0.0744369499045
0.0765446434257
0.100373497413
0.161279917683
0.131753711572
0.0707964820981
0.0518137481936
0.204048459643
0.471202303361
0.918940337235
1.05341220795
0.877039832369
0.195468121788
0.325527753945
0.878543335751
0.0980537020142
0.0839498173808
0.0797540484866
0.078946568208
0.0793918688271
0.0786858323572
0.0809887345503
0.108351776091
0.135689686634
0.0973825495947
0.0504566757117
0.0972197383553
0.24820747033
0.560059946915
1.01168712957
1.11741638248
0.958813738587
0.245771509844
0.349948891289
0.854695686712
0.109468454697
0.097175222277
0.0923726137536
0.090047532494
0.0870457761626
0.0829245966028
0.0876421688389
0.114568596339
0.113529537374
0.0734076839697
0.0586856599795
0.201084112868
0.279041133286
0.64510148233
1.05638004481
1.15980364127
1.04571646572
0.270856997701
0.366546731701
0.920518315511
0.124968811131
0.11315722457
0.106773012629
0.100953536411
0.0932121199158
0.0883473985057
0.0965548364342
0.117262452874
0.100215086119
0.0588851618694
0.11013760172
0.216875478769
0.319695379532
0.69967085028
1.04607369442
1.18651351875
1.15386473576
0.265134345201
0.367571032905
0.915095683613
0.142948267221
0.130206295718
0.12066217431
0.109580463403
0.0995911207452
0.095641448131
0.108146022281
0.118117354473
0.0895129363704
0.0715962654709
0.218362182746
0.23737273045
0.366261961792
0.708292616738
0.973981805246
1.22412661274
1.28295470222
0.298567266705
0.346544899971
0.813687953769
0.161188980554
0.146056139169
0.131496936223
0.117545480734
0.10711668212
0.105106079542
0.121391988375
0.121544379543
0.0805705902705
0.0976456551552
0.256542901758
0.270080073218
0.419048127211
0.661374818837
0.887869637392
1.31447996344
1.23299364182
0.320452234859
0.313410426281
0.66947773314
0.176711557236
0.157963653508
0.140343978748
0.125886133507
0.116160696819
0.116523141145
0.135514958087
0.127886658835
0.0845735466308
0.222085755875
0.289926485685
0.319078322219
0.471176825511
0.588864102426
0.839830758279
1.52828790512
0.582499053598
0.327971448829
0.277614730198
0.651705646203
0.187380804996
0.166085353034
0.148557830676
0.135120993832
0.12681688396
0.129594592836
0.151706448014
0.132527173416
0.114429269845
0.361678294061
0.347387301443
0.38728344326
0.517293618512
0.515196765314
0.896803255024
1.87538122376
0.435857797868
0.31338566637
0.253592817489
0.582880347449
0.193095291774
0.172533010256
0.157053305469
0.145772652136
0.139562617226
0.144941090521
0.173026161075
0.145238263963
0.17914870341
0.465222460409
0.437820498423
0.481998117431
0.541918978627
0.488458540604
1.10536349414
2.13597650414
0.444482143158
0.277891957598
0.246293946229
0.746721715817
0.196660629027
0.178695230365
0.166433634106
0.158412586573
0.155532322921
0.164981374838
0.204071830241
0.176184118024
0.308752879155
0.632593757938
0.581315372598
0.605874407546
0.569103384203
0.574456784793
1.58940047627
0.676267680464
0.366622458638
0.242321646325
0.244966673142
0.854127132998
0.20026765928
0.185091113203
0.176603676293
0.17307870111
0.176169028352
0.194271515522
0.248666433974
0.242749495843
0.478262616166
0.950192637971
0.817555017078
0.786343146902
0.68571788088
1.02652441191
1.52250449993
0.422152215437
0.255055548935
0.219300694675
0.259095602505
0.880552878835
0.206507296939
0.193825596136
0.189445364228
0.192066999904
0.204918259565
0.24067169502
0.33407167053
0.396458499462
0.775622903549
1.61030812634
1.26137610231
1.13457802633
1.30536666582
0.8361880515
0.425098307747
0.236219022724
0.175335317229
0.20400474509
0.2857145245
0.994315520769
0.217915862217
0.209208457347
0.210778385745
0.224298117758
0.257928902608
0.338090518482
0.54449604578
0.846804010733
1.24607276481
2.90315798919
2.11975096291
1.57065861083
0.951770468258
0.679921340761
0.217905262018
0.121624389523
0.133285116628
0.197392252025
0.314160801941
0.888301092605
0.237728111397
0.237523102002
0.252754952846
0.292715218244
0.383011225309
0.607235680281
1.19118555441
2.54737243688
2.64065585671
2.37037600693
1.42098781594
1.11238771414
0.911982926931
0.327687867546
0.0853882755655
0.11592525404
0.165068374728
0.194707352689
0.332332523131
0.864415346282
0.272329438111
0.29252555002
0.347093444227
0.469241033741
0.762047594852
1.48924809864
2.9919450377
6.74468165287
7.54187446003
3.99966285333
2.64646265725
1.28638268328
0.435212433144
0.0836451207292
0.0701420099165
0.299879349518
0.190684692283
0.192667774881
0.337994762562
0.905502387676
0.336037734279
0.410765306178
0.580007904931
0.974895797592
1.78013685016
3.07267525225
5.25683134088
9.42292915356
9.13274180122
5.54394406705
3.08959124172
0.6788372093
0.135327394468
0.0352227627792
0.0823212850809
0.527634413253
0.557099172089
0.213228802908
0.342685674355
0.737953488169
0.467809329406
0.679455420377
1.1479991233
1.93081735513
3.24433715314
5.14462066382
7.93152931353
11.0028638946
10.1321321252
6.40746400251
2.31167871337
0.267417254223
0.047180013893
0.03060454742
0.106567573032
0.660318672201
1.16771149225
0.322786357298
0.354669745065
0.656356579038
0.737171772744
1.21188614436
1.96604796266
3.47665502095
6.12128358764
7.93033322431
9.57337054907
11.1790617223
10.5449212365
7.6749144142
1.15887120931
0.146560423359
0.0317618265387
0.0355979858033
0.201020012983
0.781012135502
1.33671586789
1.83817597158
0.371851042799
0.653495201539
1.16229306849
1.86453421684
3.54952087082
6.18243906845
7.81959244233
8.84478778982
9.64933551829
10.2405700237
9.61015768945
7.31663936029
0.622732847779
0.0973112013083
0.0267425266645
0.0465205397356
0.381322540017
0.888645388422
1.52250608312
2.22884681371
0.392844894016
0.63441238545
1.59543561804
3.2863580921
5.63474597742
7.11844307003
7.97446942077
8.4465559511
8.73162558731
8.82982898004
7.89534461615
5.0779057238
0.41672249188
0.0675584088869
0.0294267671588
0.0945448956418
0.520553482224
1.00095840671
1.75831644337
1.90126869842
0.407713846048
0.60227040961
2.61149379631
4.8032810977
6.19594138881
6.95390956705
)
;

boundaryField
{
    emptyPatch
    {
        type            empty;
    }
    minY
    {
        type            fixedValue;
        value           nonuniform List<scalar> 0();
    }
    maxY
    {
        type            inletOutlet;
        inletValue      nonuniform List<scalar> 0();
        value           nonuniform List<scalar> 0();
    }
    water_to_cooler
    {
        type            epsilonWallFunction;
        blending        stepwise;
        value           nonuniform List<scalar> 
37
(
6.52300734918
6.05100180434
5.31130000028
5.3751562474
4.80664899819
4.41021804651
4.10877719571
3.89842143264
3.75630068127
3.6811722203
3.6596212413
3.70394929595
3.82714541516
4.02852308788
4.25368386283
3.9701478778
3.65904512051
2.91263219504
2.56038762937
2.62231665538
2.53643175343
2.30147486924
2.14943665258
2.88677560052
3.73418109649
5.91660250198
7.41861058421
7.8528205119
8.54519453516
5.49904323994
4.37051062027
4.30830528363
3.23623220549
2.86013939287
2.89223415557
2.84862185057
2.72756656511
)
;
    }
    water_to_heater
    {
        type            epsilonWallFunction;
        blending        stepwise;
        value           nonuniform List<scalar> 
60
(
9114.64075985
9114.64075985
10053.3510688
10053.3510688
12342.3217585
12342.3217585
13277.4533695
11706.1503875
10010.7609687
10010.7609687
8959.74362114
8959.74362114
8215.95803099
8215.95803099
8146.09979433
8555.71435826
9524.34608081
9524.34608081
10194.8826834
10194.8826834
10230.1108217
10230.1108217
9636.05835694
8824.1967563
8383.34745193
8383.34745193
8905.18870376
8905.18870376
8480.29576221
8480.29576221
7993.20882871
7647.56742489
7587.85599371
7587.85599371
7974.88982187
7974.88982187
8472.73038623
8472.73038623
9090.44130317
10785.3514706
13174.7902654
13174.7902654
15152.0198515
15152.0198515
16534.8217537
16534.8217537
20265.7965815
27786.3842927
31059.3309363
31059.3309363
30734.6378854
30734.6378854
31656.6499224
31656.6499224
35471.0894159
41709.3305797
48765.0494642
48765.0494642
54825.6647021
54825.6647021
)
;
    }
    procBoundary1to0
    {
        type            processor;
        value           nonuniform List<scalar> 
41
(
14087.8745873
3163.95365055
944.315295374
326.643888079
119.273104274
44.0356665099
16.3960451855
6.58876169448
3.10020089127
1.71934191424
1.072515773
0.729840260883
0.546800663425
0.460512550354
0.443252541954
0.495967885877
0.634600317466
0.800885333289
0.702958945653
1.46253773286
7.36144533364
7.57145436541
7.69881216439
7.62089164537
6.5984888385
2.18122338097
0.249448374912
0.048447963282
0.0352026302148
0.213140608072
0.602857108707
1.12732754733
2.05768000509
0.912825232746
0.415742587091
0.734241789812
3.66873245044
5.20318071783
5.94472354391
7.36144533364
6.30507864467
)
;
    }
    procBoundary1to3
    {
        type            processor;
        value           nonuniform List<scalar> 
41
(
8.73890988681
4.63984488528
2.60878393736
1.60371473895
1.09148142877
0.835140496867
0.710454801758
0.649451345877
0.614435841155
0.58110074881
0.532762789186
0.478039693256
0.437286855234
3740.0859506
1040.00076639
349.829847561
138.972685948
61.4843901352
28.995583538
14.5074241281
14.5074241281
0.428325718929
0.55787790437
0.842386691525
1.03934201779
1.08675370618
1.00442083874
0.828277716084
0.648109063098
0.561046368904
0.66504327466
0.981465515131
0.862441597139
0.531348824009
0.517564875868
0.565602700339
0.520256253661
0.460257471256
0.413598183251
0.649577741153
2.89910886651
)
;
    }
}


// ************************************************************************* //
