/*--------------------------------*- C++ -*----------------------------------*\
| =========                 |                                                 |
| \\      /  F ield         | OpenFOAM: The Open Source CFD Toolbox           |
|  \\    /   O peration     | Version:  2312                                  |
|   \\  /    A nd           | Website:  www.openfoam.com                      |
|    \\/     M anipulation  |                                                 |
\*---------------------------------------------------------------------------*/
FoamFile
{
    version     2.0;
    format      ascii;
    arch        "LSB;label=32;scalar=64";
    class       volScalarField;
    location    "0.085/heater";
    object      T;
}
// * * * * * * * * * * * * * * * * * * * * * * * * * * * * * * * * * * * * * //

dimensions      [0 0 0 1 0 0 0];

internalField   nonuniform List<scalar> 
150
(
799.331751434
799.203362263
798.942477123
798.542308461
797.995769306
799.332838491
799.204743829
798.94438886
798.544865136
797.999014917
799.333606288
799.205769927
798.945893069
798.546933934
798.001835752
799.333807776
799.206170454
798.946696765
798.548188587
798.003027641
799.333869743
799.206457078
798.947479096
798.549672389
798.004796191
799.333890199
799.206735709
798.948331902
798.55141227
798.007724746
799.333755433
799.20687564
798.949088495
798.553073575
798.010358005
799.333495023
799.20689685
798.949764243
798.55471801
798.012851501
799.333478772
799.20735637
798.951313196
798.557867274
798.017314822
799.333743741
799.208408886
798.954183964
798.563458269
798.025154746
799.334849106
799.211257839
798.96118746
798.576971838
798.044351765
799.336096812
799.215427704
798.972915186
798.601672773
798.081435332
799.33648718
799.219138782
798.986250682
798.633634382
798.133219164
799.335630938
799.220316642
798.994324067
798.657266577
798.175831512
799.334355538
799.219980911
798.998276847
798.67345108
798.210275338
799.332723855
799.218273014
798.998118267
798.680934219
798.232911287
799.330763093
799.215451352
798.994974491
798.683159225
798.251068755
799.328769543
799.211847702
798.989139833
798.680222176
798.265560765
799.327952472
799.209053714
798.982741251
798.675101995
798.285635203
799.329928905
799.209738101
798.980201737
798.67135339
798.311319161
799.335096616
799.213783832
798.980385143
798.665540495
798.324982443
799.345630641
799.22385271
798.987128792
798.663761214
798.320350837
799.359399662
799.237704857
798.998282235
798.665222857
798.309681
799.368974377
799.247601143
799.006897487
798.667481059
798.301538873
799.374004286
799.253010833
799.012296765
798.67103452
798.300927564
799.37621836
799.255550645
799.015123257
798.673458094
798.301093444
799.376595007
799.256091942
799.015146024
798.670220276
798.288882675
799.373882778
799.253307229
799.011108827
798.659636776
798.25437856
799.36862055
799.247551408
799.002355928
798.635525436
798.166399722
799.365388543
799.244040721
798.996266923
798.615855474
798.098307014
)
;

boundaryField
{
    emptyPatch
    {
        type            empty;
    }
    minY
    {
        type            zeroGradient;
    }
    maxY
    {
        type            zeroGradient;
    }
    minX
    {
        type            zeroGradient;
    }
    heater_to_water
    {
        type            compressible::turbulentTemperatureTwoPhaseRadCoupledMixed;
        refValue        nonuniform List<scalar> 
60
(
330.858850612
330.700377606
330.70040744
328.776291559
325.665953676
323.6400236
323.640076889
324.708449723
324.708496169
331.322392223
331.322422864
333.478655795
333.705868302
334.622404406
334.622441409
334.319822937
334.319836943
334.977082275
334.977053653
334.557486136
335.020136993
334.605358984
334.604971298
334.714752867
334.714182535
334.151806003
334.151355002
333.204421143
329.960192872
326.510952268
326.510792958
323.671910847
323.671811078
320.836501603
320.836447179
318.585071339
318.536434837
325.877194696
325.877013028
383.278599511
383.278436101
515.660657236
515.660731524
547.673964022
559.128556112
564.62708994
564.627185912
564.386060031
564.386086893
563.711893054
563.711911598
557.872178989
551.777372632
545.814652131
545.815042074
497.110779217
497.112505838
375.115603967
375.117258546
339.657703589
)
;
        refGradient     uniform 0;
        valueFraction   nonuniform List<scalar> 
60
(
0.000746559802169
0.000746595320118
0.000746594582102
0.000744284884922
0.00073771173148
0.000732055023414
0.000732053336251
0.000736802336796
0.000736800921732
0.000748185810939
0.000748185066404
0.000748569973307
0.000748368328418
0.000748586892907
0.000748586080307
0.000748369139173
0.000748368829002
0.000748563709162
0.000748564330892
0.000748345752536
0.000748505616362
0.000748306741823
0.000748315242792
0.000748417502752
0.00074842996565
0.000748292274033
0.000748302288468
0.000748210259081
0.000746046236051
0.000740751651229
0.000740756174811
0.000733860841326
0.000733863990133
0.000723323877287
0.000723325805418
0.000712452249711
0.000712928589014
0.000738333919967
0.000738339196381
0.000699016952632
0.000699018331854
0.000591120871995
0.000591120667969
0.000589249621739
0.000589521101263
0.000589285112975
0.000589284898917
0.000589520007286
0.000589519947296
0.000589421219827
0.000589421178314
0.00058951819136
0.000589726865505
0.000591648451278
0.000591647511257
0.000612255101688
0.000612249727806
0.000732348114941
0.000732331888244
0.000744358422072
)
;
        source          uniform 0;
        value           nonuniform List<scalar> 
60
(
797.648596058
797.648461151
797.651719757
797.651366988
797.654964164
797.656152947
797.657335233
797.655869655
797.657664036
797.657224015
797.660143806
797.661578267
797.664469433
797.665054059
797.667545008
797.667419067
797.671888659
797.672290283
797.680142982
797.679930213
797.69943674
797.699218443
797.736404847
797.736439614
797.788404097
797.788047084
797.830834359
797.830168558
797.863397869
797.863322041
797.88608423
797.887253584
797.905510359
797.908461659
797.923034026
797.92662141
797.946699645
797.939931311
797.96553496
798.024236939
798.035826474
798.15886294
798.1528493
798.172241953
798.167897843
798.17119449
798.162892617
798.162695529
798.162052431
798.161678141
798.16188917
798.158423783
798.142595131
798.138593606
798.104237939
798.069216356
797.982589355
797.857089006
797.790089526
797.758607893
)
;
        kappaMethod     solidThermo;
        Tnbr            T.liquid;
        region          solid;
        otherPhase      gas;
    }
    procBoundary1to0
    {
        type            processor;
        value           nonuniform List<scalar> 5(799.329876433 799.201166366 798.939725828 798.538938583 797.99192855);
    }
}


// ************************************************************************* //
