/*--------------------------------*- C++ -*----------------------------------*\
| =========                 |                                                 |
| \\      /  F ield         | OpenFOAM: The Open Source CFD Toolbox           |
|  \\    /   O peration     | Version:  2312                                  |
|   \\  /    A nd           | Website:  www.openfoam.com                      |
|    \\/     M anipulation  |                                                 |
\*---------------------------------------------------------------------------*/
FoamFile
{
    version     2.0;
    format      ascii;
    arch        "LSB;label=32;scalar=64";
    class       volScalarField;
    location    "0.725/water";
    object      Tf.gasAndLiquid;
}
// * * * * * * * * * * * * * * * * * * * * * * * * * * * * * * * * * * * * * //

dimensions      [0 0 0 1 0 0 0];

internalField   nonuniform List<scalar> 
1504
(
322.012783211
308.894065021
303.662973233
301.572437242
300.798456767
300.48908693
300.332642362
300.23870388
300.171377328
300.117471356
300.072451282
300.034680545
300.009591448
300.001219379
300.000114306
300.000015743
300.000001819
300
300
300
322.442995103
308.829922225
303.599192171
301.566025721
300.807020308
300.505360172
300.348008112
300.251088044
300.181185605
300.12504266
300.077912652
300.038299576
300.011666887
300.001836338
300.000191073
300.000025476
300.00000323
300.000000041
300
300
322.57395549
308.534711067
303.391302195
301.474042392
300.774980555
300.5047095
300.354248092
300.257892061
300.186895643
300.129300942
300.0805439
300.039830985
300.012772092
300.00230767
300.000277253
300.000034907
300.000004701
300.000000184
300
300
322.054606844
307.749186913
302.989004658
301.324892182
300.743230687
300.500231508
300.35557676
300.260681386
300.189322592
300.130653814
300.08046907
300.039479542
300.012956454
300.002542176
300.000339029
300.000042116
300.000005941
300.000000312
300
300
320.729591789
306.637985077
302.553885614
301.240683615
300.747566224
300.498109098
300.354712263
300.260599762
300.188907855
300.12903503
300.07782679
300.037585062
300.012429735
300.002563205
300.00036611
300.000046399
300.000006786
300.00000038
300
300
319.464635201
306.866100464
302.67009668
301.321019281
300.76622437
300.498986835
300.353023375
300.2583957
300.185717469
300.124276092
300.073163624
300.034712293
300.011509744
300.002451277
300.000365149
300.000047032
300.000007237
300.00000037
300
300
318.996657808
307.710493951
303.152376963
301.468963087
300.800581727
300.50393166
300.351304887
300.254352236
300.179390214
300.116956698
300.067350177
300.031536355
300.01053771
300.002307994
300.000351786
300.000045936
300.0000074
300.000000272
300
300
319.040000286
308.294335843
303.537746309
301.608230794
300.837443535
300.510393195
300.348981036
300.247599014
300.169970274
300.108209
300.061359815
300.028687632
300.009810363
300.002229855
300.000344574
300.000045112
300.000007282
300.000000124
300
300
319.333302455
308.56164204
303.714757829
301.678881732
300.857097262
300.512506381
300.343353182
300.236927063
300.158578502
300.099312107
300.056112432
300.026679878
300.009543224
300.002294266
300.000361852
300.000045425
300.000007059
300.000000022
300
300
319.676819289
308.585795571
303.689871935
301.660788028
300.846229579
300.502977819
300.32997701
300.222858888
300.146697631
300.091488077
300.052370943
300.025848926
300.009877006
300.002567238
300.000424692
300.000051042
300.000006911
300
300
300
320.168896074
308.691216977
303.682160818
301.633706551
300.822944181
300.480558054
300.311312449
300.207623834
300.136158119
300.085899289
300.050710064
300.026408246
300.010924252
300.00313047
300.000562459
300.000065246
300.000006609
300
300
300
320.700004141
308.827876973
303.651616689
301.584766597
300.777112359
300.449466208
300.289889289
300.193639514
300.128583579
300.083496763
300.051545858
300.02857676
300.012820307
300.004042587
300.0007846
300.000088178
300.000005727
300
300
300
320.118782007
308.494068597
303.388038114
301.440019327
300.70337193
300.410077755
300.269087523
300.183824259
300.126112455
300.085268436
300.05528922
300.032416115
300.015618405
300.005351894
300.00111058
300.00012328
300.000004209
300
300
300
317.232794912
307.347706993
302.897071444
301.224746613
300.608604318
300.371201818
300.25615697
300.182636315
300.130149966
300.091707977
300.062008827
300.038236399
300.019595106
300.007246743
300.001604878
300.000184115
300.000005309
300.000000156
300
300
314.379046691
306.123450945
302.384683667
300.976073125
300.513395457
300.350784201
300.260222082
300.193411211
300.142739918
300.103902589
300.07280241
300.046809461
300.025374533
300.010090432
300.002427383
300.000305322
300.000013651
300.000000565
300.000000393
300
313.545167044
305.845403203
302.243530469
300.858397056
300.504300774
300.375901595
300.290203652
300.221347113
300.166927467
300.123974606
300.088828991
300.058999288
300.033618656
300.014331197
300.003761637
300.000524359
300.000032173
300.000000873
300.000000915
300.000000148
315.894520855
306.99980193
302.718725632
301.064415456
300.618571635
300.451813069
300.34949204
300.268967657
300.204224409
300.152382238
300.11032522
300.075068679
300.044668373
300.020285894
300.00577222
300.000883114
300.00006612
300.000001109
300.000001041
300.000000448
321.707456353
309.087640882
303.845875889
301.682557689
300.904207987
300.589958707
300.43531166
300.33217121
300.251063701
300.186825454
300.135741667
300.093950428
300.057963116
300.027838892
300.008537608
300.001429147
300.000124386
300.00000166
300.000000806
300.000000559
326.031188319
310.461503075
304.553131671
302.102911544
301.12183785
300.711126732
300.514866643
300.391866732
300.296658608
300.221027196
300.161177058
300.113040883
300.071831095
300.036236079
300.011929787
300.002192085
300.000219689
300.000005415
300.00000061
300.000000398
327.749573017
311.054415051
304.814221397
302.264396347
301.215778448
300.766778917
300.552020068
300.4237423
300.327648029
300.247500632
300.182375287
300.129647637
300.084423496
300.04443896
300.01566486
300.003190301
300.000372973
300.000018906
300.00000122
300.000000175
328.593142736
311.283252418
304.870883461
302.295719131
301.23821458
300.784174526
300.566696308
300.437514696
300.342185551
300.262467954
300.196825824
300.142218212
300.094589973
300.05165809
300.019474994
300.004433711
300.000611162
300.000047817
300.000003411
300.00000016
329.078213575
311.407548326
304.871606124
302.278284809
301.226778362
300.780652928
300.567891622
300.441148117
300.347317879
300.26973103
300.205230549
300.150344269
300.101442727
300.056738865
300.022621788
300.005706108
300.000906549
300.000090802
300.000007233
300.000000448
329.543338946
311.489895167
304.850502409
302.238036749
301.197294053
300.764351043
300.56043092
300.438263785
300.347185614
300.272605813
300.209848082
300.155182701
300.105390831
300.059439472
300.024401668
300.006583275
300.00116321
300.000138817
300.000011852
300.00000097
329.90632176
311.551000203
304.818375491
302.188030711
301.158422257
300.740952317
300.547592025
300.431139319
300.344207257
300.273059079
300.212066715
300.157607674
300.106898749
300.06005663
300.024881026
300.006953806
300.001309749
300.000173517
300.000016377
300.000001562
330.311826873
311.584450619
304.777334362
302.132817254
301.115704047
300.713987279
300.531580713
300.421499661
300.339946691
300.272211914
300.212592726
300.158053642
300.106225144
300.058906889
300.024281878
300.006873767
300.001338242
300.000188009
300.000019716
300.000002028
330.615225628
311.599797974
304.736083703
302.083363609
301.076665069
300.688537688
300.515493273
300.411974961
300.335551058
300.270407913
300.211576247
300.156566784
300.103489785
300.056261312
300.022846175
300.006446997
300.001266606
300.000182798
300.000020649
300.000002241
330.920861928
311.547691628
304.660160112
302.032031389
301.043667643
300.667998325
300.502241483
300.404924123
300.331186634
300.267446002
300.208844845
300.15292268
300.098794108
300.052378403
300.020818917
300.005792679
300.001126825
300.000162725
300.000019374
300.000002166
330.899272464
311.059572379
304.345251829
301.902356805
300.991993735
300.64498785
300.490487767
300.398402843
300.326173454
300.2628795
300.20404791
300.146812539
300.092328353
300.047593043
300.01847794
300.00504086
300.000955562
300.000134943
300.00001679
300.000001857
329.825889358
309.665449901
303.675055732
301.681309276
300.928543707
300.627072172
300.484305159
300.39197665
300.319598272
300.256137117
300.196672455
300.138163235
300.084397658
300.042310666
300.016116051
300.004320538
300.00079022
300.000106109
300.000013976
300.000001431
327.551043592
308.295067272
303.077167366
301.476855714
300.877696485
300.616396214
300.476470772
300.383147952
300.310288158
300.246682603
300.186280485
300.127349432
300.075560125
300.037065053
300.014064646
300.003766625
300.000665153
300.000082285
300.000011586
300.000001032
325.037347947
308.440025082
303.068551831
301.431598644
300.852141349
300.600617627
300.462626194
300.370220205
300.298003853
300.234550228
300.173340433
300.11537524
300.066782549
300.03255747
300.012677742
300.003515884
300.000617942
300.000073615
300.00001033
300.000000766
322.014514038
308.455278423
303.167886897
301.426502872
300.824759671
300.576053395
300.44320523
300.35425851
300.284003099
300.220668998
300.159690643
300.103925813
300.059366378
300.02952304
300.012291159
300.003721967
300.000725654
300.000097415
300.000010435
300.000000718
319.109370635
307.851401971
303.103871265
301.391278655
300.787234891
300.546377149
300.422113945
300.338576218
300.270572645
300.207783524
300.148264444
300.095242588
300.054659984
300.028566422
300.013181445
300.004655786
300.001141784
300.000189719
300.000018595
300.000001176
316.814173025
306.982054859
302.886778958
301.320913371
300.748307218
300.521609501
300.406622563
300.328031194
300.26194929
300.200485058
300.142583701
300.091598912
300.053707304
300.030017731
300.015734562
300.006782863
300.002071559
300.000450434
300.000069347
300.000005406
315.463301995
306.440324686
302.71933522
301.277712098
300.733828579
300.516049947
300.405137309
300.328535655
300.263584141
300.20305374
300.145534403
300.094407759
300.056875052
300.034543377
300.02055176
300.010276084
300.003858819
300.00111517
300.000261917
300.000047357
315.509546561
306.780779949
302.989808649
301.440461287
300.825962972
300.56441205
300.431753359
300.346491644
300.278810471
300.217463115
300.158564415
300.104639803
300.066160243
300.043067757
300.02737114
300.015187233
300.006914532
300.002579529
300.000786116
300.000196562
317.921671852
308.501978803
304.01706679
301.988290138
301.112425449
300.71004871
300.504052157
300.386395783
300.307368257
300.242505536
300.181864265
300.125423804
300.083384302
300.055356421
300.035708996
300.021460936
300.011267783
300.00495284
300.001788798
300.000534876
322.927642752
310.662408908
305.097628441
302.555554641
301.412698146
300.871496251
300.589482249
300
300
300
300
300
300
300
300
300
300
300
300
300
300
300
300
300
300
300
300
300
300
300
300
300
300
300
300
300
300
300
300
300
300
300
300
300
300
300
300
300
300
300
300
300
300
300
300
300
300
300
300
300
300
300
300
300
300
300
300.000000002
300
300
300
300
300
300
300
300
300
300
300
300
300
300
300
300
300
300
300
300.000000011
300
300
300
300
300
300
300
300
300
300
300
300
300
300
300
300
300
300
300
300.000000015
300
300
300
300
300
300
300
300
300
300
300
300
300
300
300
300
300
300
300
300.00000001
300
300
300
300
300
300
300
300
300
300
300
300
300
300
300
300
300
300
300
300
300
300
300
300
300
300
300
300
300
300
300
300
300
300
300
300
300
300
300
300
300
300
300
300
300
300
300
300
300
300
300
300
300
300
300
300
300
300
300
300
300.000000002
300
300
300
300
300
300
300
300
300
300
300
300
300
300
300
300
300
300
300
300.000000005
300
300
300
300
300
300
300
300
300
300
300
300
300
300
300
300
300
300
300
300.000000003
300
300
300
300
300
300
300
300
300
300
300
300
300
300
300
300
300
300
300
300
300
300
300
300
300
300
300
300
300
300
300
300
300
300
300
300
300
300
300
300
300
300
300
300
300
300
300
300
300
300
300
300
300
300
300
300
300
300
300
300
300
300
300
300
300
300
300
300
300
300
300
300
300
300
300
300
300
300
300
300
300
300
300
300
300
300
300
300
300
300
300
300
300
300
300
300
300
300
300
300
300
300
300
300
300
300
300
300
300
300
300
300
300
300
300
300
300
300
300
300
300
300
300
300
300
300
300
300
300
300
300
300
300
300
300
300
300.000000037
300
300
300
300
300
300
300
300
300
300
300
300
300
300
300
300
300
300
300
300.000000009
300
300
300
300
300
300
300
300
300
300
300
300
300
300
300
300
300
300
300
300
300
300
300
300
300
300
300
300
300
300
300
300
300
300
300
300
300
300
300
300
300
300
300
300
300
300
300
300
300
300
300
300
300
300
300
300
300
300
300
300
300
300
300
300
300
300
300
300
300
300
300
300
300
300
300
300
300
300
300.000000001
300
300
300
300
300
300
300
300
300
300
300
300
300
300
300
300
300
300
300
300.000000003
300
300
300
300
300
300
300
300
300.000000007
300
300
300
300
300
300
300
300
300
300
300.000000005
300
300
300
300
300
300
300
300
300
300.000000002
300
300
300
300
300
300
300
300
300
300.000000047
300
300
300
300
300.000000022
300
300
300
300
300.000000006
300
300
300
300
300.000000355
300.000000914
300.00000162
300.000002499
300.00000357
300.000004385
300
300
300
300
300
300.000000027
300
300
300
300
300.000000479
300.000001521
300.000002909
300.000004581
300.000006518
300.000008659
300.000010971
300.000013431
300.000015798
300.000017078
300
300
300
300
300
300.000000051
300
300
300.000001179
300.000003195
300.00000606
300.000009541
300.000013371
300.00001754
300.000021895
300.000026247
300.000030389
300.000034054
300.000036732
300.000037542
300
300
300
300
300
300.000000046
300.000000703
300.000003715
300.000007997
300.000013005
300.000018699
300.00002543
300.000032031
300.000038461
300.0000444
300.000049473
300.000053445
300.000055997
300.000057047
300.00005707
300
300
300
300
300
300.000001023
300.000006004
300.000013
300.0000208
300.000028843
300.000036953
300.000045712
300.000053513
300.000059917
300.000064966
300.000068622
300.000070684
300.000071453
300.000071363
300.000070722
300
300
300
300
300
300.000005367
300.000014734
300.000025278
300.000035579
300.000045044
300.00005352
300.000061379
300.000067751
300.000072185
300.000075242
300.000077159
300.000078314
300.00007877
300.000078538
300.000077678
300
300
300
300
300.000000838
300.000010268
300.000022652
300.000034866
300.00004545
300.000053966
300.000060648
300.00006601
300.000070305
300.000073247
300.000075788
300.000078101
300.000080017
300.000081278
300.000081626
300.000080936
300
300
300
300
300.000001178
300.000012576
300.000025968
300.000037984
300.000047268
300.000053815
300.000058464
300.00006205
300.000065286
300.000068289
300.000071551
300.000074919
300.000077963
300.000080544
300.000081782
300.000081414
300.000000258
300.000000016
300
300
300.000000107
300.000011245
300.000024043
300.0000352
300.000043169
300.000047863
300.000050433
300.00005246
300.000055076
300.000058886
300.00006388
300.000069614
300.000074267
300.000077751
300.000080179
300.000080443
300.000005102
300.000000544
300.000000322
300.000000159
300.000000174
300.000007104
300.000018622
300.000029258
300.000036263
300.000040263
300.00004217
300.000043002
300.000043912
300.000046607
300.00005233
300.000061544
300.000069767
300.000075395
300.000078564
300.000078982
300.000040183
300.000006116
300.000000894
300.000000557
300.000000458
300.000003763
300.000011883
300.000020503
300.000027295
300.000031457
300.000033647
300.000034785
300.000035825
300.000037779
300.000042457
300.000053971
300.000065369
300.000073047
300.000077519
300.000077826
300.000139231
300.000031662
300.000005942
300.00000101
300.000000668
300.000001759
300.000006746
300.000012781
300.000018042
300.000021968
300.000024829
300.000026947
300.000028935
300.000031502
300.000037899
300.000048956
300.000062301
300.000071381
300.000076903
300.000077549
)
;

boundaryField
{
    emptyPatch
    {
        type            empty;
    }
    minY
    {
        type            calculated;
        value           nonuniform List<scalar> 0();
    }
    maxY
    {
        type            calculated;
        value           nonuniform List<scalar> 0();
    }
    water_to_cooler
    {
        type            calculated;
        value           nonuniform List<scalar> 
38
(
300
300
300
300
300
300
300
300
300
300
300
300
300
300
300
300.000000001
300.000000002
300.000000004
300.000000009
300.000000019
300.00000004
300.000000087
300.000000193
300.000000424
300.000000915
300.000001905
300.000003862
300.000006923
300.000010616
300.000013989
300.000016529
300.000018286
300.000019576
300.000020498
300.000021074
300.000021596
300.000022097
300.000022483
)
;
    }
    water_to_heater
    {
        type            calculated;
        value           nonuniform List<scalar> 
60
(
788.560425466
788.600716895
788.600344669
788.662024687
788.660920132
788.743742582
788.743724874
788.849945083
788.84868875
788.977449173
788.978024051
789.123402704
789.124308887
789.276320601
789.275734834
789.430750057
789.431850831
789.590302726
789.589723387
789.74803514
789.74619544
789.900798903
789.911398345
790.054507892
790.054716559
790.184316294
790.174474504
790.295875682
790.31974461
790.39765128
790.39884886
790.440084923
790.444019566
790.444864681
790.442698234
790.405132252
790.402990702
790.3273611
790.329609812
790.220535197
790.21822067
790.084762397
790.086184601
789.947881503
789.94761515
789.841691672
789.839259732
789.773890654
789.767019195
789.74635439
789.727972993
789.743613419
789.744278475
789.807072244
789.809300172
789.903850968
789.902816061
790.023121397
790.020098708
790.153406103
)
;
    }
    procBoundary3to1
    {
        type            processor;
        value           nonuniform List<scalar> 
41
(
300.434899957
300.341405618
300.27203196
300.210421009
300.152235424
300.10402052
300.069791064
300.045372851
300.028286954
300.01602128
300.007800202
300.003156653
300.001061447
327.193459304
311.491457083
305.396149723
302.719582425
301.508480766
300.931879912
300.434899957
300.633897297
300.000314801
300.000085615
300.000021189
300.000004763
300.000001126
300.000000845
300.000003509
300.000007452
300.000011393
300.000014887
300.000017999
300.000020718
300.000023288
300.000026722
300.000033472
300.000045792
300.000060766
300.000070629
300.000076977
300.00007825
)
;
    }
    procBoundary3to2
    {
        type            processor;
        value           nonuniform List<scalar> 
41
(
320.926191759
308.81644193
303.602479951
301.493840217
300.751877263
300.449198884
300.305757984
300.21962738
300.156781032
300.106200402
300.064036658
300.02908815
300.007058713
300.000714064
300.000058504
300.000007984
300.000000731
300
300
300
300
300
300
300
300
300
300
300
300
300
300
300
300
300
300
300
300
300
300
300
300
)
;
    }
}


// ************************************************************************* //
