/*--------------------------------*- C++ -*----------------------------------*\
| =========                 |                                                 |
| \\      /  F ield         | OpenFOAM: The Open Source CFD Toolbox           |
|  \\    /   O peration     | Version:  2312                                  |
|   \\  /    A nd           | Website:  www.openfoam.com                      |
|    \\/     M anipulation  |                                                 |
\*---------------------------------------------------------------------------*/
FoamFile
{
    version     2.0;
    format      ascii;
    arch        "LSB;label=32;scalar=64";
    class       volScalarField;
    location    "0.235/water";
    object      rhom;
}
// * * * * * * * * * * * * * * * * * * * * * * * * * * * * * * * * * * * * * //

dimensions      [1 -3 0 0 0 0 0];

internalField   nonuniform List<scalar> 
1503
(
914.224952495
948.951578779
985.778911306
996.503433275
999.350281945
999.90032034
999.987402917
999.999047505
999.999977551
999.999999782
999.999999999
1000
1000
1000
1000
1000
1000
1000
1000
1000
695.778482542
871.112847209
946.86798296
982.077868384
994.40433867
998.521523154
999.667174092
999.940803432
999.994064759
999.999865055
999.999999515
999.999999999
1000
1000
1000
1000
1000
1000
1000
1000
693.684453775
828.073211502
915.324515145
964.039246644
986.296662395
995.474220293
998.738620502
999.715601244
999.957746112
999.997799133
999.999988405
999.999999984
1000
1000
1000
1000
1000
1000
1000
1000
693.685515957
788.837550081
876.299770649
936.819271238
971.725131302
989.198543832
996.563908473
999.114793468
999.836278628
999.985168637
999.999791108
999.999999727
1000
1000
1000
1000
1000
1000
1000
1000
701.091831138
765.077792991
836.380298185
899.85745929
946.81078719
976.316538935
991.449674697
997.573535208
999.494041091
999.938691742
999.997866137
999.999995565
999.999999997
1000
1000
1000
1000
1000
1000
1000
714.052867951
755.509907138
805.270844257
860.494085199
912.302364557
953.390226506
980.011274304
993.457058841
998.474262282
999.781418116
999.987168233
999.999913377
999.999999938
1000
1000
1000
1000
1000
1000
1000
723.018537428
754.349345044
787.247483567
828.72538035
876.012666974
922.046118975
959.324240277
983.610750139
995.388559725
999.211984794
999.93687895
999.998800986
999.999998577
999.999999999
1000
1000
1000
1000
1000
1000
722.981103608
754.518035302
780.732499217
810.553504961
847.972541535
890.221960452
931.55145695
965.626485595
987.61502196
997.2829358
999.710653708
999.989972099
999.9999645
999.999999979
1000
1000
1000
1000
1000
1000
722.979035724
757.403938899
778.658421735
801.072473557
829.146116556
864.00221767
903.091371888
941.549113406
973.172843454
992.13208007
998.84043009
999.938082035
999.999379639
999.999999439
1000
1000
1000
1000
1000
1000
726.507945436
765.218715891
779.809853778
795.347025984
815.890627982
844.284801512
879.146320532
917.196964436
953.757717233
982.122754085
996.302982259
999.705810792
999.994233805
999.999990476
999.999999996
1000
1000
1000
1000
1000
735.046251567
775.657661667
781.500019414
790.017492408
804.920145087
829.269274322
861.156202404
896.924984067
933.518161516
967.631415076
990.8251297
998.919842691
999.963542165
999.999834269
999.999999919
1000
1000
1000
1000
1000
742.511680965
778.856694453
779.956180918
783.013887744
794.320757297
817.227571474
847.420892339
880.040782812
914.025998086
949.8067315
981.206611016
996.748825364
999.814670154
999.997714291
999.999999335
1000
1000
1000
1000
1000
740.765149342
771.307827671
772.278739426
773.685134652
784.496852506
806.759011953
834.658007882
863.703813009
894.044938603
928.443564827
965.591822917
991.280543198
999.150271606
999.976485766
999.999938577
1000
1000
1000
1000
1000
726.10974033
749.481044241
755.970240693
761.709763543
774.676210823
795.704843685
820.408604269
846.041806165
872.785705048
903.692348895
941.940557939
978.540815088
996.4423381
999.801446154
999.997584355
999.999999938
1000
1000
1000
1000
696.830617249
727.302382041
738.927187198
749.128170334
764.507556037
785.004303025
807.127657997
829.664912382
853.133237116
879.079695945
912.483427967
954.531913664
987.615763061
998.723541503
999.964436836
999.999901113
999.999999999
1000
1000
1000
694.286138245
720.453637214
728.84078852
739.439009321
756.661026354
779.10699453
802.059093434
822.647705676
840.84916854
860.290034321
884.780076047
922.536778215
967.855950167
994.319364384
999.695121866
999.996674271
999.999999953
1000
1000
1000
692.16342088
720.284531349
726.575712538
736.543752283
754.540091256
778.517515346
802.324567336
823.134164096
839.731304281
851.246105643
865.038132124
892.556023425
939.69689041
983.187158108
998.424647567
999.964865099
999.999919802
999.999999996
1000
1000
694.280878536
721.849407856
727.72165981
737.779373112
755.895878905
780.338913062
805.218875245
826.69578958
841.962763867
848.40122798
853.753618202
871.630635319
913.437011069
966.233186538
994.933930475
999.805687438
999.998753211
999.999999214
1000
1000
692.150793657
726.493620911
730.392530315
741.709903425
761.201994063
787.018798073
813.337674215
835.750905285
848.441643908
849.146117792
849.161639623
859.66576701
895.800928919
949.860030068
989.319317656
999.365562904
999.992882507
999.999989304
999.999999993
1000
694.285293724
733.076726606
735.800267503
749.466609805
772.056677434
800.201280904
827.948697118
848.173324624
849.720120411
849.811545357
849.178036564
854.584738286
885.687368666
938.324898596
983.508994679
998.647190726
999.977859628
999.999945838
999.99999995
1000
692.523618481
739.632663188
744.079418744
760.814095007
787.022006001
817.756227088
844.817800232
849.72004756
850.010876868
849.75776835
849.866871556
850.969256796
878.164407073
930.012688243
978.312103338
997.742268294
999.951182487
999.999841406
999.999999826
1000
694.285581595
745.125440782
754.647508169
774.08764774
801.818498455
831.849477119
849.684934328
849.928991336
849.720059506
850.049321528
847.760943893
844.117275842
868.77602722
920.094045864
971.85353667
996.368353191
999.89763338
999.999565157
999.999999483
1000
693.628880355
750.219130035
766.629748763
787.37386137
812.799307169
838.253753351
849.741274061
849.684987346
850.049262714
849.720046052
834.435070243
829.894194729
852.923805212
901.987732846
959.637003249
993.299638723
999.733664498
999.998320745
999.999998161
999.999999999
694.42792921
755.796249099
773.909082595
793.7922647
815.911456215
838.547456341
849.608262887
849.987794539
849.684990664
836.081840135
820.218996438
820.4427284
830.345861421
871.514205887
935.068766048
985.274964089
999.101664058
999.990408835
999.99999184
999.999999997
699.508281311
762.60413654
774.989939544
792.508437042
813.431271842
834.062440483
845.946042514
844.276280826
833.453535456
820.322466589
820.442675693
820.126948807
820.44268477
837.603723828
895.929006086
966.708255515
996.760884978
999.93665397
999.999853466
999.999999975
715.096139564
766.733101906
770.565678798
781.755269438
799.901071914
818.269992743
826.898337278
823.749655302
818.841501275
820.433862875
820.650529928
820.442636381
820.203989364
820.442639165
857.491125195
935.409483992
989.717227461
999.619659957
999.997520479
999.999999834
725.518748946
760.252686435
753.643659083
755.490567164
771.644908102
793.494412319
804.944990301
809.643295448
817.58677359
825.470534037
829.870694166
825.016942803
820.442592377
820.273295771
834.802724092
900.689399518
974.682356979
998.270716513
999.976236548
999.999984387
722.371358235
738.742340652
724.152378672
720.829087262
739.436089988
769.023663984
789.401647493
804.23193552
820.18108978
836.162092529
843.733226898
837.585144135
824.84151592
820.442547504
829.329168604
875.758282718
952.66454395
994.31209399
999.851099229
999.999496938
713.942482663
711.517251947
694.410830458
692.696142593
712.182745832
747.276337708
777.011063555
800.842173193
824.495313928
846.11878837
853.892014051
848.771406239
835.649087278
825.508695612
830.667673539
860.627465325
928.816078132
986.203221526
999.360107202
999.994764203
704.245962077
692.310919692
674.807509069
674.509236191
692.525462011
728.259884007
765.101960398
796.988165171
827.248909704
851.730429739
857.283465842
855.189069327
846.583003773
836.506062013
834.773467885
851.29626948
906.281466113
973.415510769
997.982623443
999.970681398
696.132462516
681.013072596
665.009998888
665.648793246
680.558004544
714.260538409
755.077322238
793.464131871
828.988400171
854.534751398
857.501887233
857.453368144
854.092921487
846.265885571
839.151224302
844.600462397
884.314264775
955.749117995
994.854101092
999.878219803
688.018150725
671.467966634
665.635229858
665.042089514
675.432339819
707.184161921
749.82711563
792.334159171
831.278559483
856.215449457
857.682909832
857.764803647
857.434967223
853.001336579
842.594077159
835.187436039
862.23771181
933.876163216
988.789352749
999.568356565
679.012616768
665.60170526
664.848380664
665.648563793
674.573757437
706.198366521
749.518840337
793.888293807
835.49924719
857.364571948
857.898949911
857.936026759
857.819219004
856.806537199
843.454702088
821.469553809
841.92653176
910.092581323
978.666094261
998.695890717
674.540511051
664.973445955
665.635674825
665.186386331
675.548012057
708.438937972
753.066344142
800.337381887
842.323179228
857.64478813
858.070767241
858.105833855
858.051935364
857.508774334
842.164721622
818.797741593
829.128151502
887.666625658
964.605835304
996.724701386
674.229006192
665.601694751
665.095882961
665.648876199
680.423006285
716.935418576
763.499238862
811.884597009
850.406996887
857.929950142
858.14803223
858.264813483
858.176534238
857.853337646
839.378719266
818.877154812
822.74955701
870.924525328
949.289951023
993.254533448
674.568043838
665.262384343
665.63628691
667.186000773
690.742322565
731.388935269
779.375054106
826.488377
856.384604486
858.147979678
858.279417696
858.17650118
858.381914564
857.953088704
836.404594631
818.774986938
820.411112455
860.995915251
935.546793839
988.277425977
674.081849382
665.879455758
665.728856974
675.445523055
705.341565647
749.085590788
797.805210154
841.926970866
857.853023718
858.261006053
858.176457065
858.472119681
858.198725759
858.140185648
832.541577168
818.877089779
820.529614127
855.275871607
923.622205594
981.85021823
675.092543442
665.934924903
670.962647327
688.604260736
723.128498901
768.97380163
817.266483838
854.082163482
858.259773694
858.176402557
858.558905718
858.198690363
858.524729145
857.23312677
827.652292376
818.811768043
821.061930017
850.38423075
911.651021856
973.754412203
1000
1000
1000
1000
1000
1000
1000
1000
1000
1000
1000
1000
1000
1000
1000
1000
1000
1000
1000
1000
1000
1000
1000
1000
1000
1000
1000
1000
1000
1000
1000
1000
1000
1000
1000
1000
1000
1000
1000
1000
1000
1000
1000
1000
1000
1000
1000
1000
1000
1000
1000
1000
1000
1000
1000
1000
1000
1000
1000
1000
1000
1000
1000
1000
1000
1000
1000
1000
1000
1000
1000
1000
1000
1000
1000
1000
1000
1000
1000
1000
1000
1000
1000
1000
1000
1000
1000
1000
1000
1000
1000
1000
1000
1000
1000
1000
1000
1000
1000
1000
1000
1000
1000
1000
1000
1000
1000
1000
1000
1000
1000
1000
1000
1000
1000
1000
1000
1000
1000
1000
1000
1000
1000
1000
1000
1000
1000
1000
1000
1000
1000
1000
1000
1000
1000
1000
1000
1000
1000
1000
1000
1000
1000
1000
1000
1000
1000
1000
1000
1000
1000
1000
1000
1000
1000
1000
1000
1000
1000
1000
1000
1000
1000
1000
1000
1000
1000
1000
1000
1000
1000
1000
1000
1000
1000
1000
1000
1000
1000
1000
1000
1000
1000
1000
1000
1000
1000
1000
1000
1000
1000
1000
1000
1000
1000
1000
1000
1000
1000
1000
1000
1000
1000
1000
1000
1000
1000
1000
1000
1000
1000
1000
1000
1000
1000
1000
1000
1000
1000
1000
1000
1000
1000
1000
1000
1000
1000
1000
1000
1000
1000
1000
1000
1000
1000
1000
1000
1000
1000
1000
1000
1000
1000
1000
1000
1000
1000
1000
1000
1000
1000
1000
1000
1000
1000
1000
1000
1000
1000
1000
1000
1000
1000
1000
1000
1000
1000
1000
1000
1000
1000
1000
1000
1000
1000
1000
1000
1000
1000
1000
1000
1000
1000
1000
1000
1000
1000
1000
1000
1000
1000
1000
1000
1000
1000
1000
1000
1000
1000
1000
1000
1000
1000
1000
1000
1000
1000
1000
1000
1000
1000
1000
1000
1000
1000
1000
1000
1000
1000
1000
1000
1000
1000
1000
1000
1000
1000
1000
1000
1000
1000
1000
1000
1000
1000
1000
1000
1000
1000
1000
1000
1000
1000
1000
1000
1000
1000
1000
1000
1000
1000
1000
1000
1000
1000
1000
1000
1000
1000
1000
1000
1000
1000
1000
1000
1000
1000
1000
1000
1000
1000
1000
1000
1000
1000
1000
1000
1000
1000
1000
1000
1000
1000
1000
1000
1000
1000
1000
1000
1000
1000
1000
1000
1000
1000
1000
1000
1000
1000
1000
1000
1000
1000
1000
1000
1000
1000
1000
1000
1000
1000
1000
1000
1000
1000
1000
1000
1000
1000
1000
1000
1000
1000
1000
1000
1000
1000
1000
1000
1000
1000
1000
1000
1000
1000
1000
1000
1000
1000
1000
1000
1000
1000
1000
1000
1000
1000
1000
1000
1000
1000
1000
1000
1000
1000
1000
1000
1000
1000
1000
1000
1000
1000
1000
1000
1000
1000
1000
1000
1000
1000
1000
1000
1000
1000
1000
1000
1000
1000
1000
1000
1000
1000
1000
1000
1000
1000
1000
1000
1000
1000
1000
1000
1000
1000
1000
1000
1000
1000
1000
1000
1000
1000
1000
1000
1000
1000
1000
1000
1000
1000
1000
1000
1000
1000
1000
1000
1000
1000
1000
1000
1000
1000
1000
1000
1000
1000
1000
1000
1000
1000
1000
1000
1000
1000
1000
1000
1000
1000
1000
1000
1000
1000
1000
1000
1000
1000
1000
1000
1000
1000
1000
1000
1000
1000
1000
1000
1000
1000
1000
999.99999999
1000
1000
1000
1000
1000
1000
1000
1000
1000
1000
1000
1000
1000
1000
1000
1000
1000
1000
1000
999.999998574
1000
1000
1000
1000
1000
1000
1000
1000
1000
1000
1000
1000
1000
1000
1000
1000
1000
1000
1000
999.999851931
1000
1000
1000
1000
1000
1000
1000
1000
1000
1000
1000
1000
1000
1000
1000
1000
1000
1000
1000
999.998273805
1000
1000
1000
1000
1000
1000
1000
1000
1000
1000
1000
1000
1000
1000
1000
1000
1000
1000
1000
999.988868706
1000
1000
1000
1000
1000
1000
1000
1000
1000
1000
1000
1000
1000
1000
1000
1000
1000
1000
1000
999.950184836
1000
1000
1000
1000
1000
1000
1000
1000
1000
1000
1000
1000
1000
1000
1000
1000
1000
1000
1000
999.830900449
999.999987535
1000
1000
1000
1000
1000
1000
1000
1000
1000
1000
1000
1000
1000
1000
1000
1000
1000
1000
999.536491519
999.999355176
1000
1000
1000
1000
1000
1000
1000
1000
1000
1000
1000
1000
1000
1000
1000
1000
1000
1000
998.92683339
999.995547047
1000
1000
1000
1000
1000
1000
1000
1000
1000
1000
1000
1000
1000
1000
1000
1000
1000
1000
997.84375912
999.982914875
1000
)
;

boundaryField
{
    emptyPatch
    {
        type            empty;
    }
    minY
    {
        type            calculated;
        value           uniform 1000;
    }
    maxY
    {
        type            calculated;
        value           nonuniform List<scalar> 0();
    }
    water_to_cooler
    {
        type            calculated;
        value           nonuniform List<scalar> 
37
(
1000
1000
1000
1000
1000
1000
1000
1000
1000
1000
1000
1000
1000
1000
1000
1000
1000
1000
1000
1000
1000
1000
1000
1000
1000
1000
1000
1000
1000
1000
1000
1000
1000
1000
1000
1000
1000
)
;
    }
    water_to_heater
    {
        type            calculated;
        value           nonuniform List<scalar> 
61
(
914.165918456
695.610101326
695.610143236
693.518476319
693.518485644
693.518683585
693.518682116
700.926398353
713.890975354
722.858959354
722.858952916
722.820681203
722.820675908
722.818328975
722.818324209
726.348471108
734.89005828
742.358287303
742.358284087
740.610640329
740.610637335
725.949560175
725.949556874
696.659518555
694.115571126
691.992314512
691.992311028
694.111057568
694.111053874
691.979906479
691.97990243
694.115502217
692.352757989
694.115463379
694.115459061
693.458151567
693.458147202
694.257405035
694.257400337
699.338922383
714.931926133
725.357985175
725.357980733
722.208614376
722.208610089
713.776428613
713.776424192
704.076706781
695.960905295
687.844327234
687.844322899
678.836202891
678.836198655
674.363082985
674.363078739
674.051384729
674.390003416
673.902794853
673.902791159
674.913276155
674.913272884
)
;
    }
    procBoundary2to3
    {
        type            processor;
        value           nonuniform List<scalar> 
41
(
673.935711776
666.68018256
677.611183747
703.543708315
743.184707028
790.613636557
836.995782027
857.882379292
858.176335058
858.563762866
858.198643278
858.612316775
858.272822472
852.788407691
825.345875596
818.877017862
821.466944461
843.657525343
897.565991244
963.848858545
1000
1000
1000
1000
1000
1000
1000
1000
1000
1000
1000
1000
1000
1000
1000
1000
1000
996.184545736
999.954026189
1000
1000
)
;
    }
}


// ************************************************************************* //
