/*--------------------------------*- C++ -*----------------------------------*\
| =========                 |                                                 |
| \\      /  F ield         | OpenFOAM: The Open Source CFD Toolbox           |
|  \\    /   O peration     | Version:  2312                                  |
|   \\  /    A nd           | Website:  www.openfoam.com                      |
|    \\/     M anipulation  |                                                 |
\*---------------------------------------------------------------------------*/
FoamFile
{
    version     2.0;
    format      ascii;
    arch        "LSB;label=32;scalar=64";
    class       volScalarField;
    location    "0.27/water";
    object      alphat.gas;
}
// * * * * * * * * * * * * * * * * * * * * * * * * * * * * * * * * * * * * * //

dimensions      [1 -1 -1 0 0 0 0];

internalField   nonuniform List<scalar> 
1503
(
2.00350248642e-07
8.34526163e-08
3.53750959962e-08
2.40984624993e-08
9.37612636192e-08
6.89598232567e-07
2.92599887687e-06
6.6318207008e-06
1.00568090613e-05
1.2243061142e-05
1.33902827918e-05
1.39241060458e-05
1.41472608316e-05
1.42272411161e-05
1.42468452569e-05
1.42439799865e-05
1.42347704381e-05
1.42254358036e-05
1.42179797496e-05
1.42127696688e-05
9.04119130687e-07
6.47526195534e-07
3.33346390044e-07
1.76320694609e-07
7.35582255014e-08
5.64991233879e-08
1.19508046781e-07
6.91142896352e-07
3.01199675572e-06
6.9342997845e-06
1.03592492722e-05
1.24517993806e-05
1.35159249715e-05
1.39946756042e-05
1.4183931382e-05
1.4243298495e-05
1.42502142205e-05
1.42394555662e-05
1.42254392722e-05
1.4213504828e-05
1.24242307441e-06
1.07835956431e-06
7.17207521223e-07
3.93255677062e-07
2.18977964301e-07
1.0484056047e-07
7.60899263654e-08
1.75297600127e-07
9.3757847258e-07
3.39499534566e-06
7.06060136942e-06
1.02636085805e-05
1.2332960437e-05
1.34543549487e-05
1.39881629135e-05
1.42097029067e-05
1.42827845711e-05
1.42930121679e-05
1.42811687473e-05
1.42650706787e-05
1.47168180857e-06
1.33469267767e-06
9.81642546812e-07
6.17652082348e-07
3.99121641063e-07
1.91808891579e-07
1.03089523111e-07
9.80455417958e-08
3.59336726851e-07
1.67434390772e-06
4.5963976126e-06
8.05645474752e-06
1.08344828698e-05
1.26120195538e-05
1.35901825444e-05
1.40641655677e-05
1.42624008355e-05
1.43261903464e-05
1.43322992613e-05
1.43185492477e-05
1.63835677381e-06
1.52187518886e-06
1.17261789697e-06
8.02508584878e-07
4.86674304485e-07
3.24815233126e-07
1.40871627402e-07
9.13760048481e-08
1.74888170677e-07
8.57306506743e-07
2.9694946152e-06
6.19087097584e-06
9.30330554398e-06
1.15991971257e-05
1.30253996031e-05
1.38022698419e-05
1.41751537021e-05
1.43269548169e-05
1.43710649599e-05
1.43697697997e-05
1.74924129351e-06
1.66051631137e-06
1.31887958294e-06
9.45586889084e-07
6.22438615054e-07
3.58652163709e-07
2.20987107037e-07
9.42687503988e-08
1.06420604442e-07
4.45574626242e-07
1.89966447681e-06
4.70062703177e-06
7.88181740141e-06
1.05288357251e-05
1.23478971088e-05
1.34370862427e-05
1.40151858486e-05
1.4283914342e-05
1.43861779965e-05
1.44090131403e-05
1.82692398641e-06
1.76073281074e-06
1.42066254026e-06
1.04561745256e-06
7.23797569369e-07
4.58822974008e-07
2.43919530142e-07
1.28702078553e-07
7.23038945188e-08
2.2374074239e-07
1.16988297946e-06
3.50855883355e-06
6.6066822237e-06
9.47016535533e-06
1.16101465069e-05
1.2994621029e-05
1.37900932273e-05
1.41959256384e-05
1.43737458998e-05
1.44321912526e-05
1.86350337182e-06
1.80327606063e-06
1.47037728877e-06
1.10691796477e-06
7.96151805224e-07
5.38618349431e-07
3.19640200538e-07
1.60430995109e-07
7.05179072557e-08
1.00508630146e-07
6.45428834036e-07
2.51960473283e-06
5.45725925701e-06
8.45084904481e-06
1.08494209512e-05
1.25013816634e-05
1.3512977373e-05
1.40671423893e-05
1.43336375828e-05
1.44376752511e-05
1.86995158723e-06
1.80470877992e-06
1.48813190231e-06
1.14379852273e-06
8.4760405742e-07
6.01217371034e-07
3.87888982993e-07
2.04005021846e-07
9.96168683668e-08
5.2062389467e-08
2.71903585561e-07
1.6379875827e-06
4.37248057856e-06
7.46144603367e-06
1.00834643762e-05
1.19780868428e-05
1.31977771949e-05
1.39043028576e-05
1.42680359167e-05
1.44252112416e-05
1.8666330281e-06
1.80759794873e-06
1.50468329555e-06
1.17137396395e-06
8.85538332046e-07
6.50032547512e-07
4.46007391066e-07
2.62373350201e-07
1.13322798891e-07
5.27813517078e-08
8.47610549934e-08
8.33475261044e-07
3.27005430644e-06
6.45916644542e-06
9.30808666437e-06
1.14350848294e-05
1.28551495128e-05
1.37140793068e-05
1.41795209174e-05
1.43949714937e-05
1.87033966688e-06
1.81668131916e-06
1.52053661196e-06
1.19260433139e-06
9.1373014217e-07
6.880223506e-07
4.94993738666e-07
3.1694419806e-07
1.56315514524e-07
5.43118637009e-08
3.97998304861e-08
2.62843620493e-07
2.08910041122e-06
5.36821686319e-06
8.48981901427e-06
1.08653936281e-05
1.2487490178e-05
1.34998921079e-05
1.40695884558e-05
1.43467509419e-05
1.85972891984e-06
1.81925285033e-06
1.52998486413e-06
1.20675872252e-06
9.34030800015e-07
7.17478279371e-07
5.3569585648e-07
3.65701249011e-07
1.99733443245e-07
7.09832851454e-08
3.43576643017e-08
6.81561796303e-08
9.60129371803e-07
4.1232307724e-06
7.57139555074e-06
1.02409641217e-05
1.20850640437e-05
1.32588745663e-05
1.39371172694e-05
1.42796240367e-05
1.8455671235e-06
1.81843598519e-06
1.53323595741e-06
1.21314381492e-06
9.46710969509e-07
7.39985333741e-07
5.69208959863e-07
4.07029366383e-07
2.38468990032e-07
8.98491714062e-08
2.89558853292e-08
3.65700251407e-08
2.78729832825e-07
2.76994502146e-06
6.5105795377e-06
9.51869940513e-06
1.16247837221e-05
1.29798388786e-05
1.37780366333e-05
1.41919846907e-05
1.83205163447e-06
1.813220396e-06
1.52917177455e-06
1.2124467935e-06
9.536980183e-07
7.57482956791e-07
5.9673531756e-07
4.4073666868e-07
2.6986074665e-07
1.06225666557e-07
3.13498070718e-08
2.42765076849e-08
8.76871665692e-08
1.52613085034e-06
5.30916729838e-06
8.6477772608e-06
1.10652372754e-05
1.26448763913e-05
1.35859892707e-05
1.40817347004e-05
1.83078239601e-06
1.81251346541e-06
1.52623882161e-06
1.21098766605e-06
9.59955201856e-07
7.73722143829e-07
6.2086978846e-07
4.68158603358e-07
2.93961753971e-07
1.19863622545e-07
3.39974583985e-08
1.91751533924e-08
4.59398433223e-08
6.47127485525e-07
3.9624292494e-06
7.5537139583e-06
1.03606524775e-05
1.22326522504e-05
1.33524455707e-05
1.39462139798e-05
1.83606043627e-06
1.81725489617e-06
1.52952244598e-06
1.21633427798e-06
9.72251866814e-07
7.93104058952e-07
6.44208332102e-07
4.91495382207e-07
3.13428538275e-07
1.33266651613e-07
3.7978372753e-08
1.82668456347e-08
2.96671535152e-08
2.27337870608e-07
2.53300675404e-06
6.21605080397e-06
9.47351198588e-06
1.1718892575e-05
1.30663613802e-05
1.37818633716e-05
1.85285718736e-06
1.83031500818e-06
1.54412952769e-06
1.23656274777e-06
9.97176533557e-07
8.18682115289e-07
6.68246345619e-07
5.12881181369e-07
3.32220748681e-07
1.50066179394e-07
4.53735228893e-08
1.88558477169e-08
1.97873163254e-08
7.8447587622e-08
1.3244983657e-06
4.70116128712e-06
8.37858030245e-06
1.10781944039e-05
1.27143267471e-05
1.35837272693e-05
1.88040726178e-06
1.85952281843e-06
1.58338072465e-06
1.28202025428e-06
1.03780127522e-06
8.49676477576e-07
6.91922876564e-07
5.32587479155e-07
3.53411502122e-07
1.75233302865e-07
5.72471480398e-08
2.06984336104e-08
1.64677080319e-08
3.70523816224e-08
5.66937042565e-07
3.18676130902e-06
7.08439047396e-06
1.02906088971e-05
1.22820926539e-05
1.33452017598e-05
1.94683769095e-06
1.94248152931e-06
1.67635066919e-06
1.35933386594e-06
1.08819708692e-06
8.79831772728e-07
7.11248314451e-07
5.49943489381e-07
3.81125618348e-07
2.09202753802e-07
7.43911089538e-08
2.37546573021e-08
1.66371879831e-08
2.75037067246e-08
1.76516041589e-07
1.84646245304e-06
5.62866078825e-06
9.34201178682e-06
1.17551448581e-05
1.30578872179e-05
2.10085000663e-06
2.11319168161e-06
1.81386127967e-06
1.44203661083e-06
1.13063382738e-06
9.00972346635e-07
7.23777117402e-07
5.67327615182e-07
4.12852865497e-07
2.49507539443e-07
9.75226593125e-08
2.79876608057e-08
1.71233192696e-08
1.92485966309e-08
5.44360335802e-08
8.34008865075e-07
4.11441943968e-06
8.22837921471e-06
1.11187145641e-05
1.27116506242e-05
2.26620761867e-06
2.26673647238e-06
1.90691951091e-06
1.48880874135e-06
1.15487212654e-06
9.1324152056e-07
7.32780322875e-07
5.84429274891e-07
4.45419521815e-07
2.9222394608e-07
1.25591991218e-07
3.33516111972e-08
1.7523367092e-08
1.89820901105e-08
3.45938362648e-08
2.31422043881e-07
2.67749483233e-06
6.98835774941e-06
1.03687321726e-05
1.22977128298e-05
2.27909013023e-06
2.26705412191e-06
1.91923084389e-06
1.50790454012e-06
1.16929946026e-06
9.20049936242e-07
7.38614590393e-07
5.99178030794e-07
4.75143214921e-07
3.3288046846e-07
1.55881669813e-07
3.98663611254e-08
1.77627487889e-08
1.83665150251e-08
2.55456474274e-08
8.0549592711e-08
1.35635318341e-06
5.68039046563e-06
9.50917038095e-06
1.18087754186e-05
2.26647999342e-06
2.26641345594e-06
1.9294691221e-06
1.52496489801e-06
1.18328720635e-06
9.26766449391e-07
7.42913468385e-07
6.10129524862e-07
4.99124544618e-07
3.67333980893e-07
1.83664370373e-07
4.68056658092e-08
1.80832440163e-08
1.75627870348e-08
2.3101014753e-08
5.22353796696e-08
4.54943757724e-07
4.33233765232e-06
8.55031900873e-06
1.12386189505e-05
2.27437429769e-06
2.2719269048e-06
1.93744857751e-06
1.53753196566e-06
1.19414789439e-06
9.33085613839e-07
7.47221060964e-07
6.1930081465e-07
5.19458752726e-07
3.95797282254e-07
2.06435437452e-07
5.30924766047e-08
1.85193293841e-08
1.69238784925e-08
2.0905527781e-08
3.34358435333e-08
1.65647487894e-07
2.94483870234e-06
7.49744790587e-06
1.05802347617e-05
2.27655133413e-06
2.27843008239e-06
1.94513790227e-06
1.54534925367e-06
1.20015878381e-06
9.372571575e-07
7.5154160352e-07
6.29179940827e-07
5.38880144173e-07
4.19127767925e-07
2.24597497488e-07
5.91921500232e-08
1.91217824335e-08
1.66391508141e-08
1.93546098026e-08
2.68218867982e-08
9.38477917633e-08
1.71096410406e-06
6.34692527315e-06
9.82281906151e-06
2.28019523346e-06
2.28702790696e-06
1.95426816416e-06
1.55024395307e-06
1.20241233603e-06
9.3957893637e-07
7.56886990695e-07
6.41710328906e-07
5.57867374443e-07
4.37613929305e-07
2.39096380564e-07
6.54777193487e-08
2.00691119457e-08
1.6710903383e-08
1.85583826205e-08
2.28381151365e-08
6.23141301452e-08
8.61776004698e-07
5.11142232883e-06
8.95553642855e-06
2.27728420216e-06
2.29808334113e-06
1.96521424647e-06
1.55425229998e-06
1.20376721493e-06
9.42232969352e-07
7.64546405548e-07
6.56705017289e-07
5.75327469786e-07
4.51598185894e-07
2.49854825021e-07
7.14310997644e-08
2.12821795202e-08
1.69979921375e-08
1.83476595081e-08
2.08785391187e-08
4.17113072342e-08
3.93450646808e-07
3.86358444219e-06
7.98092302351e-06
2.27894685696e-06
2.30849713789e-06
1.97385808168e-06
1.55785107666e-06
1.20587402781e-06
9.46404292814e-07
7.74490756196e-07
6.7237228036e-07
5.89863652958e-07
4.60514385263e-07
2.55569457119e-07
7.56551678897e-08
2.23028940236e-08
1.73019952899e-08
1.85466430836e-08
2.02157283948e-08
2.69362264283e-08
1.69564172737e-07
2.67200958603e-06
6.90657580037e-06
2.28219083104e-06
2.31415684992e-06
1.97669654844e-06
1.55797916359e-06
1.20641305127e-06
9.50649142691e-07
7.8522705205e-07
6.86726301913e-07
6.00470766639e-07
4.63174978949e-07
2.55002543689e-07
7.71202246811e-08
2.27465820977e-08
1.74997994601e-08
1.88281099717e-08
2.01421257575e-08
2.30821757009e-08
7.98351087081e-08
1.61402790668e-06
5.74840943068e-06
2.29482157948e-06
2.31971468581e-06
1.9766166333e-06
1.55418422003e-06
1.20407625565e-06
9.53771091349e-07
7.95328794254e-07
6.98604296126e-07
6.06333610374e-07
4.5838354233e-07
2.48040317819e-07
7.5934297074e-08
2.2584731453e-08
1.75735178688e-08
1.89883940421e-08
2.02401410615e-08
2.18646391465e-08
4.9853240931e-08
8.23206001273e-07
4.566520366e-06
2.29814445744e-06
2.31805733297e-06
1.96922483171e-06
1.54458264584e-06
1.19861868197e-06
9.55976054154e-07
8.04379279212e-07
7.07593086201e-07
6.06344306479e-07
4.45910785129e-07
2.36462702253e-07
7.33911470831e-08
2.22690723515e-08
1.76215500358e-08
1.90082799923e-08
2.02230494395e-08
2.12038317971e-08
3.62513140733e-08
3.63521302656e-07
3.43002011359e-06
2.2960952394e-06
2.30439595855e-06
1.94871543039e-06
1.52840424044e-06
1.19220729922e-06
9.59212920334e-07
8.13058911322e-07
7.13484602075e-07
5.99248514987e-07
4.27124951871e-07
2.23386386929e-07
7.13032056232e-08
2.24699027402e-08
1.77264103876e-08
1.89459852451e-08
2.00492007845e-08
2.06638669273e-08
2.44541891042e-08
1.53513609465e-07
2.36839037663e-06
2.2732661376e-06
2.26927578148e-06
1.91531352351e-06
1.51221752443e-06
1.19178732401e-06
9.67379764556e-07
8.23051033181e-07
7.1539760894e-07
5.84180979056e-07
4.05003131541e-07
2.11706195197e-07
7.14550466454e-08
2.37205343494e-08
1.79196226551e-08
1.8863987086e-08
1.98275998939e-08
2.01873790254e-08
2.18590214003e-08
7.33755857432e-08
1.46075884753e-06
2.22181534956e-06
2.2003887878e-06
1.8829628321e-06
1.51561868734e-06
1.20914129837e-06
9.85384115535e-07
8.34958604181e-07
7.10860518345e-07
5.62893892728e-07
3.84846363455e-07
2.0615146363e-07
7.63341962724e-08
2.60860034012e-08
1.82376707793e-08
1.88134849926e-08
1.96554702179e-08
1.98306567726e-08
2.06461638377e-08
4.56090404341e-08
8.06736244364e-07
2.19670433664e-06
2.19549902631e-06
1.92343017627e-06
1.57468790057e-06
1.25711623695e-06
1.01552249689e-06
8.44003001486e-07
6.97614327183e-07
5.43198512891e-07
3.77124514715e-07
2.13248114873e-07
8.65349183715e-08
2.97309725051e-08
1.87703191337e-08
1.88362675575e-08
1.95631303117e-08
1.95612835346e-08
1.99487999228e-08
3.51464390561e-08
3.92223820257e-07
2.27027384986e-06
2.31536568009e-06
2.06205601129e-06
1.69122528809e-06
1.32818168228e-06
1.04798238861e-06
8.46686486847e-07
6.86135718432e-07
5.38057345956e-07
3.88420235313e-07
2.34908506475e-07
1.03534777218e-07
3.52907502644e-08
1.964774412e-08
1.89422824379e-08
1.94608361918e-08
1.91995452268e-08
1.94622889814e-08
2.338509159e-08
1.57340497516e-07
2.40018018497e-06
2.48554897431e-06
2.23436025061e-06
1.82289101979e-06
1.41287839913e-06
1.09072749095e-06
8.59463547685e-07
6.90195899602e-07
5.52399930138e-07
4.18671114186e-07
2.7199879982e-07
1.30009153455e-07
4.38626050939e-08
2.1037967944e-08
1.9103020354e-08
1.92694283692e-08
1.87139786726e-08
1.89472965847e-08
2.16533436266e-08
6.71182438587e-08
2.53024204782e-06
2.64508247886e-06
2.37423020501e-06
1.94824230404e-06
1.51906832249e-06
1.16181840044e-06
8.96920151447e-07
7.13129941283e-07
5.80688161982e-07
4.61083183219e-07
3.22023620047e-07
1.68072533827e-07
5.70007780598e-08
2.31723935404e-08
1.93397260623e-08
1.90498700544e-08
1.82104798317e-08
1.82195065354e-08
2.03643360096e-08
4.60459703471e-08
1.42097142945e-05
1.42084718821e-05
1.4208593106e-05
1.42097501262e-05
1.42116499517e-05
1.42137701831e-05
1.42148236986e-05
1.42115678035e-05
1.41961506294e-05
1.41503379027e-05
1.40334263636e-05
1.37583946315e-05
1.31498468618e-05
1.18890528351e-05
9.52244071775e-06
5.85266566255e-06
2.09705728169e-06
3.48043529781e-07
1.08900088118e-07
4.95309644028e-07
1.42054252833e-05
1.42012534115e-05
1.42001343818e-05
1.42010348685e-05
1.42024947688e-05
1.42016011342e-05
1.41918729982e-05
1.41590302042e-05
1.40729479451e-05
1.3873535162e-05
1.34490858292e-05
1.26117112313e-05
1.10951874113e-05
8.65060919967e-06
5.37775061995e-06
2.23201876759e-06
5.34286531242e-07
1.40073744455e-07
2.55850399481e-07
9.84008814516e-07
1.42520192089e-05
1.42441055118e-05
1.42404208855e-05
1.4238697207e-05
1.42348916361e-05
1.42209320511e-05
1.41803217737e-05
1.40805017792e-05
1.38610340449e-05
1.34185679247e-05
1.25954826374e-05
1.11921649343e-05
9.04310006547e-06
6.20633733593e-06
3.23257569044e-06
1.10822986221e-06
2.74699867282e-07
1.72696471636e-07
5.15096952479e-07
1.43711275568e-06
1.43022786256e-05
1.42900250376e-05
1.4281625441e-05
1.42730955952e-05
1.42562119193e-05
1.42149581714e-05
1.41191518164e-05
1.39151549081e-05
1.35152107558e-05
1.27911226509e-05
1.15853401805e-05
9.76101359328e-06
7.31311690643e-06
4.53093978791e-06
2.08093311415e-06
6.52399700155e-07
2.11218223622e-07
2.83974194077e-07
8.5146911273e-07
1.80737186486e-06
1.43542835616e-05
1.43381175947e-05
1.43228886318e-05
1.43025263022e-05
1.42632192083e-05
1.41790565423e-05
1.40049453845e-05
1.36685158531e-05
1.30653076768e-05
1.20657842833e-05
1.05469058328e-05
8.46047454029e-06
5.93685955582e-06
3.38065162235e-06
1.41373311804e-06
4.40443746273e-07
2.23056721941e-07
4.68991255439e-07
1.19278313829e-06
2.07563485606e-06
1.4399655219e-05
1.43806688919e-05
1.43564931684e-05
1.43187876575e-05
1.42472543908e-05
1.41054447223e-05
1.38346831462e-05
1.33497251787e-05
1.2542106404e-05
1.12994942813e-05
9.54902985901e-06
7.32600389151e-06
4.85203428532e-06
2.56972807458e-06
1.00407458434e-06
3.41820186513e-07
2.88943172605e-07
7.0726843507e-07
1.48340041281e-06
2.25737402929e-06
1.44347018799e-05
1.44141465773e-05
1.43787389147e-05
1.43178952864e-05
1.42046149569e-05
1.39925999232e-05
1.36127645301e-05
1.2974111126e-05
1.19750721539e-05
1.05312608865e-05
8.62200210761e-06
6.34952516285e-06
3.98963967016e-06
1.98176106429e-06
7.44726585195e-07
3.08816011079e-07
4.05040436991e-07
9.61835253487e-07
1.70660995059e-06
2.37680986222e-06
1.44573400379e-05
1.44362536944e-05
1.43870835691e-05
1.42972724701e-05
1.4133588621e-05
1.38416250378e-05
1.33459673116e-05
1.25565636872e-05
1.13863641543e-05
9.78312139559e-06
7.77335769242e-06
5.50888012091e-06
3.29441915025e-06
1.54647969561e-06
5.81435238053e-07
3.23041377654e-07
5.637148244e-07
1.19925005158e-06
1.87033483052e-06
2.45304304707e-06
1.44663664127e-05
1.44453715491e-05
1.43797245069e-05
1.42553762399e-05
1.40339074398e-05
1.36551911353e-05
1.30416804542e-05
1.21096799027e-05
1.07910744001e-05
9.06571853881e-06
6.99994550416e-06
4.78087967581e-06
2.72657279469e-06
1.22131564388e-06
4.84818812536e-07
3.77483268295e-07
7.49199526946e-07
1.40198116059e-06
1.98843951324e-06
2.49933255416e-06
1.44608014798e-05
1.44400725439e-05
1.43551889766e-05
1.41912606783e-05
1.39061228027e-05
1.34365816986e-05
1.27067567821e-05
1.16432048851e-05
1.01986822534e-05
8.38287059624e-06
6.29455853369e-06
4.14574932147e-06
2.25866574344e-06
9.79780384476e-07
4.38180772116e-07
4.68063032011e-07
9.42291908906e-07
1.56712443839e-06
2.07287336308e-06
2.5247433356e-06
1.44395970124e-05
1.44189962662e-05
1.43122432281e-05
1.41044173429e-05
1.3751278137e-05
1.3189190012e-05
1.23470923895e-05
1.11643109739e-05
9.61474353274e-06
7.73473539099e-06
5.64925520866e-06
3.5881003867e-06
1.8721486317e-06
8.04531300723e-07
4.31860221438e-07
5.88992150793e-07
1.12698663757e-06
1.69926062251e-06
2.13259917905e-06
2.53553163049e-06
1.44016121484e-05
1.43809280981e-05
1.4249972007e-05
1.39947755822e-05
1.35707851122e-05
1.2916335289e-05
1.19676354419e-05
1.06781961097e-05
9.04233983019e-06
7.11982268625e-06
5.05691826208e-06
3.0966839507e-06
1.55452164938e-06
6.83468728483e-07
4.60151381549e-07
7.31452720534e-07
1.29398407226e-06
1.80475853899e-06
2.17422530818e-06
2.53607792117e-06
1.43457903616e-05
1.43250381181e-05
1.41679957542e-05
1.38628407404e-05
1.33664769989e-05
1.26213199455e-05
1.15726452649e-05
1.01887620021e-05
8.48320974448e-06
6.53624333179e-06
4.51194413875e-06
2.6637836646e-06
1.29716783102e-06
6.07695803304e-07
5.19048415801e-07
8.84958226794e-07
1.4402871202e-06
1.88929694584e-06
2.20262030338e-06
2.52951102871e-06
1.42714045861e-05
1.42511623513e-05
1.40667154649e-05
1.3709865914e-05
1.31407229535e-05
1.2307571115e-05
1.11659968487e-05
9.69918319216e-06
7.93852737374e-06
5.98241990914e-06
4.0104490892e-06
2.2844574809e-06
1.09368316945e-06
5.70487777806e-07
6.04459254304e-07
1.03975463172e-06
1.5668190934e-06
1.95738414811e-06
2.22134753528e-06
2.51810650085e-06
1.41781224706e-05
1.4159916104e-05
1.39474028854e-05
1.35378892008e-05
1.28964299387e-05
1.19786740405e-05
1.07513328384e-05
9.21221917595e-06
7.40930236093e-06
5.45737070377e-06
3.55013623396e-06
1.95565141065e-06
9.38664241955e-07
5.66695456926e-07
7.11216927723e-07
1.18865805172e-06
1.67610094501e-06
2.01252950877e-06
2.2329885263e-06
2.50352759212e-06
1.40657445871e-05
1.40524842099e-05
1.38119929439e-05
1.33494994747e-05
1.26367947541e-05
1.16381616823e-05
1.03319500067e-05
8.73021592485e-06
6.89643363648e-06
4.96066363359e-06
3.12990892342e-06
1.67524599728e-06
8.27019138621e-07
5.9222693037e-07
8.33106199362e-07
1.32762032816e-06
1.77087349868e-06
2.05746753174e-06
2.23938221749e-06
2.48695855171e-06
1.39336130705e-05
1.39300729882e-05
1.36625611734e-05
1.31473179859e-05
1.23648035791e-05
1.12890753503e-05
9.91046461149e-06
8.25488239898e-06
6.40054027507e-06
4.4921724125e-06
2.74933830467e-06
1.44119358605e-06
7.53798846732e-07
6.43486305423e-07
9.63649070654e-07
1.45522891666e-06
1.85357895158e-06
2.09432484813e-06
2.24180081352e-06
2.46917113996e-06
1.37799211256e-05
1.37931837511e-05
1.35006306976e-05
1.29333491753e-05
1.20826464657e-05
1.09334756438e-05
9.48844396009e-06
7.78703186314e-06
5.92175149252e-06
4.0517954956e-06
2.40813472431e-06
1.25095748699e-06
7.14382520654e-07
7.16868913005e-07
1.09709348794e-06
1.57175235693e-06
1.92628604829e-06
2.12475407795e-06
2.24109033568e-06
2.45056343564e-06
1.36011736795e-05
1.36409885273e-05
1.33265881554e-05
1.27084768735e-05
1.17913121076e-05
1.05721493415e-05
9.06622466287e-06
7.32648281334e-06
5.45962832696e-06
3.63929391588e-06
2.10578796448e-06
1.10139388368e-06
7.04740490386e-07
8.08481938684e-07
1.229111214e-06
1.67825272217e-06
1.99073780529e-06
2.15004966675e-06
2.23779925718e-06
2.43120855305e-06
1.33920843222e-05
1.34711176037e-05
1.31394866943e-05
1.24723375192e-05
1.14905479157e-05
1.02046582275e-05
8.64303756732e-06
6.87222963461e-06
5.01332960966e-06
3.25436197424e-06
1.84148629104e-06
9.8902961559e-07
7.21533799917e-07
9.14160627599e-07
1.35699168442e-06
1.77599646121e-06
2.04839005494e-06
2.17124207858e-06
2.23230230596e-06
2.41093914288e-06
1.31465586184e-05
1.32800753666e-05
1.29373164565e-05
1.22235814746e-05
1.11791635989e-05
9.82970319716e-06
8.21742908434e-06
6.42289999614e-06
4.58205799856e-06
2.89695010616e-06
1.61428177107e-06
9.10499788978e-07
7.61956364439e-07
1.02971087594e-06
1.47940080378e-06
1.86615954369e-06
2.10042900573e-06
2.18916681421e-06
2.22491149918e-06
2.38947222277e-06
1.28583313631e-05
1.30637769068e-05
1.27174387169e-05
1.19602973441e-05
1.08555125146e-05
9.44569034465e-06
7.78790735207e-06
5.97744834345e-06
4.16571815663e-06
2.56770812902e-06
1.42331429736e-06
8.62862735485e-07
8.23389037439e-07
1.1512362902e-06
1.59592491156e-06
1.94972592847e-06
2.14779064963e-06
2.20451072484e-06
2.21595798518e-06
2.36655194424e-06
1.2521085386e-05
1.28178140665e-05
1.24769038952e-05
1.16804222315e-05
1.05180306023e-05
9.05139569677e-06
7.35369555781e-06
5.53592616327e-06
3.7655592653e-06
2.26826210179e-06
1.26786116409e-06
8.43633851316e-07
9.03038912357e-07
1.27541674715e-06
1.70662469566e-06
2.02748425543e-06
2.19119660672e-06
2.21784185878e-06
2.20583170553e-06
2.34207128655e-06
1.21281215462e-05
1.25375521087e-05
1.22127367424e-05
1.13821702068e-05
1.01657832508e-05
8.64658750385e-06
6.91536711994e-06
5.10003401346e-06
3.38446094809e-06
2.00103732947e-06
1.14712045668e-06
8.50573818869e-07
9.9774552255e-07
1.39966078977e-06
1.81173225444e-06
2.10006484773e-06
2.23120307371e-06
2.22962812932e-06
2.19497738121e-06
2.31613661999e-06
1.16716743956e-05
1.22183297724e-05
1.19223764732e-05
1.106450232e-05
9.79889311416e-06
8.23237656671e-06
6.47508290165e-06
4.67316966994e-06
3.02662590701e-06
1.76858438371e-06
1.05986944296e-06
8.81392124298e-07
1.10404450025e-06
1.52211931501e-06
1.91151213476e-06
2.16798711273e-06
2.26824969196e-06
2.24024839248e-06
2.1838599355e-06
2.28906364518e-06
1.11439818101e-05
1.18562263299e-05
1.16042811135e-05
1.07274907356e-05
9.41865465419e-06
7.81111691724e-06
6.03630646426e-06
4.25992256442e-06
2.69675024392e-06
1.57270277661e-06
1.00424939975e-06
9.33527895615e-07
1.21843913081e-06
1.64159419922e-06
2.00623130676e-06
2.23169902883e-06
2.30269523755e-06
2.24999822769e-06
2.17292036735e-06
2.26132241372e-06
1.05402877768e-05
1.14491428879e-05
1.12584164155e-05
1.03723906645e-05
9.02727936672e-06
7.38592485782e-06
5.60316338617e-06
3.86525771052e-06
2.39902357616e-06
1.41380317145e-06
9.77810051615e-07
1.00408869009e-06
1.33773092261e-06
1.75739094141e-06
2.09616569685e-06
2.29159770691e-06
2.33483466367e-06
2.25909244105e-06
2.16254115513e-06
2.23346773872e-06
9.85718273712e-06
1.09965713924e-05
1.08861439808e-05
1.00013629426e-05
8.62744997378e-06
6.96012330624e-06
5.17980656949e-06
3.49377201208e-06
2.13637801851e-06
1.2907884955e-06
9.77737103018e-07
1.08993217317e-06
1.45925598608e-06
1.86915440804e-06
2.18159439542e-06
2.34802872556e-06
2.36490076501e-06
2.26766601891e-06
2.15302922241e-06
2.206088716e-06
9.09166492647e-06
1.04987648391e-05
1.04897234672e-05
9.61712502028e-06
8.22203175539e-06
6.53697446882e-06
4.77012329783e-06
3.14931713111e-06
1.91022569802e-06
1.20140152624e-06
1.00108029681e-06
1.18781514097e-06
1.58094950214e-06
1.97671280601e-06
2.26277013987e-06
2.40127284412e-06
2.39306014707e-06
2.27577476222e-06
2.1446107649e-06
2.17979110591e-06
8.247614044e-06
9.95666693955e-06
1.00717914218e-05
9.22271186361e-06
7.81407146054e-06
6.11979404251e-06
4.37783359899e-06
2.83499250212e-06
1.72060898866e-06
1.14273911083e-06
1.04485048369e-06
1.29453401313e-06
1.70125706266e-06
2.07994922825e-06
2.33988184838e-06
2.45153446369e-06
2.41941359623e-06
2.28339613011e-06
2.13742331435e-06
2.15519968233e-06
7.32887804277e-06
9.36923807689e-06
9.63425783975e-06
8.82115941053e-06
7.40692252777e-06
5.71226121555e-06
4.00675641594e-06
2.55326580095e-06
1.56649333645e-06
1.11164010584e-06
1.10598196775e-06
1.40702631169e-06
1.81897485082e-06
2.17871820906e-06
2.41303185827e-06
2.49894296002e-06
2.44400562407e-06
2.29043003809e-06
2.1314909159e-06
2.13294947047e-06
6.32582801277e-06
8.72917260082e-06
9.17690546627e-06
8.41511586561e-06
7.00431443708e-06
5.31862415242e-06
3.66089407185e-06
2.30592494123e-06
1.44597271252e-06
1.10483989419e-06
1.18125679424e-06
1.5224481862e-06
1.93310752024e-06
2.27281586916e-06
2.48223910048e-06
2.54356760804e-06
2.4668408135e-06
2.29670050063e-06
2.12667931371e-06
2.11363533861e-06
5.24724227972e-06
8.02685871028e-06
8.69749258526e-06
8.00663185715e-06
6.61019021541e-06
4.94348372211e-06
3.34404715589e-06
2.09374016529e-06
1.35635000337e-06
1.1189703742e-06
1.26730568066e-06
1.63825332665e-06
2.04279390804e-06
2.36199483639e-06
2.54746136021e-06
2.5854363518e-06
2.48789971339e-06
2.30196104793e-06
2.12264313546e-06
2.09770726246e-06
4.14654666341e-06
7.25670661951e-06
8.19273463424e-06
7.59697956677e-06
6.22819282821e-06
4.59108710866e-06
3.05903091101e-06
1.91604260844e-06
1.29422473447e-06
1.15055543385e-06
1.36073734058e-06
1.7522744402e-06
2.14729710755e-06
2.44599909537e-06
2.60861889664e-06
2.62454629508e-06
2.50714841053e-06
2.30591015891e-06
2.1187912058e-06
2.08532523472e-06
3.07302026434e-06
6.41180508103e-06
7.65828654336e-06
7.18654554976e-06
5.86106058291e-06
4.26443247076e-06
2.80687851786e-06
1.77054347514e-06
1.25570390563e-06
1.19609679618e-06
1.45835790829e-06
1.86278285111e-06
2.24602133529e-06
2.52459107513e-06
2.66560401379e-06
2.66085959948e-06
2.52454009076e-06
2.3082218681e-06
2.11429952569e-06
2.0762114274e-06
2.08491952504e-06
5.49137429215e-06
7.09083154028e-06
6.77560456099e-06
5.51032530803e-06
3.96450185494e-06
2.58636300664e-06
1.6535322513e-06
1.2367239665e-06
1.2522392326e-06
1.55738080042e-06
1.96849023401e-06
2.33851039978e-06
2.59755119759e-06
2.71827126497e-06
2.69428777692e-06
2.54001123438e-06
2.30858965901e-06
2.10818891192e-06
2.06955392216e-06
1.26719866923e-06
4.52565882536e-06
6.49147643182e-06
6.36494279751e-06
5.17605089176e-06
3.68988292926e-06
2.39412536571e-06
1.56043820834e-06
1.2333920287e-06
1.31591767571e-06
1.65551680729e-06
2.06846290707e-06
2.42439915764e-06
2.66464726752e-06
2.76641654975e-06
2.72467485534e-06
2.55347178764e-06
2.30674994254e-06
2.09938893601e-06
2.06388833607e-06
6.27713055314e-07
3.56520058021e-06
5.86494917781e-06
)
;

boundaryField
{
    emptyPatch
    {
        type            empty;
    }
    minY
    {
        type            zeroGradient;
    }
    maxY
    {
        type            calculated;
        value           nonuniform List<scalar> 0();
    }
    maxX
    {
        type            compressible::alphatPhaseChangeJayatillekeWallFunction;
        Prt             0.85;
        Cmu             0.09;
        kappa           0.41;
        E               9.8;
        dmdt            uniform 0;
        value           uniform 0;
    }
    water_to_heater
    {
        type            compressible::alphatWallBoilingWallFunction;
        phaseType       vapor;
        relax           constant 1;
        partitioningModel
        {
            type            Lavieville;
            alphaCrit       0.2;
        }
        otherPhase      liquid;
        dmdt            uniform 0;
        dDep            uniform 1e-05;
        qQuenching      uniform 0;
        alphatConv      uniform 0;
        value           nonuniform List<scalar> 
61
(
5.78522812674e-11
1.04304972392e-07
1.04304972392e-07
1.04302973465e-07
1.04302973465e-07
1.04304972392e-07
1.04304972392e-07
7.94785556974e-08
4.65265309432e-08
3.15548470614e-08
3.15548470614e-08
3.34598410142e-08
3.34598410142e-08
4.31137075471e-08
4.31137075471e-08
5.37271550805e-08
5.69270242023e-08
5.39673000611e-08
5.39673000611e-08
5.77113534815e-08
5.77113534815e-08
5.39673000611e-08
5.39673000611e-08
5.73263337803e-08
5.37271550805e-08
5.51507487989e-08
5.51507487989e-08
5.33575946245e-08
5.33575946245e-08
4.57613550657e-08
4.57613550657e-08
3.39688035068e-08
4.2764346752e-08
1.08023282444e-07
1.08023282444e-07
1.54133958697e-07
1.54133958697e-07
1.65636433522e-07
1.65636433522e-07
1.54310256266e-07
1.68995499545e-07
1.56282494713e-07
1.56282494713e-07
1.68609597445e-07
1.68609597445e-07
1.555012056e-07
1.555012056e-07
1.67536352756e-07
1.54310256266e-07
1.6385166337e-07
1.6385166337e-07
1.53000795182e-07
1.53000795182e-07
1.53953819347e-07
1.53953819347e-07
1.0015234562e-07
4.09494617143e-08
2.57611999087e-08
2.57611999087e-08
3.05347478939e-08
3.05347478939e-08
)
;
    }
    procBoundary2to3
    {