/*--------------------------------*- C++ -*----------------------------------*\
| =========                 |                                                 |
| \\      /  F ield         | OpenFOAM: The Open Source CFD Toolbox           |
|  \\    /   O peration     | Version:  2312                                  |
|   \\  /    A nd           | Website:  www.openfoam.com                      |
|    \\/     M anipulation  |                                                 |
\*---------------------------------------------------------------------------*/
FoamFile
{
    version     2.0;
    format      ascii;
    arch        "LSB;label=32;scalar=64";
    class       volScalarField;
    location    "0.805/water";
    object      alpha.gas_0;
}
// * * * * * * * * * * * * * * * * * * * * * * * * * * * * * * * * * * * * * //

dimensions      [0 0 0 0 0 0 0];

internalField   nonuniform List<scalar> 
1504
(
0.716348237161
0.652385939067
0.582543567567
0.501726428432
0.416049632302
0.333787339447
0.289594310698
0.287562425086
0.288319625757
0.288882490879
0.289249082629
0.28959732704
0.290179560487
0.326004461687
0.352908505476
0.359010895389
0.352541490734
0.295536193571
0.165009050136
0.0411149145702
0.721449322572
0.631880023515
0.548856930492
0.452906809645
0.365184136809
0.299188674544
0.286678196072
0.287062100376
0.28804024789
0.288958271709
0.289619191948
0.290042387785
0.297340941867
0.322325475485
0.337646926856
0.356077275423
0.366941393144
0.32244189437
0.193072429953
0.0542042818463
0.718272588729
0.598351783924
0.500533997774
0.396284629202
0.318770411364
0.287194586901
0.28621717275
0.286759077966
0.289164576737
0.295267991884
0.295163229206
0.290936595286
0.295848069313
0.304416607489
0.319167750771
0.357011000515
0.383110151654
0.345248131946
0.220930750832
0.0699275238885
0.722486854756
0.542055019334
0.431035795846
0.333927591777
0.290838683763
0.284735383544
0.285850759051
0.2954393806
0.305047664845
0.305374810271
0.296233067545
0.282519914902
0.279670775433
0.28295241084
0.314884735789
0.364504336515
0.393293207128
0.362846665511
0.249089157931
0.0890059792051
0.718272588729
0.452871288629
0.344662466522
0.290009724005
0.283607709977
0.28419206816
0.29358970588
0.307793725046
0.308035430144
0.301421802855
0.278810299641
0.258515185579
0.258283256296
0.276315618348
0.321211675134
0.373064880018
0.396671900222
0.37724323443
0.277478501441
0.112924033095
0.719333757453
0.345384352805
0.291093359502
0.283356728729
0.282896310144
0.283291167384
0.298156924751
0.3052201658
0.298188709505
0.274194578969
0.246841297343
0.238916041282
0.247448584685
0.278218365468
0.331035496361
0.377470445743
0.397798038747
0.39298607494
0.306664801206
0.145608397325
0.638095066023
0.28471407614
0.283356728729
0.282896310144
0.282428955536
0.281955811393
0.291821851005
0.285639260404
0.264914025295
0.240997489736
0.229565796492
0.23088934568
0.243378930167
0.278399765193
0.332313279316
0.377369312226
0.400135664481
0.405182694647
0.338336079614
0.192192964349
0.471639830621
0.284999609232
0.292157193788
0.289896578535
0.286069914926
0.281030962819
0.268258774027
0.250781966012
0.235331577803
0.226950133247
0.224573840291
0.226225033854
0.236684189013
0.268269305805
0.321753708896
0.371811601402
0.400934710654
0.404875572186
0.382804893921
0.253515758427
0.441288780334
0.383703195412
0.376470000441
0.346730424303
0.310218741554
0.281058822087
0.252260106361
0.233605614409
0.224263696123
0.221149832614
0.220468437024
0.220729219441
0.225361368787
0.242099883422
0.288040013936
0.350728851156
0.395928553668
0.405419864854
0.404875572186
0.314790819931
0.564085464716
0.629144468366
0.566291059498
0.505692586995
0.417815072845
0.331528275611
0.268599655968
0.235913494606
0.222388225473
0.216601235242
0.215269386596
0.215110451041
0.21664143472
0.219843086948
0.241887080192
0.306268000281
0.377067300816
0.404875572186
0.405613129417
0.362328631394
0.776720130537
0.794933071977
0.746667103188
0.708611752083
0.646783046874
0.547454190474
0.408168323599
0.289110204377
0.234567251855
0.216968326709
0.211692423739
0.211181469479
0.212575698165
0.213352257008
0.21536765594
0.249651054848
0.337738524379
0.404578182235
0.404875572186
0.403170465529
0.86442366208
0.831805630015
0.811908013815
0.799796491702
0.780428458603
0.737013678961
0.633817668764
0.457685544762
0.304537433193
0.232631977523
0.211787271195
0.210314111807
0.210497709075
0.21140808538
0.210758616717
0.216034453192
0.28424106133
0.387429475511
0.405592931603
0.404875572186
0.864185027879
0.837044853789
0.82627905239
0.818618888871
0.807720092644
0.782315888296
0.723399667555
0.599722218225
0.423803916663
0.283763027035
0.216882681616
0.210170136118
0.210314111807
0.210409520513
0.210444686345
0.210510157957
0.235930224367
0.346704081002
0.404875572186
0.405442214053
0.866018323929
0.83965073752
0.829814172903
0.821549014354
0.81083335963
0.786812201138
0.735331274445
0.640810159233
0.497462571156
0.346933374041
0.234427845463
0.210287756533
0.210142612865
0.210314111807
0.210315097432
0.21042182675
0.211142704023
0.29781368816
0.40514798798
0.404875572186
0.864185027879
0.841966659872
0.8300156541
0.820242190276
0.808836230146
0.784281364422
0.733680237727
0.644427826917
0.517093881462
0.377050771747
0.255414508677
0.210030932927
0.210287756533
0.210000850955
0.210314111807
0.210143252822
0.21042182675
0.262939554756
0.396675252687
0.40535200627
0.865548369886
0.843886162598
0.826805520412
0.812365809893
0.798274034749
0.771147367465
0.7204974859
0.636051622273
0.515492347319
0.380127972886
0.260570754794
0.210122410503
0.209953957473
0.210287756533
0.209852439529
0.210314111807
0.209904866992
0.246993888615
0.382425171735
0.404875572186
0.864185027879
0.843452084696
0.816177687531
0.794063999441
0.775131813476
0.743158420705
0.689265337701
0.606432729132
0.494837185561
0.367350085245
0.254188685554
0.210057336675
0.210073118126
0.209852789025
0.210287756533
0.209668726516
0.210314111807
0.243111474079
0.371783763885
0.405181361355
0.864761049142
0.836929502745
0.795820661005
0.764908535347
0.740187323624
0.702140058722
0.641906515539
0.556040100634
0.447892847581
0.328623560303
0.233254408251
0.210025648529
0.209728986967
0.210126407848
0.209746831635
0.210287756533
0.209635734394
0.246332737757
0.367370634857
0.404875572186
0.864185027879
0.818574989797
0.763361286836
0.725078625839
0.694748193847
0.64874229471
0.580201160317
0.489092491855
0.381204412927
0.273175693156
0.213098376972
0.209805585335
0.210025648529
0.209643377457
0.210115677331
0.209656305372
0.210287756533
0.26040867636
0.365921016837
0.404956642914
0.858468552055
0.786402424073
0.71792445169
0.67498840189
0.635993360683
0.579276858802
0.501584133984
0.406090998326
0.302942523043
0.22429799868
0.209889927189
0.210025648529
0.209390239631
0.210025648529
0.209529076332
0.210045245219
0.220504437904
0.280136554179
0.363490228025
0.404805443953
0.841079884351
0.744868033198
0.666022060269
0.613235391135
0.559529590473
0.489398320192
0.404004983219
0.310567158774
0.232642112178
0.209808540589
0.209848064658
0.209569506105
0.210025648529
0.20920311405
0.210025648529
0.21253611903
0.241968528437
0.293455901261
0.359242049261
0.401759879725
0.822829706745
0.702847313903
0.610564519455
0.537313396991
0.462480952022
0.379507806918
0.294983524138
0.229164602572
0.209794773035
0.209848064658
0.209343358008
0.209870014405
0.209289309304
0.210025648529
0.209255481088
0.227081448371
0.257639413438
0.296661586044
0.352845192497
0.396804479748
0.810006905472
0.673860750646
0.54975755203
0.445449854176
0.349633122102
0.267167576614
0.218382564173
0.209703835708
0.209848064658
0.209124086814
0.209848064658
0.209015737602
0.209848064658
0.209239071646
0.216160790472
0.241318594018
0.26129671071
0.293671860821
0.343756086806
0.389359152692
0.81945215037
0.633850057824
0.474215062151
0.341438441053
0.248491435275
0.211848416324
0.209601486357
0.209776098254
0.208833414976
0.209848064658
0.208517131407
0.209848064658
0.208863411177
0.209848064658
0.229342329221
0.246207270637
0.257310153154
0.281283349328
0.328489407305
0.37942772466
0.848787368285
0.562440212112
0.380449563309
0.247336764151
0.210610140409
0.209515357092
0.209776098254
0.208344218844
0.209776098254
0.208033768267
0.209848064658
0.208417136233
0.209848064658
0.213633268215
0.238361082374
0.243913338561
0.244361924511
0.258465558402
0.303836054199
0.363778374505
0.850713557808
0.45618650341
0.282562941651
0.210092718498
0.209438532982
0.209776098254
0.207848522691
0.209776098254
0.207192701572
0.209776098254
0.207846568766
0.209848064658
0.20847998573
0.223527473451
0.238437169877
0.236645021644
0.228652848704
0.234217415459
0.270894080022
0.338521209411
0.835947041822
0.339842518645
0.217357823785
0.209168378744
0.209776098254
0.207212252468
0.209776098254
0.206197007252
0.209776098254
0.206841253924
0.209776098254
0.207954197471
0.209848064658
0.231876796455
0.237507772485
0.230081726188
0.220558563417
0.218217018923
0.237472573362
0.300270553256
0.734621905427
0.264529281948
0.209502349752
0.209776098254
0.206795427935
0.209776098254
0.205615107983
0.209599220033
0.206019149156
0.209776098254
0.207294988891
0.209776098254
0.220048360871
0.232897973738
0.233193577394
0.226478536737
0.21892370113
0.214652177335
0.216374323537
0.255079251269
0.588028930464
0.281227405477
0.219901679852
0.208113426433
0.209776098254
0.205615107983
0.209599220033
0.205632902803
0.209599220033
0.207257708957
0.209776098254
0.217894775404
0.228460034611
0.230306571755
0.228293285766
0.224725676337
0.218786240075
0.214658208463
0.214589392773
0.220437945937
0.559613299564
0.404975428861
0.337298724596
0.296269005471
0.272716088347
0.264689718709
0.256906239311
0.246769067513
0.233766752246
0.227309221493
0.225154127521
0.22432599062
0.223982948533
0.222946399826
0.22368115175
0.223223128735
0.218865608724
0.21462664223
0.214658208463
0.214540738852
0.631507698566
0.651310107985
0.607362030716
0.555880538686
0.518287267749
0.493649063271
0.456379773565
0.389592223062
0.316628718723
0.264938317228
0.236247154613
0.22188421644
0.216983778833
0.216590475503
0.21942593399
0.220991586049
0.219110539779
0.214817065474
0.214474365096
0.214658208463
0.772357147074
0.803560161265
0.778484630789
0.75070545979
0.725857254288
0.703100557551
0.662691763328
0.581610545584
0.458489779822
0.340942202581
0.262031147909
0.223409617956
0.214690717197
0.214657910434
0.21554139728
0.218028845767
0.218862840947
0.216346663833
0.214658208463
0.214304138112
0.842241474297
0.828662729221
0.810899006991
0.797625807907
0.784739227529
0.768987465088
0.741304052767
0.684749173432
0.578283233894
0.44195434592
0.320627575271
0.236413843896
0.214628089884
0.214658208463
0.21463475636
0.214986443623
0.216988113664
0.216564010683
0.214502179589
0.214658208463
0.845217876843
0.828324983892
0.814029176183
0.804323796336
0.796042652975
0.783991899225
0.760680549745
0.713542317099
0.62649929068
0.503645841716
0.375160498137
0.262725600418
0.214658208463
0.214499900976
0.214658208463
0.214561759908
0.214684720753
0.215345456141
0.214658208463
0.214349720997
0.845269242446
0.824880411928
0.812991396884
0.805393749894
0.799530328325
0.789845053592
0.768009395435
0.722623316507
0.642414014928
0.529015780731
0.402573631826
0.28389246053
0.215774638663
0.214658208463
0.214330236332
0.214658208463
0.214470143013
0.214661644955
0.214552714233
0.214658208463
0.839351152839
0.818915638972
0.80797242987
0.804027597613
0.800161227592
0.792276742658
0.771082745542
0.725520927724
0.647265488201
0.538529958525
0.414159369097
0.293857327135
0.219110363066
0.214437000095
0.214658208463
0.214164146029
0.214658208463
0.214343457767
0.214658208463
0.214395882573
0.839169711134
0.81248124558
0.79902225651
0.798451561962
0.798003743895
0.791699975899
0.770772493216
0.724547078192
0.646390616522
0.539253846205
0.416342106017
0.295951567165
0.220433160618
0.214658208463
0.214186641155
0.214658208463
0.214033103088
0.214658208463
0.214201881648
0.214658208463
0.838911376314
0.800645533597
0.784380376115
0.786248473767
0.789488244299
0.785554733791
0.765240533682
1e-15
1e-15
1.02299826456e-15
1.02256659113e-15
1.02310830629e-15
1.02256659113e-15
1.02259911561e-15
1.01641469567e-15
1.01328715003e-15
1.01282688319e-15
1.01324433306e-15
1.01449311889e-15
1.01711415662e-15
1.02176636711e-15
1.02980050892e-15
1.03052114298e-15
1.77695696454e-15
0.0023213418214
6.86188064561e-06
1e-15
1e-15
1e-15
1.02256659113e-15
1.02322485567e-15
1.02256659113e-15
1.02275992255e-15
1.02107176496e-15
1.01472685614e-15
1.0126502165e-15
1.0122651526e-15
1.0126242017e-15
1.01375139271e-15
1.0161702525e-15
1.02042403104e-15
1.02905100402e-15
1.03088616442e-15
1.79620818433e-15
0.00366749340236
1.58983049548e-05
1e-15
1e-15
1e-15
1.01673130938e-15
1.02256659113e-15
1.02289801463e-15
1.02256659113e-15
1.01700913003e-15
1.01241097099e-15
1.01107891044e-15
1.01081656847e-15
1.01115509955e-15
1.01218171934e-15
1.01435206865e-15
1.01832188963e-15
1.02771452114e-15
1.03209076195e-15
1.79847119098e-15
0.00569309086972
3.55120385174e-05
1e-15
1e-15
1e-15
1.00177095871e-15
1.02275665801e-15
1.02256659113e-15
1.01952139829e-15
1.0124391081e-15
1.00980808567e-15
1.00897041884e-15
1.0088530167e-15
1.00918359453e-15
1.0100750343e-15
1.01189566129e-15
1.01544194539e-15
1.02654675704e-15
1.03632042302e-15
1.80003204744e-15
0.00877162540938
8.19075840803e-05
1e-15
1e-15
1e-15
1.00195321339e-15
1.02094688954e-15
1.01980774544e-15
1.01282353081e-15
1.00842402626e-15
1.00700365613e-15
1.00653638529e-15
1.00654049609e-15
1.00684429195e-15
1.00757496904e-15
1.00908595691e-15
1.01209220001e-15
1.02566071924e-15
1.04626054683e-15
1.80104735467e-15
0.0137915370123
0.000208329483748
1.12628226979e-07
1e-15
1e-15
1e-15
1.00910479561e-15
1.01157374873e-15
1.00730580791e-15
1.00496307436e-15
1.00413344679e-15
1.00390176768e-15
1.00398094724e-15
1.00427477834e-15
1.00488001968e-15
1.00614366862e-15
1.00861692125e-15
1.02528269958e-15
1.05848558274e-15
1.80142552004e-15
0.0231567224942
0.000588519740591
2.05011654178e-06
1e-15
1e-15
1e-15
1.00336491498e-15
1.0052252099e-15
1.0030720918e-15
1.00185692019e-15
1.00141424431e-15
1.00133850103e-15
1.00145412308e-15
1.00170756813e-15
1.00216433697e-15
1.0031173067e-15
1.00517529674e-15
1.02547984923e-15
1.07024428566e-15
1.80163633256e-15
0.042288688395
0.00177401482852
1.58820540958e-05
1.93870549221e-09
1e-15
1e-15
1e-15
1.0007582915e-15
1.00041390199e-15
1.00012811676e-15
1.00007307134e-15
1.00007545247e-15
1.0001057871e-15
1.00017326937e-15
1.00032819104e-15
1.00073782945e-15
1.0020198985e-15
1.02630735647e-15
1.08347110097e-15
1.80186242283e-15
0.0797586901273
0.00561047296457
9.82843209722e-05
1.64619156683e-07
1e-15
1e-15
1e-15
1e-15
1e-15
1e-15
1e-15
1e-15
1e-15
1e-15
1e-15
1e-15
1.00020434955e-15
1.0274814892e-15
1.09834545317e-15
1.8020814458e-15
0.139940250226
0.0173563801374
0.000521177743718
2.49757909699e-06
1e-15
1e-15
1e-15
1e-15
1e-15
1e-15
1e-15
1e-15
1e-15
1e-15
1e-15
1e-15
1e-15
1.0290669215e-15
1.1117926467e-15
1.80235747871e-15
0.209305249467
0.0448220684936
0.00230700569579
2.45855100895e-05
6.3179885482e-10
1e-15
1e-15
1e-15
1e-15
1e-15
1e-15
1e-15
1e-15
1e-15
1e-15
1e-15
1e-15
1.03152635595e-15
1.12256541134e-15
1.80263351161e-15
0.267753689216
0.0876686499516
0.00819949123353
0.000168651462709
1.0081316142e-07
1e-15
1e-15
1e-15
1e-15
1e-15
1e-15
1e-15
1e-15
1e-15
1e-15
1e-15
1e-15
1.03533157856e-15
1.13181207501e-15
1.80290954452e-15
0.307290242494
0.13405560345
0.0215764094015
0.00083661686653
2.61325346632e-06
1e-15
1e-15
1e-15
1e-15
1e-15
1e-15
1e-15
1e-15
1e-15
1e-15
1e-15
1e-15
1.04056511601e-15
1.14042392318e-15
1.8077815443e-15
0.333382313658
0.17483532395
0.041926349947
0.00291477006108
2.79852691373e-05
1.06665726773e-15
1e-15
1e-15
1e-15
1e-15
1e-15
1e-15
1e-15
1e-15
1e-15
1e-15
1.00530894538e-15
1.04693729886e-15
1.14734146627e-15
1.82058254365e-15
0.352465977846
0.209674877205
0.0663091561241
0.00728619764518
0.000150494979778
1.1408322696e-15
1e-15
1e-15
1e-15
1e-15
1e-15
1e-15
1e-15
1e-15
1e-15
1e-15
1.01740202786e-15
1.05420871149e-15
1.15353052916e-15
1.84081471345e-15
0.368354673
0.241047613173
0.0927131831922
0.014396792082
0.000515375744307
5.00520884267e-07
1e-15
1e-15
1e-15
1e-15
1e-15
1e-15
1e-15
1e-15
1.00329034878e-15
1.01397205284e-15
1.02366814249e-15
1.06164454352e-15
1.15917752358e-15
1.86680135494e-15
0.381942867346
0.269532904048
0.119751575116
0.0242748011017
0.00134130656842
5.68768198239e-06
1e-15
1e-15
1e-15
1e-15
1e-15
1.00143919225e-15
1.00704082382e-15
1.01440885741e-15
1.02102880862e-15
1.02454133099e-15
1.02844870473e-15
1.06837095862e-15
1.15990679302e-15
1.89664931722e-15
0.392119941229
0.293413816217
0.145714614943
0.0366663024496
0.00292856144419
2.97390019831e-05
1.05267693666e-15
1e-15
1e-15
1.00019794674e-15
1.01351565264e-15
1.0187202824e-15
1.02164639225e-15
1.02475175292e-15
1.02798507362e-15
1.03076841581e-15
1.03364205941e-15
1.07455207331e-15
1.15713089479e-15
1.92783509335e-15
0.397980063197
0.311256704319
0.169325739403
0.0511856918805
0.005678924034
0.000110215934924
1e-15
1e-15
1e-15
1.00172359795e-15
1.01810564054e-15
1.02378764752e-15
1.0260792964e-15
1.02882597918e-15
1.03243607155e-15
1.03618475291e-15
1.04055013299e-15
1.08203780714e-15
1.14846613365e-15
1.95643211055e-15
0.400444785043
0.324852974907
0.191805923579
0.06817848259
0.010167360368
0.000339731248499
2.76835642529e-07
1e-15
1e-15
1.00073179402e-15
1.01587779174e-15
1.02429495691e-15
1.02755696728e-15
1.03044826389e-15
1.03447615097e-15
1.03961575876e-15
1.04929046407e-15
1.09356283627e-15
1.13929986353e-15
1.9798734313e-15
0.401854390613
0.338653580535
0.216955523098
0.0895180331455
0.0174779057855
0.000970951775791
5.2855991349e-06
1e-15
1.00001904567e-15
1.00007617812e-15
1.00968344239e-15
1.02228486037e-15
1.02675873765e-15
1.02974290669e-15
1.03402876567e-15
1.04030813616e-15
1.05905976719e-15
1.117730778e-15
1.13583764442e-15
2.00151649357e-15
0.404934982746
0.356097169632
0.247625568309
0.117739010186
0.0296239294618
0.00268072831112
4.53969014171e-05
1e-15
1e-15
1e-15
1.00322107382e-15
1.01211721019e-15
1.02184911426e-15
1.02636079391e-15
1.03096501278e-15
1.03853509574e-15
1.0678091383e-15
1.14136601738e-15
1.13458663226e-15
2.02352861161e-15
0.405760328257
0.373571355061
0.282106106095
0.154563200578
0.0496243655812
0.00689991990098
0.000272207428304
1.39102612501e-06
1e-15
1e-15
1.00105127267e-15
1.00648666792e-15
1.01642272114e-15
1.02144644624e-15
1.02634116723e-15
1.03498508572e-15
1.07582493288e-15
1.1433977902e-15
1.13257580223e-15
2.0391527824e-15
0.405744045128
0.387836104048
0.317864288537
0.200208131098
0.0802335593207
0.0160596393303
0.00127501133828
2.8115529377e-05
2.63667736374e-08
1e-15
1e-15
1e-15
1.00442441984e-15
1.0152814389e-15
1.02136710904e-15
1.03054117345e-15
1.08095366288e-15
1.14354626445e-15
1.13258780019e-15
2.04796836679e-15
0.403945319834
0.399573928665
0.352200195571
0.248928872205
0.12113811481
0.0335467818055
0.00453496032084
0.00025630075315
3.48320218402e-06
1e-15
1e-15
1e-15
1.00025730827e-15
1.00789962178e-15
1.01281906969e-15
1.02149470947e-15
1.07523866939e-15
1.14369473869e-15
1.13255924934e-15
2.05257304288e-15
0.399913650805
0.409806325409
0.380526277288
0.295114309254
0.171328688582
0.0633405319756
0.0130327943193
0.00144504606959
6.31701545034e-05
2.7178813144e-07
1e-15
1e-15
1.00071720666e-15
1.00188145162e-15
1.00369449658e-15
1.00827874128e-15
1.07152014847e-15
1.14384321294e-15
1.13942700027e-15
2.07681443051e-15
0.391509053321
0.411587532042
0.406519808689
0.342268890756
0.229397541537
0.108555686883
0.031829759387
0.00556800308105
0.000548432953429
1.63257601801e-05
8.65992851907e-09
1e-15
1e-15
1e-15
1e-15
1.00013604283e-15
1.06888673321e-15
1.14696635022e-15
1.15432261034e-15
2.10653259071e-15
0.372664582555
0.411496476313
0.424507729196
0.388219277578
0.293756447387
0.170715003608
0.0673323895773
0.0168736550327
0.0027614418674
0.000232556482206
3.78853994247e-06
1e-15
1e-15
1e-15
1e-15
1e-15
1.05521210101e-15
1.15109908553e-15
1.19235418191e-15
2.12601771373e-15
0.340399742661
0.408555282035
0.424562136662
0.424561927684
0.354679148776
0.241539212545
0.121472495601
0.041593907553
0.00977856173751
0.00158588569071
0.000118861033982
1.14359737336e-06
1.45631506332e-10
1e-15
1e-15
1.00999078066e-15
1.07430581186e-15
1.1488914914e-15
1.25504505251e-15
2.13011946411e-15
0.297038130422
0.395114728792
0.424880183005
0.424562136662
0.396655199086
0.305138106446
0.184441380159
0.0821656690201
0.0264728334205
0.00638340316924
0.00108243705887
8.24624523992e-05
5.58694890139e-07
2.49767089139e-11
5.18609599464e-13
9.3007440877e-13
7.54010024525e-13
3.93476929481e-14
1.45591430643e-15
2.14162721733e-15
0.249447220243
0.362882636324
0.424562136662
0.4249994466
0.424562136662
0.353981808163
0.242566130541
0.132724115913
0.0562656123965
0.0185110704125
0.00474104027371
0.000816236811138
5.36483946872e-05
9.85650869031e-08
3.19718333515e-09
3.40272663782e-09
2.08443028319e-09
1.57327692191e-10
7.91513055337e-13
7.50655523611e-14
0.216110164843
0.316159663243
0.419583625246
0.424562136662
0.424864439668
0.384380510685
0.292184638604
0.187262135925
0.0988905130233
0.0418246394318
0.0140656401776
0.00358978068585
0.000540785869819
2.68210671701e-05
2.11903956544e-06
1.61331525695e-06
1.04026104002e-06
1.35482733835e-07
2.39839956155e-09
4.06851209655e-10
0.214658208463
0.267973580418
0.395604301092
0.42481879958
0.424562136662
0.405110748363
0.338978284823
0.248680784793
0.155718937839
0.080581820883
0.0340209962312
0.0115867607035
0.00301886943547
0.000631460169831
0.000256610765229
0.000179439395072
0.000142181015773
3.17486605457e-05
2.24504597623e-06
2.82931175337e-07
0.214208644617
0.233481331029
0.349465148106
0.419054732481
0.424663773471
0.420162990303
0.388430251858
0.323673336694
0.234031258902
0.144121043317
0.0769529738613
0.037048953892
0.0162047192371
0.00748248207119
0.0079694966254
0.00751061061792
0.00667357302228
0.00266835890785
0.000472914653835
4.39365467505e-05
0.214658208463
0.217685077553
0.298710043905
0.386361426932
0.418393275449
0.435728099786
0.437757477542
0.406675505832
0.331479980956
0.239202708408
0.160525884511
0.104726651996
0.0611594355611
0.0375438122682
0.0880942209348
0.133316135205
0.125017473708
0.0706273391989
0.0205602659903
0.00197738294279
0.214238626313
0.214658208463
0.258002065255
0.329476959591
0.389157018278
0.44785709726
0.48041676607
0.467250142476
0.416007733836
0.342898697226
0.265493241892
0.189712337495
0.1271525976
0.152303967683
0.310569487199
0.595563188284
0.651872365904
0.534894981429
0.197697295389
0.0144322763174
0.214658208463
0.214217834899
0.228856782253
0.273048474798
0.345362789231
0.443041222947
0.480524827879
0.480450564141
0.463899116316
0.412702490429
0.327928452805
0.247866728238
0.30641668768
0.576096156345
0.654359693073
0.651872365904
0.654500698169
0.651872365904
0.462493591694
0.0329252317672
0.214219541932
0.214658208463
0.214253018926
0.229950947171
0.300866974375
0.422317060037
0.480450564141
0.480524827879
0.469032690926
0.413409062328
0.356896047992
0.476537315519
0.651192098375
0.654048649557
0.651589483962
0.654223124513
0.65199836332
0.654118567714
0.540136136256
0.0447579487139
)
;

boundaryField
{
    emptyPatch
    {
        type            empty;
    }
    minY
    {
        type            fixedValue;
        value           nonuniform List<scalar> 0();
    }
    maxY
    {
        type            inletOutlet;
        phi             phi.gas;
        inletValue      nonuniform List<scalar> 0();
        value           nonuniform List<scalar> 0();
    }
    maxX
    {
        type            zeroGradient;
    }
    water_to_heater
    {
        type            zeroGradient;
    }
    procBoundary3to1
    {
        type            processor;
        value           nonuniform List<scalar> 
41
(
0.717092522656
0.638170555166
0.533097102265
0.411856334817
0.292535590453
0.219540274549
0.214443109048
0.214658208463
0.213981090097
0.214658208463
0.213928509414
0.214658208463
0.214068632502
0.83867929531
0.772001522004
0.756941195428
0.762016835409
0.76995654673
0.767751715143
0.717092522656
0.747607262377
0.214658208463
0.21402511774
0.214658208463
0.213977708953
0.265319842902
0.39589100695
0.474535650733
0.471892958962
0.442845346838
0.441037525796
0.57072915898
0.650744172679
0.653436336727
0.651192098375
0.653887440397
0.651589483962
0.65418002293
0.651589483962
0.556468321521
0.0482845877355
)
;
    }
    procBoundary3to2
    {
        type            processor;
        value           nonuniform List<scalar> 
41
(
0.714819375729
0.664007524807
0.608488062548
0.544230845646
0.463954550612
0.375609087723
0.30105446651
0.288155843886
0.288514395859
0.28909750645
0.289332613771
0.289441145529
0.289747306506
0.317020777411
0.358078058869
0.35984822792
0.3438990301
0.269849649849
0.138007492088
0.0300658693748
1e-15
1.01899298912e-15
1.02256659113e-15
1.02332301772e-15
1.02256659113e-15
1.02285288881e-15
1.02256659113e-15
1.01712298454e-15
1.01310959605e-15
1.01261687464e-15
1.01310369752e-15
1.01444026763e-15
1.01717469464e-15
1.02224777941e-15
1.02964588999e-15
1.03045001752e-15
1.67872029921e-15
0.00140765753664
2.65411828858e-06
1e-15
1e-15
)
;
    }
}


// ************************************************************************* //
