/*--------------------------------*- C++ -*----------------------------------*\
| =========                 |                                                 |
| \\      /  F ield         | OpenFOAM: The Open Source CFD Toolbox           |
|  \\    /   O peration     | Version:  2312                                  |
|   \\  /    A nd           | Website:  www.openfoam.com                      |
|    \\/     M anipulation  |                                                 |
\*---------------------------------------------------------------------------*/
FoamFile
{
    version     2.0;
    format      ascii;
    arch        "LSB;label=32;scalar=64";
    class       volScalarField;
    location    "0.8/cooler";
    object      T;
}
// * * * * * * * * * * * * * * * * * * * * * * * * * * * * * * * * * * * * * //

dimensions      [0 0 0 1 0 0 0];

internalField   nonuniform List<scalar> 
750
(
300
300
300
300
300
300
300
300
300
300
300
300
300
300
300
300
300
300
300
300
300
300
300
300
300
300
300
300
300
300
300
300
300
300
300
300
300
300
300
300
300
300
300
300
300
300
300
300
300
300
300
300
300
300
300
300
300
300
300
300
300
300
300
300
300
300
300
300
300
300
300
300
300
300
300
300
300
300
300
300
300
300
300
300
300
300
300
300
300
300
300
300
300
300
300
300
300
300
300
300
300
300
300
300
300
300
300
300
300
300
300
300
300
300
300
300
300
300
300
300
300
300
300
300
300
300
300
300
300
300
300
300
300
300
300
300
300
300
300
300
300
300
300
300
300
300
300
300
300
300
300
300
300
300
300
300
300
300
300
300
300
300
300
300
300
300
300
300
300
300
300
300
300
300
300
300
300
300
300
300
300
300
300
300
300
300
300
300
300
300
300
300
300
300
300
300
300
300
300
300
300
300
300
300
300
300
300
300
300
300
300
300
300
300
300
300
300
300
300
300
300
300
300
300
300
300
300
300
300
300
300
300
300
300
300
300
300
300
300
300
300
300
300
300
300
300
300
300
300
300
300
300
300
300
300
300.000000001
300.000000001
300.000000001
300.000000001
300.000000001
300.000000001
300.000000001
300.000000001
300.000000001
300.000000001
300.000000003
300.000000003
300.000000003
300.000000003
300.000000003
300.000000006
300.000000006
300.000000007
300.000000007
300.000000007
300.000000013
300.000000014
300.000000014
300.000000014
300.000000014
300.000000028
300.000000029
300.00000003
300.00000003
300.00000003
300.000000061
300.000000063
300.000000064
300.000000065
300.000000065
300.000000134
300.000000137
300.000000139
300.000000141
300.000000141
300.000000289
300.000000295
300.0000003
300.000000303
300.000000304
300.000000614
300.000000626
300.000000632
300.000000635
300.000000637
300.000001287
300.00000129
300.000001286
300.000001282
300.00000128
300.000002644
300.00000256
300.000002495
300.000002453
300.000002433
300.000005085
300.000004747
300.000004504
300.000004352
300.000004279
300.000008665
300.000007867
300.00000731
300.000006963
300.000006798
300.000012656
300.000011381
300.000010485
300.000009921
300.000009648
300.00001617
300.000014582
300.00001344
300.000012705
300.000012346
300.000018849
300.000017106
300.000015822
300.000014982
300.000014567
300.000020796
300.000018971
300.000017605
300.0000167
300.000016251
300.000022244
300.000020348
300.000018915
300.000017959
300.000017483
300.000023278
300.000021309
300.000019822
300.000018831
300.000018337
300.000023592
300.000021636
300.000020219
300.000019286
300.000018819
300.000023457
300.000021802
300.000020495
300.000019598
300.000019143
300.000023798
300.000022158
300.000020846
300.00001994
300.000019479
300.000024524
300.000022697
300.000021328
300.000020388
300.000019909
300.000025409
300.000023462
300.000021997
300.000020999
300.000020493
300.00002643
300.000024423
300.00002287
300.000021805
300.000021263
300.000027677
300.000025608
300.000023959
300.000022816
300.000022234
300.000029193
300.000027051
300.000025292
300.00002406
300.000023431
300.000031077
300.000028837
300.000026944
300.000025608
300.000024925
300.000033465
300.000031089
300.000029032
300.00002757
300.000026822
300.000036516
300.000033943
300.000031677
300.000030061
300.000029233
300.000040409
300.000037552
300.000035018
300.000033213
300.00003229
300.000045421
300.000042147
300.00003926
300.000037218
300.000036181
300.00005193
300.000048064
300.000044711
300.000042371
300.000041191
300.000060554
300.000055861
300.000051869
300.000049122
300.000047748
300.000072121
300.000066252
300.000061313
300.000057955
300.000056291
300.000087264
300.000079536
300.000073155
300.000068954
300.000066928
300.000109431
300.000095644
300.000086979
300.000082009
300.000079735
300.00012338
300.000110293
300.000102286
300.000097398
300.000095037
300.000143269
300.000129934
300.000121277
300.000115779
300.000113081
300.00016748
300.00015334
300.000143407
300.000137025
300.000133881
300.000197025
300.000180249
300.000168607
300.000161123
300.000157431
300.000230649
300.000210906
300.000197183
300.000188348
300.00018399
300.00026924
300.000245971
300.000229688
300.000219182
300.000214001
300.000312806
300.000285365
300.000265987
300.000253454
300.000247275
300.000361342
300.000329097
300.000306087
300.000291166
300.000283811
300.000414932
300.000377375
300.000350278
300.000332649
300.000323955
300.000473493
300.000430336
300.00039886
300.000378298
300.000368144
300.000536413
300.000487658
300.000451752
300.00042819
300.000416532
300.000602501
300.000548385
300.000508227
300.000481769
300.000468653
300.000670172
300.000611049
300.000566961
300.000537832
300.00052337
300.000737859
300.000674073
300.000626409
300.000594876
300.000579207
300.000804232
300.00073607
300.000685147
300.000651451
300.000634704
300.000868495
300.000796151
300.000742129
300.000706394
300.00068864
300.000931907
300.000854986
300.000797246
300.000759058
300.000740126
300.000989874
300.000908823
300.000847867
300.000807609
300.000787691
300.001041586
300.000956754
300.000892961
300.000850881
300.000830084
300.001086556
300.000997986
300.000931499
300.000887689
300.00086605
300.001124966
300.00103217
300.000962763
300.000917124
300.000894607
300.0011575
300.001059364
300.000986453
300.000938706
300.000915202
300.001185552
300.001080177
300.001002822
300.000952551
300.000927906
300.001212597
300.001096609
300.001013066
300.000959521
300.000933584
300.001245528
300.001113028
300.001020854
300.000962957
300.000935091
300.001293657
300.001133716
300.001027915
300.000963722
300.000933391
300.001371309
300.001165692
300.001038432
300.00096481
300.00093093
300.001495841
300.001217561
300.001057763
300.000970157
300.000931057
300.001680178
300.001299565
300.001093485
300.000985249
300.000938239
300.001955886
300.001435435
300.001159703
300.001018569
300.00095864
300.002384858
300.001660955
300.001276462
300.001081951
300.001000665
300.003058545
300.002029172
300.001473879
300.001193141
300.001076744
300.004098498
300.002613844
300.001795955
300.001379291
300.001206465
300.005641134
300.003509789
300.002306248
300.001683171
300.001422339
300.007828715
300.004843437
300.003100502
300.002174204
300.001779627
300.010853372
300.006800595
300.004327566
300.002966209
300.002372652
300.015009638
300.009657953
300.006215163
300.004241394
300.003358114
300.020760601
300.013806682
300.009086488
300.006269843
300.004977361
300.028670988
300.019701712
300.013331119
300.009402004
300.007561195
300.039213778
300.027756982
300.019361298
300.014057082
300.011531885
300.05275122
300.038385937
300.027655627
300.020762817
300.017441901
300.069651068
300.052152048
300.038896163
300.030275391
300.026084281
300.090843407
300.070025146
300.054118459
300.043690495
300.038588405
300.117605596
300.093261773
300.074653544
300.062402573
300.056381474
300.151194065
300.123252673
300.102005773
300.087984963
300.081067641
300.193287208
300.161860324
300.138062319
300.122313516
300.114512047
300.246876713
300.212032754
300.1856116
300.168055037
300.159322946
300.316818288
300.278416594
300.248950695
300.229310976
300.219519935
300.411119242
300.367368025
300.333949945
300.311765204
300.300709477
300.537254947
300.485420925
300.446920509
300.421586273
300.408980776
300.699519927
300.637556267
300.59284039
300.56358687
300.549039097
300.901908156
300.828977273
300.77677969
300.742575428
300.725532323
301.15726956
301.072645999
301.011279081
300.970677697
300.950337948
301.4930039
301.394811623
301.321922573
301.272924329
301.248158805
301.9394532
301.827088615
301.740630844
301.681154777
301.650719872
302.509207627
302.384043496
302.283671221
302.212914706
302.176247363
303.175206958
303.042320946
302.931961443
302.852605073
302.811053306
303.868766542
303.737900212
303.626511574
303.545192146
303.502249694
304.495921772
304.376283418
304.273081816
304.197049953
304.156679661
304.963100465
304.854890244
304.761326682
304.692628656
304.656270288
305.227046123
305.114613197
305.018132966
304.94899758
304.913151502
)
;

boundaryField
{
    emptyPatch
    {
        type            empty;
    }
    minY
    {
        type            zeroGradient;
    }
    maxY
    {
        type            zeroGradient;
    }
    maxX
    {
        type            zeroGradient;
    }
    cooler_to_water
    {
        type            compressible::turbulentTemperatureTwoPhaseRadCoupledMixed;
        refValue        nonuniform List<scalar> 
150
(
300
300
300
300
300
300
300
300
300
300
300
300
300
300
300
300
300
300
300
300
300
300
300
300
300
300
300
300
300
300
300
300
300
300
300
300
300
300
300
300
300
300
300
300
300
300
300
300
300
300
300
300
300
300
300
300
300
300
300
300
300
300.000000368
300.000004293
300.000016804
300.000040026
300.000064281
300.000079175
300.000085297
300.000086937
300.000086472
300.000084877
300.000082783
300.000081104
300.000080122
300.000080393
300.000082007
300.000084625
300.000087776
300.000091171
300.000094937
300.000099237
300.000105288
300.000114095
300.000129133
300.000152247
300.000185144
300.000229288
300.000288864
300.000366141
300.000480422
300.000623382
300.000770706
300.000925785
300.00108701
300.001267825
300.00147247
300.00169776
300.00193768
300.002184813
300.002432327
300.002675945
300.002914578
300.003149917
300.003383069
300.003609886
300.003822964
300.004020447
300.004209293
300.004402568
300.004619287
300.004890395
300.005265191
300.005832334
300.006764642
300.008372409
300.011162095
300.015885371
300.02299245
300.031813905
300.043299199
300.05927032
300.082006688
300.113243816
300.152212707
300.196647549
300.246123978
300.304308317
300.377256719
300.471582924
300.589208216
300.718229017
300.854019538
301.008791842
301.183917406
301.368869508
301.570586567
301.824059478
302.169881758
302.632111481
303.231119904
303.937368808
304.663979111
305.44576018
306.253845757
307.028651695
307.695894549
308.14663361
308.34978037
308.472536013
308.873521142
)
;
        refGradient     uniform 0;
        valueFraction   nonuniform List<scalar> 
150
(
0.0163695515255
0.0163695515255
0.0163695515255
0.0163695515255
0.0163695515255
0.0163695515255
0.0163695515255
0.0163695515255
0.0163695515255
0.0163695515255
0.0163695515255
0.0163695515255
0.0163695515255
0.0163695515255
0.0163695515255
0.0163695515255
0.0163695515255
0.0163695515255
0.0163695515255
0.0163695515255
0.0163695515255
0.0163695515255
0.0163695515255
0.0163695515255
0.0163695515255
0.0163695515255
0.0163695515255
0.0163695515255
0.0163695515255
0.0163695515255
0.0163695515255
0.0163695515255
0.0163695515255
0.0163695515255
0.0163695515255
0.0163695515255
0.0163695515255
0.0163695515255
0.0163695515255
0.0163695515255
0.0163695515255
0.0163695515255
0.0163695515255
0.0163695515255
0.0163695515255
0.0163695515255
0.0163695515255
0.0163695515255
0.0163695515255
0.0163695515255
0.0163695515255
0.0163695515255
0.0163695515255
0.0163695515255
0.0163695515255
0.0163695515255
0.0163695515255
0.0163695515255
0.0163695515255
0.0163695515255
0.0163695515255
0.0163695515255
0.0231593709924
0.0169731774695
0.0164607804972
0.0163722183514
0.0163977244391
0.0165806987783
0.0170617192468
0.0180081933566
0.0195741355543
0.0217288358835
0.0163694271866
0.0163693501167
0.0238171496188
0.0224746967878
0.0211300283584
0.0198878061682
0.0187467363316
0.0177744129445
0.0170368941833
0.0165849436578
0.0163693362254
0.0163693337564
0.016369319953
0.0163692898704
0.0163691492988
0.0163623049573
0.0365335722272
0.0314213637521
0.0273868561191
0.0150311494343
0.0162498276151
0.0165146467206
0.0165812104453
0.0165219446994
0.0164524451988
0.0164081742462
0.0163865214776
0.0163810695403
0.0163805178701
0.0163772234988
0.0163716689257
0.0163688463931
0.0163685481248
0.0163707740974
0.0163770913235
0.0163859718443
0.0163927606311
0.0163949146526
0.0163932141514
0.0163897488437
0.0163858530991
0.0163820780956
0.0163785446114
0.0163753497586
0.0163730624888
0.0163675346877
0.0163559035021
0.016341049235
0.0163509908356
0.0163511687272
0.016350129317
0.0163497044646
0.0163496997512
0.0162741020427
0.0161300894384
0.0159516283193
0.0157731315921
0.0156123341464
0.015496409356
0.0154729045926
0.0155877320499
0.0157762502085
0.0158509607634
0.0156751072266
0.0142481601884
0.0132532953318
0.0137920764385
0.0150926462857
0.0162913244714
0.0163439590392
0.0163439559362
0.0163439590392
0.0163356035238
0.0163256514732
0.0162970471166
0.0162180197457
0.0158310644405
0.0151311269141
)
;
        source          uniform 0;
        kappaMethod     solidThermo;
        Tnbr            T.liquid;
        region          solid;
        otherPhase      gas;
        value           nonuniform List<scalar> 
150
(
300
300
300
300
300
300
300
300
300
300
300
300
300
300
300
300
300
300
300
300
300
300
300
300
300
300
300
300
300
300
300
300
300
300
300
300
300
300
300
300
300
300
300
300
300
300
300
300
300
300
300
300.000000001
300.000000001
300.000000003
300.000000006
300.000000013
300.000000028
300.00000006
300.000000131
300.000000284
300.000000604
300.000001272
300.000002681
300.000005282
300.000009178
300.000013497
300.000017199
300.000019947
300.000021921
300.000023397
300.00002448
300.000024872
300.000024397
300.000024718
300.000025846
300.000026674
300.000027655
300.000028868
300.000030353
300.000032212
300.000034587
300.000037659
300.000041618
300.000046796
300.000053577
300.000062597
300.000074698
300.000090568
300.000118767
300.000134499
300.000156283
300.000176502
300.000208792
300.0002447
300.000285692
300.00033185
300.000383204
300.000439786
300.000501399
300.000567331
300.000636322
300.000706781
300.000777194
300.00084628
300.00091319
300.000979059
300.001039325
300.001093304
300.001140714
300.001182037
300.001218449
300.001252127
300.001287927
300.001335433
300.001408832
300.001530414
300.00172941
300.002025674
300.002439424
300.003046932
300.003969038
300.005361031
300.007385643
300.010170791
300.013869283
300.018747102
300.02530978
300.034207013
300.046008451
300.061099003
300.079671049
300.102618114
300.131455601
300.167431112
300.211850827
300.267542685
300.338224479
300.434369717
300.566052832
300.737543137
300.951044836
301.214201528
301.55718768
302.009560041
302.582716257
303.248833879
303.938456601
304.558516291
305.018816291
305.282486471
)
;
    }
}


// ************************************************************************* //
