/*--------------------------------*- C++ -*----------------------------------*\
| =========                 |                                                 |
| \\      /  F ield         | OpenFOAM: The Open Source CFD Toolbox           |
|  \\    /   O peration     | Version:  2312                                  |
|   \\  /    A nd           | Website:  www.openfoam.com                      |
|    \\/     M anipulation  |                                                 |
\*---------------------------------------------------------------------------*/
FoamFile
{
    version     2.0;
    format      ascii;
    arch        "LSB;label=32;scalar=64";
    class       volVectorField;
    location    "0.405/water";
    object      U.gas;
}
// * * * * * * * * * * * * * * * * * * * * * * * * * * * * * * * * * * * * * //

dimensions      [0 1 -1 0 0 0 0];

internalField   nonuniform List<vector> 
1503
(
(0.0635399575261 0.325677857388 0)
(0.107608572836 0.206338949158 0)
(0.102234166957 0.180054415853 0)
(0.112056665013 0.161935794591 0)
(0.110228063206 0.156102121014 0)
(0.111072387342 0.152008735147 0)
(0.0998920679124 0.149746633224 0)
(0.0830638197625 0.157011705518 0)
(0.0789985071134 0.24517563097 0)
(0.0761925185809 0.281543567777 0)
(0.0667008183896 0.284306911738 0)
(0.0596320529549 0.285378123143 0)
(0.0527129469059 0.286463935063 0)
(0.0461461617487 0.287501674932 0)
(0.0398277695909 0.288487048403 0)
(0.0337028918124 0.289396857224 0)
(0.027726742753 0.290203922148 0)
(0.0218797446612 0.290879410429 0)
(0.0161894311181 0.291396735828 0)
(0.0107380820818 0.291740672874 0)
(0.0265058945566 0.671398181892 0)
(0.0717205652162 0.464967094533 0)
(0.0898848487261 0.405491685573 0)
(0.0956336338564 0.370417691829 0)
(0.102186324827 0.355336324582 0)
(0.103191258202 0.346750069181 0)
(0.101404461312 0.342270382034 0)
(0.0925242623657 0.350771393684 0)
(0.0636814531717 0.468565002305 0)
(0.0304660759139 0.52230535608 0)
(0.0182667682802 0.522832290982 0)
(0.0156339384649 0.522783263379 0)
(0.0134616070808 0.522891713652 0)
(0.0115142849198 0.523053995844 0)
(0.00972180330911 0.523261475034 0)
(0.00805127059736 0.523496744715 0)
(0.00649201348744 0.523736560251 0)
(0.00503868330696 0.523952243386 0)
(0.00368444957558 0.524114060439 0)
(0.00242655360787 0.524201793916 0)
(0.0303308629965 0.764864416737 0)
(0.0687191245861 0.574179437845 0)
(0.0789235927897 0.493760249764 0)
(0.0842414211937 0.453303973651 0)
(0.0887714538289 0.431219014801 0)
(0.0906045810666 0.419000695238 0)
(0.0905096794669 0.412109402557 0)
(0.0869187464559 0.411764062065 0)
(0.0721969951656 0.453901794832 0)
(0.0383318661687 0.486378950705 0)
(0.0142400606741 0.486508827944 0)
(0.0117328389245 0.484705576909 0)
(0.0105592225787 0.483114320292 0)
(0.00939707518733 0.481675023732 0)
(0.00826167740627 0.480360642426 0)
(0.00711615304441 0.479179504247 0)
(0.00594022742684 0.478146884136 0)
(0.00473361397946 0.477274875071 0)
(0.00350885896434 0.476569975243 0)
(0.00229884775542 0.476035157782 0)
(0.0413619577615 0.872562539514 0)
(0.0857389189795 0.677916254827 0)
(0.0892912714941 0.570058508308 0)
(0.0903463704468 0.516191426486 0)
(0.0901926814711 0.486341564935 0)
(0.0883659761 0.468198873562 0)
(0.0856666738902 0.456673866833 0)
(0.0816396119232 0.45102523292 0)
(0.0738819404906 0.466901019389 0)
(0.0486102169931 0.489249094358 0)
(0.0178932322004 0.494979772706 0)
(0.00694520474496 0.493737218139 0)
(0.00640529577728 0.492561961484 0)
(0.00576621387032 0.491491090769 0)
(0.00511131778335 0.490467167495 0)
(0.00444146172196 0.489485702952 0)
(0.00373131924906 0.48856583292 0)
(0.00296445317746 0.487733921656 0)
(0.00214128901382 0.487015361911 0)
(0.00129309875807 0.486432877701 0)
(0.0486042386345 0.926501190044 0)
(0.0999447037238 0.759354259884 0)
(0.101494877467 0.634198582807 0)
(0.0996429651377 0.564923742609 0)
(0.0971660894356 0.5266050182 0)
(0.0928681485007 0.502932302454 0)
(0.0873998741618 0.487126606544 0)
(0.0811424663073 0.47696016688 0)
(0.0735283500817 0.478889882947 0)
(0.0588772804893 0.48850597777 0)
(0.0271273841873 0.494135532393 0)
(0.00467517564272 0.493649483489 0)
(0.00346814766939 0.492532850769 0)
(0.00305642613507 0.491558250259 0)
(0.00262145134356 0.490638279588 0)
(0.00219156059293 0.489747523783 0)
(0.00174985951392 0.488892268459 0)
(0.0012732839377 0.488095670418 0)
(0.000750586224868 0.487387105319 0)
(0.000203295097746 0.486796242161 0)
(0.0532437283033 0.95575571404 0)
(0.108528319373 0.816622276966 0)
(0.108551924765 0.691650620484 0)
(0.105266319959 0.607194788259 0)
(0.102303412904 0.559581418937 0)
(0.0980394709191 0.53011196295 0)
(0.0918902879007 0.510109289104 0)
(0.0840959066935 0.496086558763 0)
(0.0752393967369 0.490241012161 0)
(0.0642215475464 0.491574901649 0)
(0.0369005041262 0.494270277639 0)
(0.00845571462611 0.494715652247 0)
(0.00089990973032 0.493605483535 0)
(0.000741098145355 0.492674862256 0)
(0.000528521117839 0.491837164914 0)
(0.000307172576137 0.49104733835 0)
(7.69199556705e-05 0.490293510852 0)
(-0.000178358914853 0.489586363237 0)
(-0.000470993529938 0.488948718834 0)
(-0.000783233236298 0.488407800613 0)
(0.0540660233051 0.971224519883 0)
(0.109632070247 0.853339862042 0)
(0.109566577095 0.738134541295 0)
(0.106214531181 0.6468043908 0)
(0.103131257887 0.588424660936 0)
(0.10005390331 0.552801170489 0)
(0.0952210266021 0.528483056568 0)
(0.0878284406259 0.510848785412 0)
(0.0785009285175 0.499873716509 0)
(0.0677597525506 0.495401155575 0)
(0.0497498789487 0.494598355053 0)
(0.0181002640477 0.49435862073 0)
(-0.00138055770675 0.493864046092 0)
(-0.00139522404701 0.493000249697 0)
(-0.00129171651571 0.492260920046 0)
(-0.00125425372682 0.491587052418 0)
(-0.00126159778314 0.490953760273 0)
(-0.00131367091878 0.490361404486 0)
(-0.00141457947999 0.489825446706 0)
(-0.00154402247987 0.489369214516 0)
(0.0528622956191 0.983870589921 0)
(0.106949436471 0.878066185322 0)
(0.107262476457 0.773133318553 0)
(0.104495856161 0.683816839827 0)
(0.101502530353 0.616521751646 0)
(0.0993442172082 0.573449739895 0)
(0.096311583101 0.544554843847 0)
(0.0906210853497 0.52324711789 0)
(0.0819864127405 0.508193238396 0)
(0.0714636565447 0.499379797443 0)
(0.0583551880577 0.49535803297 0)
(0.0282619464839 0.493474723862 0)
(0.00126575776752 0.493537139339 0)
(-0.00294535246716 0.492773222172 0)
(-0.00254935920112 0.492216918713 0)
(-0.00227776973033 0.491723399847 0)
(-0.00209571518149 0.49126305048 0)
(-0.00198886529059 0.490830588319 0)
(-0.00195031811905 0.490436755249 0)
(-0.00195841009626 0.490101385013 0)
(0.0539119798256 0.99415780536 0)
(0.109631056324 0.895237458836 0)
(0.109279820577 0.800268115864 0)
(0.104820924749 0.716446141291 0)
(0.10073689001 0.646248287315 0)
(0.0981567588037 0.594550529257 0)
(0.0962781650312 0.560112727524 0)
(0.0925265006408 0.534855521148 0)
(0.0853897973336 0.516030027041 0)
(0.0755353748398 0.503453361048 0)
(0.0638914080696 0.496437128127 0)
(0.0448531048002 0.493115749507 0)
(0.0141850221235 0.491789363363 0)
(-0.00340702500886 0.492108685693 0)
(-0.00287226636681 0.491787182432 0)
(-0.00246546412361 0.491529268347 0)
(-0.00218772148542 0.491291425166 0)
(-0.00201260695744 0.491062129627 0)
(-0.00192519011481 0.490847731143 0)
(-0.00190400130743 0.490663222275 0)
(0.0543968293894 0.996781083185 0)
(0.110951434386 0.903738139015 0)
(0.110361378637 0.819663407045 0)
(0.105120802815 0.743341723043 0)
(0.100782586943 0.675285810538 0)
(0.0981167101197 0.617865515165 0)
(0.0967809623996 0.576382954937 0)
(0.0946292352264 0.546946854447 0)
(0.0892695690783 0.524413970455 0)
(0.0803389883337 0.508161290414 0)
(0.0695500596377 0.49822671453 0)
(0.0563216128498 0.493158910069 0)
(0.0273143147338 0.490526714735 0)
(0.00189264003793 0.491160567583 0)
(-0.00191885062947 0.491154802106 0)
(-0.00152203580977 0.491206418724 0)
(-0.00129858875143 0.49124427436 0)
(-0.00120139872058 0.491255444177 0)
(-0.00120646204662 0.491244246608 0)
(-0.00128767637696 0.491223839718 0)
(0.0537423717354 0.993308324443 0)
(0.110036653375 0.905563917994 0)
(0.109840466716 0.831506284887 0)
(0.105145238726 0.763681671099 0)
(0.101965762051 0.700594871999 0)
(0.100163175978 0.642858779829 0)
(0.0993861642808 0.595265582499 0)
(0.0982611838067 0.561198548291 0)
(0.0943309698139 0.534779388548 0)
(0.0863962831189 0.514632602633 0)
(0.0759779349783 0.501493438938 0)
(0.0644500075583 0.494399984069 0)
(0.0469106205362 0.491243861964 0)
(0.0181348457696 0.489345744504 0)
(0.000910993932269 0.490761592246 0)
(0.000919028839811 0.491145777099 0)
(0.000789335194846 0.491465323972 0)
(0.000558768424141 0.491707666493 0)
(0.000247768438986 0.491878331793 0)
(-0.000113024663423 0.491993927061 0)
(0.051277292389 0.987937177281 0)
(0.105615161466 0.904480053963 0)
(0.106813486542 0.838127674528 0)
(0.104207345981 0.778211124321 0)
(0.10326939779 0.721673705648 0)
(0.103363136282 0.667510648121 0)
(0.103656373353 0.61818713268 0)
(0.102906244779 0.579141545999 0)
(0.0996596124364 0.548529944675 0)
(0.0926250085661 0.524128637097 0)
(0.0826801168765 0.507270038413 0)
(0.0722210498424 0.497792244808 0)
(0.0599783240516 0.49328822844 0)
(0.0326658615371 0.48974412458 0)
(0.00882683515089 0.491228046858 0)
(0.00470997733568 0.491929541886 0)
(0.0038899296399 0.492427126052 0)
(0.00305351034307 0.492796743629 0)
(0.00221259367079 0.493048692369 0)
(0.0013951332513 0.493205051347 0)
(0.0471602375873 0.988784944478 0)
(0.0981142044709 0.904927178227 0)
(0.101025934031 0.842404200216 0)
(0.100923444775 0.788694824764 0)
(0.103019465542 0.739128470765 0)
(0.105605228264 0.690748303013 0)
(0.107043941465 0.643868665253 0)
(0.106298844443 0.601255916327 0)
(0.103160015548 0.566188071003 0)
(0.0969514315325 0.537397700487 0)
(0.0879690810692 0.516420103401 0)
(0.0781189255358 0.503948338296 0)
(0.0677161343297 0.497649090836 0)
(0.0492855002081 0.494263636937 0)
(0.0232147972994 0.492968295796 0)
(0.0090874885481 0.494108762996 0)
(0.00728504411125 0.494557651547 0)
(0.00562359465421 0.494845735666 0)
(0.00410086415523 0.494990577528 0)
(0.00272250531038 0.495019541989 0)
(0.0452473917162 1.00026883773 0)
(0.0956816236541 0.910187584711 0)
(0.0994208647696 0.848414086711 0)
(0.0993986982641 0.798771292108 0)
(0.10281452248 0.755678698898 0)
(0.106513131444 0.713830107806 0)
(0.108450833963 0.671062317896 0)
(0.107433427507 0.627257107138 0)
(0.103948662823 0.587520370478 0)
(0.0983030519851 0.554581232956 0)
(0.0904289750987 0.529363155756 0)
(0.0812760476041 0.513206551625 0)
(0.0718409857458 0.504447494803 0)
(0.0589181686469 0.500211252088 0)
(0.0327604891158 0.496321908573 0)
(0.0128594121462 0.498052732516 0)
(0.00961076704067 0.498088167367 0)
(0.00712342903582 0.497975117368 0)
(0.00496094041598 0.49774350643 0)
(0.0030893068532 0.49742084606 0)
(0.0444335381778 1.0206090711 0)
(0.0953376766723 0.9214272638 0)
(0.0997861957231 0.859425504006 0)
(0.0988861440287 0.812405980033 0)
(0.101745826244 0.774484580151 0)
(0.104988342169 0.738395903652 0)
(0.106508202805 0.699507465813 0)
(0.105039530427 0.655752251824 0)
(0.101372080848 0.611687881864 0)
(0.0962032171114 0.574824139165 0)
(0.0891298541288 0.545421983766 0)
(0.0804944129671 0.525043875711 0)
(0.0714852751567 0.512930538458 0)
(0.0606278162068 0.506522522058 0)
(0.0367879096835 0.502105597878 0)
(0.0149424863063 0.503496552248 0)
(0.00896634497298 0.502762370582 0)
(0.00607202128444 0.501882265029 0)
(0.00364675757504 0.500988604237 0)
(0.00161937512952 0.500096263924 0)
(0.0448066675868 1.04716815094 0)
(0.0965133173557 0.939566915992 0)
(0.100772979402 0.876847295412 0)
(0.0982912510734 0.831931153002 0)
(0.0993622457225 0.797658861199 0)
(0.101201167902 0.765266686126 0)
(0.101845902695 0.728576093669 0)
(0.100064697028 0.684615767285 0)
(0.0964075310878 0.637175063178 0)
(0.0912865612545 0.596028054537 0)
(0.0842828659604 0.562553555137 0)
(0.0756405747496 0.537706749793 0)
(0.0662400398222 0.521555905208 0)
(0.055505374263 0.512112057592 0)
(0.0368073375959 0.507369192116 0)
(0.0145181783072 0.509548870509 0)
(0.00365637448178 0.507562904052 0)
(0.00123452835841 0.505665537476 0)
(-0.00072743329837 0.503946213721 0)
(-0.00230391081374 0.502383681084 0)
(0.046023759046 1.07729551313 0)
(0.098175490582 0.965823683275 0)
(0.101193081287 0.902035977623 0)
(0.0969746159827 0.85876536279 0)
(0.0955821268705 0.826112967032 0)
(0.0953085657512 0.794155501845 0)
(0.0947734839657 0.75662985881 0)
(0.0929468649831 0.711167206229 0)
(0.0894578597609 0.661282626547 0)
(0.0840595126511 0.61544396989 0)
(0.0767370039052 0.577383356566 0)
(0.0677648743949 0.548201121975 0)
(0.0576182419881 0.527861801142 0)
(0.0464589465923 0.514851718102 0)
(0.0321678507773 0.507966630492 0)
(0.00857894617685 0.511069445499 0)
(-0.0069725276813 0.510665029863 0)
(-0.00771356664267 0.507896586871 0)
(-0.00827542708805 0.505462956204 0)
(-0.00864356532142 0.503370924607 0)
(0.0475449216378 1.11373682554 0)
(0.0976996111491 1.00093790272 0)
(0.0961263837194 0.934013290982 0)
(0.0890436798412 0.890575795607 0)
(0.0847170617628 0.856223071746 0)
(0.0830857194091 0.820415508048 0)
(0.082953008993 0.778713917646 0)
(0.0825115851137 0.730451464949 0)
(0.0803242765231 0.678819520869 0)
(0.0757393343573 0.629482375123 0)
(0.0689666776101 0.586715935624 0)
(0.0603072850124 0.553251003912 0)
(0.0495855532771 0.529241318397 0)
(0.0375064453692 0.512917524019 0)
(0.0245984587267 0.503584733131 0)
(0.00266938588285 0.5036530187 0)
(-0.0165352821355 0.510449809134 0)
(-0.0196596546033 0.506893194091 0)
(-0.0179354985033 0.504325485921 0)
(-0.0164165208722 0.502181279259 0)
(0.0504670755158 1.14910090837 0)
(0.0980945791008 1.03663882015 0)
(0.087764711611 0.966654842318 0)
(0.0753621149833 0.920483838086 0)
(0.0686491420485 0.880508078811 0)
(0.0674606321124 0.837322073358 0)
(0.0693463225819 0.789719494075 0)
(0.0713242146722 0.738384463168 0)
(0.0717492344935 0.685658396825 0)
(0.0700746749328 0.635318939366 0)
(0.0658172065482 0.590408880802 0)
(0.0584408243463 0.553462734934 0)
(0.0477282584633 0.52556174433 0)
(0.0344957225033 0.506522392572 0)
(0.02131936804 0.495464907716 0)
(0.00702807582308 0.492161892973 0)
(-0.0178215343974 0.500388830123 0)
(-0.0318374807621 0.501751689566 0)
(-0.0271783252352 0.499917706339 0)
(-0.0235925273592 0.498469610951 0)
(0.049529642464 1.17050078307 0)
(0.0929299015305 1.0620327057 0)
(0.0789314186505 0.993247925097 0)
(0.0660456918258 0.944140029489 0)
(0.0595132534037 0.896727122904 0)
(0.0592284383964 0.845061820797 0)
(0.0625727894134 0.791691186677 0)
(0.0666073183609 0.737851711355 0)
(0.0698235638689 0.684669756281 0)
(0.0711778190648 0.634862219313 0)
(0.0691792813605 0.59098971919 0)
(0.0630242149007 0.553246164113 0)
(0.0532656326442 0.521604823409 0)
(0.0404640784432 0.499297182188 0)
(0.0267966614085 0.486601706371 0)
(0.0143701423184 0.482010981992 0)
(-0.00791200839336 0.485035638321 0)
(-0.0298250857378 0.493644336669 0)
(-0.032590856712 0.492993704674 0)
(-0.0276074112939 0.49292497241 0)
(0.0485146713393 1.18023863675 0)
(0.0920245876573 1.07838536109 0)
(0.0807302583341 1.01424704117 0)
(0.0701451139725 0.965119846456 0)
(0.0642300497199 0.911486838897 0)
(0.0636426988477 0.851751305371 0)
(0.0668902167487 0.792889640951 0)
(0.0714093562879 0.73667550359 0)
(0.0755803178058 0.68307299724 0)
(0.0782654604142 0.634201079612 0)
(0.0776588938038 0.592505073566 0)
(0.0722314876055 0.556022817018 0)
(0.0629159496879 0.522953731549 0)
(0.0513956647644 0.496288560152 0)
(0.0385929926541 0.480950667606 0)
(0.0268818667396 0.475150387377 0)
(0.0138436594465 0.475615295038 0)
(-0.0143238079065 0.481679069596 0)
(-0.0316868046213 0.485818294932 0)
(-0.0266059194421 0.487204610446 0)
(0.0488697426532 1.18663647571 0)
(0.0940250177184 1.09122746233 0)
(0.0852274774757 1.03237188242 0)
(0.076578320994 0.986117875635 0)
(0.0717164347847 0.92885254526 0)
(0.0715083382071 0.862393011527 0)
(0.0747947435261 0.798419931349 0)
(0.0794343472199 0.739615207638 0)
(0.0843623727851 0.685455911715 0)
(0.0881210134882 0.638214754924 0)
(0.088088177485 0.59842257903 0)
(0.0826552317868 0.563265483016 0)
(0.0729806973628 0.530689200301 0)
(0.0620429932984 0.500067160987 0)
(0.0510475972626 0.481154771321 0)
(0.0411099284448 0.473183961871 0)
(0.0317123212234 0.472178492223 0)
(0.00587003762423 0.472555893266 0)
(-0.0185221824917 0.480726375739 0)
(-0.0206056603642 0.483065211502 0)
(0.0462610792428 1.19419812825 0)
(0.0894030586538 1.10084523249 0)
(0.0821432860526 1.04523836099 0)
(0.0757952647297 1.00185212497 0)
(0.0735010094187 0.943492120588 0)
(0.0752195789963 0.873327452875 0)
(0.0797356555174 0.806081069229 0)
(0.0857724676918 0.745596627035 0)
(0.092529892426 0.692224911633 0)
(0.0973999333816 0.647878395473 0)
(0.0973286951419 0.609362639245 0)
(0.0916834204704 0.574742127624 0)
(0.0817304663939 0.543068104547 0)
(0.0707501296194 0.51023457971 0)
(0.0610610896621 0.487520533421 0)
(0.0526953191622 0.476326641318 0)
(0.0450188874887 0.473589140196 0)
(0.0287982010165 0.472953619197 0)
(0.0022309245416 0.478325376025 0)
(-0.0114371323938 0.481422512299 0)
(0.045736189403 1.20254354686 0)
(0.0894387708615 1.10683855655 0)
(0.0825506660661 1.05339387956 0)
(0.0757892448135 1.01070118448 0)
(0.0744238199179 0.951925881558 0)
(0.0775131826975 0.880817050552 0)
(0.0838421689676 0.812746099274 0)
(0.09226902453 0.752662979821 0)
(0.100330425276 0.702560204653 0)
(0.104742577534 0.661846539208 0)
(0.104580409246 0.62472528384 0)
(0.0994036826598 0.590032305836 0)
(0.0894442493574 0.559024157694 0)
(0.0781513205934 0.525667499378 0)
(0.0686684060127 0.499170363001 0)
(0.0610819327927 0.483931653188 0)
(0.0544207193181 0.478713022325 0)
(0.04389479044 0.477922263644 0)
(0.017972910536 0.477964512952 0)
(-0.00132752431169 0.482220435784 0)
(0.0447278260678 1.21174545417 0)
(0.0879837065005 1.11101413486 0)
(0.0815443249797 1.05947201896 0)
(0.0752529487277 1.01543670897 0)
(0.0752790760227 0.955669148249 0)
(0.0802807928221 0.885141899126 0)
(0.0890511713477 0.818398407614 0)
(0.0992174487574 0.761203216002 0)
(0.10695986159 0.716217027316 0)
(0.110660086789 0.67893085717 0)
(0.110825936102 0.643763033314 0)
(0.106412122452 0.609366546135 0)
(0.0969678661349 0.578986808884 0)
(0.0849053373745 0.546042692726 0)
(0.0743338700411 0.515231931651 0)
(0.0666418994691 0.495065181098 0)
(0.0602855306516 0.486417801702 0)
(0.0516865075511 0.484241029079 0)
(0.0280811872387 0.479079019277 0)
(0.00788347648945 0.484898637512 0)
(0.0436556539381 1.22588430622 0)
(0.0865283573916 1.11667025336 0)
(0.0811969248221 1.06435534034 0)
(0.0761235102222 1.01757998365 0)
(0.0778982928262 0.956693458132 0)
(0.0849775529583 0.887936951335 0)
(0.0957021299233 0.82435220988 0)
(0.105983242985 0.772266576995 0)
(0.112388388533 0.732535020401 0)
(0.115687571923 0.698294502656 0)
(0.116536011825 0.665196577226 0)
(0.113370295716 0.631998077856 0)
(0.104571135946 0.603330933808 0)
(0.0907701293548 0.571439993848 0)
(0.0779197309892 0.5343320535 0)
(0.0695026468174 0.508475166406 0)
(0.0628488208289 0.49544499935 0)
(0.0543666071159 0.490899502771 0)
(0.0334805173325 0.481472320223 0)
(0.0144144916562 0.488699340367 0)
(0.0420368260783 1.24485453217 0)
(0.0841039586249 1.1248139769 0)
(0.0806498830874 1.06810787452 0)
(0.0779050961147 1.01772748447 0)
(0.0821030383287 0.956626768302 0)
(0.0912283070209 0.890961616346 0)
(0.10258417743 0.831823953438 0)
(0.111629459434 0.785976626347 0)
(0.116952691398 0.75038294513 0)
(0.120506959311 0.718738214094 0)
(0.122322140269 0.68745227349 0)
(0.12063401499 0.656257780417 0)
(0.111227635701 0.630421826618 0)
(0.0939145855446 0.599432628684 0)
(0.0788918859035 0.555169120416 0)
(0.070216209782 0.522898855926 0)
(0.0627929417807 0.504458130864 0)
(0.0533836536906 0.496842484105 0)
(0.0351561265326 0.486466839297 0)
(0.017986125099 0.492652089546 0)
(0.0393415431919 1.27170778585 0)
(0.0798073335562 1.13582598009 0)
(0.0788327497563 1.07010364564 0)
(0.0790862566039 1.01563207338 0)
(0.0861361666632 0.956330484838 0)
(0.0970401258954 0.895475278097 0)
(0.108029359304 0.841698758358 0)
(0.115529315959 0.801647660182 0)
(0.120528424927 0.769115354607 0)
(0.124648762963 0.739369941951 0)
(0.127365612548 0.7095400061 0)
(0.125620271885 0.681003188148 0)
(0.112618906317 0.657143550215 0)
(0.0933304359639 0.626139570609 0)
(0.0792397941109 0.57869138762 0)
(0.0699257747387 0.537668378346 0)
(0.0611561818563 0.51281921829 0)
(0.0505851445413 0.501713524525 0)
(0.0348044776547 0.49405098107 0)
(0.0196109128176 0.496168694567 0)
(0.0392473268281 1.30362095831 0)
(0.0818659761601 1.14868898621 0)
(0.0829575346464 1.07316359311 0)
(0.0835472945551 1.01503641822 0)
(0.0914310813485 0.95889927503 0)
(0.102385455295 0.903584397503 0)
(0.111999616758 0.855230211324 0)
(0.118108422774 0.819316252015 0)
(0.122810487622 0.788908838362 0)
(0.127002926476 0.760300257322 0)
(0.129969883295 0.731938733015 0)
(0.124449187674 0.705789030819 0)
(0.107844579811 0.681149509386 0)
(0.0911073737518 0.649894799425 0)
(0.0781466821129 0.604411822168 0)
(0.0672679331036 0.552549744087 0)
(0.0578574236963 0.52113376051 0)
(0.0469362879 0.506124366472 0)
(0.0326484126151 0.500234769673 0)
(0.0190688671725 0.499368173186 0)
(0.0397440004978 1.33063315685 0)
(0.0860249837249 1.16139248872 0)
(0.0900165704494 1.08163617455 0)
(0.0899324538448 1.02225660431 0)
(0.0967850109094 0.969055948708 0)
(0.106017553498 0.917877730671 0)
(0.113716700613 0.873488883235 0)
(0.11876829018 0.839811060646 0)
(0.123036963539 0.810372075314 0)
(0.1266892732 0.782058545615 0)
(0.125834724123 0.754987943942 0)
(0.114771018771 0.729562063999 0)
(0.0991776944308 0.702181835493 0)
(0.0857423202128 0.670574026184 0)
(0.0730462159864 0.628624344744 0)
(0.0621987609982 0.568906958584 0)
(0.0529741143173 0.530542528583 0)
(0.0424915346254 0.510962392433 0)
(0.028781145286 0.503655143771 0)
(0.0158098582644 0.501799410851 0)
(0.0416386350306 1.3525136259 0)
(0.0926523243907 1.17972314013 0)
(0.0983931188568 1.10202575245 0)
(0.0957403915132 1.04408364754 0)
(0.0997196251302 0.991501497456 0)
(0.106254277834 0.940839801931 0)
(0.111932618506 0.897543837151 0)
(0.115723797106 0.864302098084 0)
(0.118581007649 0.834304702814 0)
(0.11908556099 0.804691842752 0)
(0.112011594572 0.776872914557 0)
(0.0984875361156 0.749215248737 0)
(0.0863863712906 0.71964116989 0)
(0.0759730011732 0.687703281403 0)
(0.0651998023815 0.648512996542 0)
(0.0553944468726 0.587205460338 0)
(0.046427931488 0.5407457976 0)
(0.0361836250371 0.516102249081 0)
(0.0227228315631 0.505632370179 0)
(0.00836678019408 0.503270653106 0)
(0.0446198831898 1.38278559332 0)
(0.097784091444 1.21757924248 0)
(0.100529098855 1.14539747291 0)
(0.0935185838534 1.08873054671 0)
(0.0940262859806 1.02973948211 0)
(0.09824150234 0.973494287179 0)
(0.101887099725 0.927771375366 0)
(0.103144600267 0.892419339579 0)
(0.101803878138 0.858678768342 0)
(0.0956084209648 0.824031521677 0)
(0.0851928591148 0.792139176792 0)
(0.0764842860139 0.760929915501 0)
(0.070055314856 0.730424910711 0)
(0.062735565292 0.698851338187 0)
(0.0547856480405 0.661853554724 0)
(0.0469182251003 0.603791228288 0)
(0.038830071231 0.549862183546 0)
(0.028543256397 0.520315417385 0)
(0.0149126392947 0.505758281968 0)
(-0.00143788447085 0.5021854764 0)
(0.047437231868 1.43778991745 0)
(0.0950270748918 1.28736198061 0)
(0.08602175431 1.22124216441 0)
(0.0724788510181 1.16112202914 0)
(0.068311932342 1.08200225424 0)
(0.0696081264614 1.01046741858 0)
(0.0700039242466 0.958505847419 0)
(0.0670548302308 0.917725427622 0)
(0.0617558660117 0.876561569737 0)
(0.055946328366 0.833571149987 0)
(0.0523348230861 0.795820970134 0)
(0.0511244974279 0.761731013493 0)
(0.0497402538499 0.730826043819 0)
(0.0471064277111 0.700487821008 0)
(0.0434663077548 0.666070225027 0)
(0.038881090967 0.614699500331 0)
(0.0322199929682 0.557033273231 0)
(0.021415743806 0.522227075153 0)
(0.00717229384594 0.503128288488 0)
(-0.0087174731007 0.49708993424 0)
(0.0535853648791 1.49633488413 0)
(0.0943576568638 1.37680795658 0)
(0.0662711108384 1.32157537959 0)
(0.0406206307298 1.25427863883 0)
(0.0257440553562 1.14420451927 0)
(0.0197692267672 1.04491403318 0)
(0.0172556380268 0.979989911346 0)
(0.0155300513771 0.930277772106 0)
(0.0151926247716 0.880213362719 0)
(0.0171085580997 0.829312705579 0)
(0.0210735913919 0.787377901376 0)
(0.0255822132787 0.751524731189 0)
(0.029244236548 0.71956778119 0)
(0.0319675808167 0.690243605705 0)
(0.0340402916717 0.659303386279 0)
(0.0340289681733 0.617857806224 0)
(0.0285676351939 0.563470201755 0)
(0.0165962676194 0.520198803787 0)
(0.00138404731437 0.496883107604 0)
(-0.014187199787 0.488364390365 0)
(0.0517942084739 1.52820854523 0)
(0.0851797482484 1.45297794045 0)
(0.0536244035435 1.41289693754 0)
(0.0277346653419 1.34625537775 0)
(0.00408116612142 1.21466179943 0)
(-0.0124077077532 1.08254765594 0)
(-0.0186295373874 0.992570560948 0)
(-0.0173602426095 0.927951061061 0)
(-0.0123662594912 0.868682091759 0)
(-0.00577182270614 0.812277972076 0)
(0.00163787349943 0.769303274937 0)
(0.00918119272129 0.733684824804 0)
(0.0160741997665 0.700247986414 0)
(0.0227574879726 0.670311850389 0)
(0.0293557671562 0.642536829973 0)
(0.0322127879103 0.61287753955 0)
(0.0275396761611 0.567970954673 0)
(0.0162360788549 0.515057793348 0)
(0.000757527555637 0.487398689765 0)
(-0.0154948931063 0.476714122882 0)
(0.0470250313814 1.54248493065 0)
(0.0832153071906 1.49452862684 0)
(0.0668879683325 1.46547159918 0)
(0.0527159793494 1.41781174743 0)
(0.0303011239544 1.29689546819 0)
(0.0055479594439 1.13922657605 0)
(-0.00979062432297 1.01399198226 0)
(-0.0135135676999 0.924522336649 0)
(-0.0104066949132 0.853004930015 0)
(-0.00482461042408 0.791685999131 0)
(0.00198823463362 0.748219306474 0)
(0.00956992344241 0.713698224235 0)
(0.0168979498474 0.679639938175 0)
(0.0240677818197 0.64815300995 0)
(0.0309036801567 0.621571690821 0)
(0.0335595207248 0.602369872884 0)
(0.0303250801199 0.567367166518 0)
(0.0217592730826 0.511717380443 0)
(0.00715564384825 0.477197157611 0)
(-0.00943558959364 0.464285117668 0)
(0.0492027537071 1.54652126498 0)
(0.0934920680842 1.50551749014 0)
(0.0864051505079 1.48447989732 0)
(0.0807585201746 1.45917500571 0)
(0.0678551000254 1.37754656697 0)
(0.0453128654099 1.2185233321 0)
(0.0243363911161 1.05748214313 0)
(0.0140397158741 0.935910729417 0)
(0.0119717610997 0.847169895075 0)
(0.014012040974 0.778731561253 0)
(0.0184570140221 0.732528417402 0)
(0.0244968231784 0.698091905395 0)
(0.0305808886344 0.66388010442 0)
(0.0358727917748 0.631090675554 0)
(0.0401062540569 0.603828357065 0)
(0.0413492466652 0.590621010743 0)
(0.0384301500275 0.563250921031 0)
(0.0307354692831 0.512619253211 0)
(0.0177714167962 0.469362984779 0)
(0.00225489655981 0.453434614137 0)
(0.0507268627497 1.5402785605 0)
(0.0968166295754 1.50152266254 0)
(0.0913859858409 1.48456145357 0)
(0.0889734795499 1.47190500147 0)
(0.0837259476582 1.42613330021 0)
(0.0698956042778 1.3001255279 0)
(0.0521795145913 1.11337582172 0)
(0.0415489898562 0.961494083286 0)
(0.0379394665797 0.854332445976 0)
(0.0384063841801 0.777293102263 0)
(0.0413873134665 0.726580607201 0)
(0.0459143809805 0.69084522323 0)
(0.0504213257768 0.656279712936 0)
(0.0536766087766 0.622523595039 0)
(0.05530181071 0.593852863039 0)
(0.0547158927945 0.581490731223 0)
(0.0501867660938 0.560116435617 0)
(0.0413712317508 0.516294891816 0)
(0.0299277281823 0.46613811649 0)
(0.0162243871474 0.446236407713 0)
(0.00558815743555 0.291921882355 0)
(0.000735123228695 0.291962825404 0)
(-0.00385151288739 0.291884655734 0)
(-0.00821774429792 0.291708085565 0)
(-0.0124319196253 0.291448522577 0)
(-0.0165658739361 0.291115686711 0)
(-0.0206818667448 0.290715606558 0)
(-0.0248296379052 0.290252774349 0)
(-0.029047851162 0.28973158128 0)
(-0.0333691682136 0.289156275428 0)
(-0.0378324874602 0.288528566439 0)
(-0.0425023210547 0.287842425943 0)
(-0.0474920595101 0.287078341489 0)
(-0.0529441448476 0.286212660252 0)
(-0.0588631065263 0.285279165837 0)
(-0.0642673824028 0.284602214423 0)
(-0.0716626745625 0.283575811009 0)
(-0.0662414560494 0.285757476379 0)
(-0.223532761181 0.245302744936 0)
(-0.195647902067 0.267711365722 0)
(0.00126181156886 0.524225665824 0)
(0.000177858560053 0.52419952688 0)
(-0.000843569018339 0.524126635971 0)
(-0.00182445349123 0.524016073369 0)
(-0.00278621269798 0.523877823948 0)
(-0.00374485561809 0.523719879959 0)
(-0.00471119043365 0.52354793383 0)
(-0.00569186495618 0.523366125744 0)
(-0.00669221520475 0.523177475496 0)
(-0.00772084255688 0.522983687517 0)
(-0.00879636866953 0.522784010832 0)
(-0.00995169969369 0.522573847281 0)
(-0.0112197785354 0.522346191201 0)
(-0.0125636326641 0.522109148812 0)
(-0.0137784421813 0.521939741651 0)
(-0.0146455929477 0.522134029926 0)
(-0.0153328945162 0.521960689284 0)
(-0.0168566445431 0.52321032263 0)
(-0.0116539630539 0.483892594709 0)
(-0.00264199695627 0.483780317042 0)
(0.00113168089558 0.475683672273 0)
(1.17059689288e-05 0.475510761198 0)
(-0.00105320681452 0.475484435061 0)
(-0.0020561372181 0.475579274179 0)
(-0.00300019307103 0.475780151406 0)
(-0.00388879117277 0.476077159943 0)
(-0.00472438132883 0.476462005058 0)
(-0.00550978964086 0.476926040881 0)
(-0.00625230070416 0.477459448013 0)
(-0.0069668685432 0.478052219258 0)
(-0.0076746539909 0.478697510407 0)
(-0.00838581882108 0.479398377614 0)
(-0.00905264295624 0.480177508911 0)
(-0.00950844896794 0.48108353538 0)
(-0.00952464895916 0.482164573981 0)
(-0.00907224923924 0.483300486838 0)
(-0.00848116746132 0.483742595423 0)
(-0.00798202323968 0.479718900389 0)
(-0.000742388377537 0.469460299952 0)
(0.00313288104147 0.427041967768 0)
(0.000449006834489 0.486018809835 0)
(-0.000389004185941 0.4857853778 0)
(-0.00120377487289 0.485705796151 0)
(-0.00196975236596 0.485750325686 0)
(-0.00267891800557 0.485896468854 0)
(-0.00333162949285 0.486124345104 0)
(-0.00393200292369 0.486415180092 0)
(-0.00448832503251 0.486750791831 0)
(-0.00501430362217 0.487114470024 0)
(-0.00552677888868 0.487493446388 0)
(-0.00603621652242 0.487882626872 0)
(-0.00652443283897 0.488288875831 0)