/*--------------------------------*- C++ -*----------------------------------*\
| =========                 |                                                 |
| \\      /  F ield         | OpenFOAM: The Open Source CFD Toolbox           |
|  \\    /   O peration     | Version:  2312                                  |
|   \\  /    A nd           | Website:  www.openfoam.com                      |
|    \\/     M anipulation  |                                                 |
\*---------------------------------------------------------------------------*/
FoamFile
{
    version     2.0;
    format      ascii;
    arch        "LSB;label=32;scalar=64";
    class       volScalarField;
    location    "0.675/heater";
    object      T;
}
// * * * * * * * * * * * * * * * * * * * * * * * * * * * * * * * * * * * * * //

dimensions      [0 0 0 1 0 0 0];

internalField   nonuniform List<scalar> 
150
(
792.379177545
792.255241693
792.016507349
791.693873279
791.352520121
792.435694121
792.311295578
792.069785975
791.739595758
791.389172793
792.471743338
792.346458426
792.100496592
791.756656222
791.381739521
792.483249627
792.356999103
792.106075249
791.744296582
791.32368791
792.476066821
792.349436215
792.094683083
791.713625931
791.225448168
792.461290775
792.335431183
792.081125822
791.694416351
791.174410003
792.444271039
792.31963884
792.067809174
791.683553992
791.158201889
792.429712927
792.306357248
792.057551207
791.678720533
791.15852846
792.427044352
792.305134812
792.060392226
791.692005952
791.191339677
792.446721732
792.325908539
792.084126501
791.724871185
791.252836115
792.488345639
792.368423065
792.128478747
791.773329362
791.319506932
792.546250509
792.427633866
792.190113345
791.838014027
791.389690779
792.617577438
792.501602068
792.268879682
791.921972833
791.476976186
792.699147043
792.586954101
792.361006176
792.020637043
791.576553553
792.782310502
792.674623825
792.456861913
792.123303335
791.672439073
792.856452548
792.75323482
792.54417012
792.218199638
791.753722819
792.913278277
792.814378654
792.615489931
792.3036988
791.838361138
792.947697031
792.85159328
792.661243758
792.367248298
791.920423402
792.964508229
792.869964993
792.686498752
792.412502491
791.996477838
792.96977207
792.875651328
792.696622603
792.442723719
792.072448818
792.96572232
792.870883508
792.692639505
792.454050179
792.153734008
792.95149015
792.855322774
792.674699236
792.437811733
792.179251046
792.922845428
792.824854998
792.640376804
792.399195848
792.149714549
792.877623103
792.777095526
792.587261631
792.338607288
792.085488243
792.819968719
792.716286848
792.519618454
792.26041784
791.995539408
792.763253563
792.657066028
792.454519064
792.184902591
791.906465893
792.713566611
792.604949229
792.39539186
792.109068249
791.804265385
792.674987891
792.563570376
792.34363422
792.023008292
791.643032988
792.651167751
792.538533901
792.314932182
791.978886523
791.54791224
792.642799228
792.530108009
792.307837637
791.974309558
791.529672982
)
;

boundaryField
{
    emptyPatch
    {
        type            empty;
    }
    minY
    {
        type            zeroGradient;
    }
    maxY
    {
        type            zeroGradient;
    }
    minX
    {
        type            zeroGradient;
    }
    heater_to_water
    {
        type            compressible::turbulentTemperatureTwoPhaseRadCoupledMixed;
        refValue        nonuniform List<scalar> 
60
(
530.32154062
551.465354719
551.464823528
553.529579662
553.529743798
550.031027795
550.031978933
510.15089436
422.248452924
367.916836332
367.917875436
344.8750382
344.875347867
334.722958111
334.723023287
332.435221717
331.637889664
336.924570412
336.923875208
368.010963362
368.009800542
402.741362229
402.739832892
412.234049729
413.094177747
415.114639683
415.112190402
412.21057753
412.208241897
407.058716171
407.05683728
373.67063
346.319557994
334.531523218
334.530608447
331.56742126
331.566648522
330.675628472
330.67487819
331.149281438
347.733951813
452.529446564
452.529071933
554.497662787
554.497891806
598.201945425
598.202237141
611.129881543
605.602456563
586.639079471
586.639462351
572.221043078
572.221508624
574.38380155
574.384786231
527.863766793
512.991198403
443.335851196
443.336429576
382.139653778
)
;
        refGradient     uniform 0;
        valueFraction   nonuniform List<scalar> 
60
(
0.000603276605877
0.000598464222773
0.000598465491979
0.000598515492884
0.000598515103953
0.00059842232339
0.000598420038829
0.000608160094701
0.000656029236312
0.000720262237243
0.00072025107274
0.000745452460192
0.000745447212274
0.000746350069859
0.00074634863201
0.000746351221054
0.000746381462554
0.000747157163513
0.000747171609775
0.000717733390338
0.000717745844848
0.000684258681694
0.000684268969029
0.000681594080955
0.000684290443168
0.00068186189632
0.000681876531808
0.000684273647419
0.000684288014987
0.000683654875962
0.000683666980302
0.000712633349095
0.000742881733479
0.000747031490676
0.000747051830641
0.000746418699239
0.000746437530366
0.000746439884813
0.000746458729106
0.000746598627643
0.000738954245622
0.000624036245314
0.000624037788514
0.000587778525023
0.00058777799396
0.00058625287096
0.000586252295531
0.000586251578063
0.000586249454945
0.000586247920171
0.000586247134601
0.000586288509048
0.000586287503153
0.000586814451339
0.000586812338979
0.000592210558959
0.000605965157288
0.000666532265158
0.0006665295602
0.000729885457501
)
;
        source          uniform 0;
        value           nonuniform List<scalar> 
60
(
791.194735344
791.20864534
791.244944109
791.246167901
791.238498681
791.236427039
791.178389003
791.151784732
790.983579554
790.92074603
790.870703698
790.842859677
790.82706872
790.819088552
790.819554636
790.817845951
790.85023456
790.853828064
790.915227674
790.950914605
791.016803453
791.054744305
791.12448422
791.131995019
791.218793882
791.22109048
791.32059922
791.317711292
791.413538668
791.410258423
791.491938662
791.45700323
791.509485695
791.498830859
791.58121154
791.579289351
791.655628533
791.654962356
791.731342458
791.731632098
791.828587492
791.945055887
791.968449141
792.040699596
792.010035418
792.036019493
791.971444423
791.979023414
791.885829969
791.874713015
791.785813907
791.777352061
791.675055046
791.676208202
791.514680652
791.48595761
791.37836188
791.315063015
791.298341835
791.231615056
)
;
        kappaMethod     solidThermo;
        Tnbr            T.liquid;
        region          solid;
        otherPhase      gas;
    }
    procBoundary0to1
    {
        type            processor;
        value           nonuniform List<scalar> 5(792.644081463 792.531472405 792.311223544 791.982443819 791.524722659);
    }
    procBoundary0to3
    {
        type            processor;
        value           nonuniform List<scalar> 5(792.308186246 792.184460255 791.94754884 791.62882755 791.277606023);
    }
}


// ************************************************************************* //
