/*--------------------------------*- C++ -*----------------------------------*\
| =========                 |                                                 |
| \\      /  F ield         | OpenFOAM: The Open Source CFD Toolbox           |
|  \\    /   O peration     | Version:  2312                                  |
|   \\  /    A nd           | Website:  www.openfoam.com                      |
|    \\/     M anipulation  |                                                 |
\*---------------------------------------------------------------------------*/
FoamFile
{
    version     2.0;
    format      ascii;
    arch        "LSB;label=32;scalar=64";
    class       volScalarField;
    location    "0.095/water";
    object      alpha.gas;
}
// * * * * * * * * * * * * * * * * * * * * * * * * * * * * * * * * * * * * * //

dimensions      [0 0 0 0 0 0 0];

internalField   nonuniform List<scalar> 
6000
(
0.187153361821
0.112449314508
0.03193133065
0.00814621705553
0.00159739781889
0.000266026823922
3.71969265956e-05
3.45863934131e-06
8.93067940116e-08
7.817964972e-10
3.59705171486e-12
1.25345082658e-14
1e-15
1e-15
1e-15
1e-15
1e-15
1e-15
1e-15
1e-15
0.613303650933
0.275011085127
0.118292473567
0.0420909402113
0.0140026525305
0.00398888000181
0.000969107117387
0.000182665260421
2.03207866357e-05
5.68273905873e-07
2.13394494195e-09
3.92820626359e-12
6.4650862805e-15
1e-15
1e-15
1e-15
1e-15
1e-15
1e-15
1e-15
0.613304089033
0.356579787851
0.182655229717
0.0812903848006
0.0329085868437
0.0116927385818
0.00350764533264
0.000830754277734
0.000130810313482
8.73767019165e-06
7.01298677014e-08
1.06457530119e-10
1.24956255235e-13
1.03197894741e-15
1e-15
1e-15
1e-15
1e-15
1e-15
1e-15
0.613303650933
0.429445774956
0.257892023929
0.135655145509
0.0633319354533
0.0257242943137
0.00880201231546
0.00240512792316
0.000477206664597
5.37598056655e-05
1.4805954915e-06
2.51472236881e-09
1.98671110608e-12
2.18700512084e-15
1e-15
1e-15
1e-15
1e-15
1e-15
1e-15
0.602111717048
0.474817738042
0.333145293348
0.205920438113
0.111319407729
0.0513736459517
0.0196889122925
0.00601499173314
0.0013933565294
0.000211059147689
1.26170426283e-05
5.64086102534e-08
3.41946659109e-11
1.56404663397e-14
1.00094230841e-15
1e-15
1e-15
1e-15
1e-15
1e-15
0.579253172063
0.492706924112
0.390798541775
0.279148322677
0.175478573335
0.0942561365235
0.0418381333025
0.0146874498341
0.00389005073287
0.000699683882175
6.02268605237e-05
8.22951701445e-07
4.64659778558e-10
1.50269250022e-13
1.03805882732e-15
1e-15
1e-15
1e-15
1e-15
1e-15
0.558172832327
0.491719469369
0.422467404031
0.337441712566
0.242348465361
0.151638270665
0.0800462605121
0.0339090494452
0.0107147837181
0.00222978205203
0.000230451781998
6.09175664247e-06
4.56644002686e-09
1.203691373e-12
1.28119674758e-15
1.00146818208e-15
1.00143899826e-15
1.00123164692e-15
1.00107705403e-15
1.00083426056e-15
0.549895169899
0.488686811964
0.43477901963
0.373104647868
0.295936356051
0.210808823697
0.13116300656
0.0679838187615
0.026737710822
0.00675611072926
0.000831698836135
3.16687564425e-05
9.02058166151e-08
1.45639662449e-11
4.14903734228e-15
1.00377122247e-15
1.00233640219e-15
1.00200763476e-15
1.00176892325e-15
1.00145838467e-15
0.542475891914
0.485528471606
0.445963142852
0.399074792729
0.337142918296
0.26334977143
0.186648896373
0.115516272102
0.0565989848643
0.0181405847955
0.00283570373254
0.000148754699875
1.35142569605e-06
1.66597061505e-10
3.97471981184e-14
1.01799732819e-15
1.00204617446e-15
1.00176755018e-15
1.00157981045e-15
1.00133176103e-15
0.536729296495
0.487097227323
0.460241426045
0.423611262786
0.371663066331
0.307931371571
0.239633539087
0.170050971444
0.100858469234
0.0413520320957
0.00867850333381
0.00066183573082
1.31322991535e-05
4.75976694983e-09
1.00964832299e-12
1.28627187458e-15
1.00106379012e-15
1.0010575196e-15
1.00104272516e-15
1.00094586464e-15
0.539913885964
0.496440586237
0.476667548759
0.445484650711
0.400012053592
0.344591429334
0.285979960727
0.224252290483
0.154517612993
0.0792304536541
0.0227616481917
0.00263692904011
9.73406136636e-05
7.24200761156e-07
2.37486340984e-11
6.36087057547e-15
1.0011592042e-15
1.00055017289e-15
1.00055079854e-15
1.0005502641e-15
0.556597041554
0.511661220878
0.486122067609
0.455195623949
0.416858061186
0.370577586793
0.322669081415
0.271545284306
0.208091256774
0.127442125658
0.048999226424
0.00866307467332
0.000568469926229
1.19667459649e-05
1.04055146962e-08
3.06596846346e-13
1.03405544225e-15
1.00055027592e-15
1.00055017289e-15
1.00061305156e-15
0.582663287374
0.523459768741
0.485516653295
0.452575723724
0.417229532557
0.382568559319
0.347760752379
0.308163569778
0.253388356102
0.175140485047
0.0850777369448
0.0222642367783
0.00251846737367
0.000106847578898
9.85357853206e-07
5.89276597378e-11
6.78258010646e-15
1.00148746766e-15
1.00204090983e-15
1.00209575433e-15
0.608142267265
0.527361838856
0.485139773101
0.448105095526
0.414962311041
0.387346246374
0.36454140042
0.336253914471
0.288523791772
0.214177206544
0.123114968357
0.045188902167
0.008485614192
0.000661360584217
1.43981053817e-05
1.08189491824e-08
5.8071277939e-13
1.07460041181e-15
1.00566244692e-15
1.0050491301e-15
0.610441292527
0.52731446166
0.485986895856
0.446569588491
0.413241551631
0.391062620174
0.37819980153
0.359197576092
0.315245406117
0.24282183302
0.157178085122
0.0764345739776
0.0225637307616
0.00297504339817
0.000111661889946
5.26076486577e-07
1.85071507432e-11
3.70239639812e-15
1.01489066072e-15
1.00824255359e-15
0.608553094408
0.526642877307
0.486564287197
0.447205768844
0.414367519497
0.396780640629
0.390301553624
0.374904045341
0.330271524706
0.260133255784
0.185627904331
0.114094141303
0.0490957797644
0.0100047860592
0.000567559103791
4.99915046993e-06
3.01641158515e-10
3.79335690944e-14
1.08432245e-15
1.01892595244e-15
0.611704457891
0.52624403173
0.486534554007
0.449476530766
0.419640020582
0.405511480389
0.399276687493
0.378575897589
0.330163496745
0.266842427677
0.20932158085
0.156747653739
0.0900554483473
0.0255476038536
0.00198452170746
2.46738617077e-05
1.02077083982e-08
3.40453016038e-13
1.75443002661e-15
1.1192199784e-15
0.608553094408
0.526347554098
0.48659901237
0.453856761841
0.428644669948
0.415003257516
0.403422660958
0.376560116829
0.325188616162
0.266402170092
0.231295996017
0.204089824402
0.142758077845
0.0503661991996
0.00493508322311
8.09763046597e-05
1.2564249872e-07
7.40140310125e-12
9.19809123508e-15
2.11691167116e-15
0.611843190551
0.526667118151
0.492708138075
0.463541631406
0.439918371306
0.422610088935
0.403161139514
0.368929673485
0.313139735836
0.265124853943
0.256832073207
0.253515002135
0.197946496481
0.0792836708516
0.00963907186722
0.000233783670478
1.12294662642e-06
2.27994810196e-10
1.15176833287e-13
1.11633805403e-14
0.608553094408
0.528839767798
0.506160812773
0.479816294339
0.452714746588
0.427182325541
0.398793112318
0.354701440151
0.298957694237
0.271765100641
0.288373154324
0.302533561548
0.242986042791
0.107151115692
0.0174074668019
0.00078459136199
1.04630335494e-05
1.21972196443e-08
3.09672012217e-12
8.59910930157e-14
0.612124486082
0.532529946341
0.523390583944
0.500757502193
0.466923615803
0.429518040036
0.389017151057
0.337094619081
0.295160484693
0.290776353812
0.33088759309
0.343391050476
0.273986316869
0.136429933753
0.0328801777952
0.00309099530331
9.31327954665e-05
4.88661520808e-07
7.05736454882e-11
6.55062183175e-13
0.608553094408
0.535452710769
0.534389292366
0.516774265931
0.479728520591
0.431427729595
0.378642558063
0.325861446434
0.297723197314
0.31737510225
0.361690506973
0.358503171122
0.291708444507
0.171902082546
0.0639656231098
0.011513235088
0.000634437606123
5.99824014012e-06
1.13257624929e-09
4.58667087792e-12
0.612204701321
0.535388582269
0.53525755011
0.519874254566
0.484825371784
0.432199780069
0.373369725418
0.32528644417
0.315297810918
0.345471587627
0.363587982691
0.357782622809
0.302453653985
0.212537218078
0.115540529977
0.0338912689189
0.00293333522256
4.0661705993e-05
3.51184399992e-08
2.99195275818e-11
0.608553094408
0.534555293693
0.535115574035
0.520524532171
0.485555658327
0.431906621207
0.373413795652
0.330932768913
0.335109448621
0.357949067825
0.363603883716
0.352087849574
0.305235996553
0.251602573665
0.177833881643
0.0719171577748
0.00875858139925
0.000170630698504
3.51387431648e-07
1.85552012741e-10
0.611052612145
0.531870955445
0.53496171109
0.521368610512
0.486142163191
0.43193461979
0.376069470865
0.343365635214
0.348882485882
0.358499905457
0.359356870013
0.335708939364
0.300917407225
0.279502321824
0.226457671671
0.109031518027
0.0172282534612
0.000470909255662
1.63058388475e-06
1.06448242278e-09
0.608553094408
0.528008429512
0.534807200739
0.521908376755
0.486861365375
0.433288872627
0.382161828687
0.355422734205
0.353287869195
0.354811665516
0.341203443625
0.307131233524
0.296697564279
0.294767035057
0.252371080849
0.13108573403
0.0252533966295
0.000963769762661
5.09906036818e-06
5.49048212107e-09
0.609722994875
0.525055482082
0.533124473172
0.521011106262
0.487120142601
0.436136033217
0.38902006771
0.361754081582
0.352130442674
0.340343029644
0.30889524846
0.28534165135
0.29641600117
0.318789970812
0.27403907232
0.148151972008
0.0340027711143
0.00183361740432
1.43051194716e-05
2.51027250253e-08
0.608553094408
0.524965557911
0.529501756378
0.518581311402
0.486021245208
0.43678957298
0.391426604909
0.361766561815
0.343473081769
0.314077790872
0.280723802168
0.280501691038
0.321513765868
0.375972195941
0.315903446928
0.182689435092
0.0524044468947
0.00416300726161
4.64044393007e-05
1.22794669081e-07
0.606218872513
0.527049378308
0.532220670227
0.519877554069
0.485824660659
0.436065718381
0.39017766924
0.356192229447
0.32360431659
0.285249934745
0.278468911697
0.294561531674
0.385392978989
0.387890493584
0.381244353745
0.259890473378
0.0993624691491
0.0118281209414
0.000189451189077
7.82869239101e-07
0.599642501122
0.5387050452
0.543803346879
0.528688400164
0.488795971023
0.434576340994
0.384046572082
0.340337715473
0.297107572228
0.278468911697
0.278472934812
0.358433168473
0.387890493584
0.389643679954
0.387890493584
0.362980606066
0.192122467025
0.0338624454543
0.000863384844464
5.03487179539e-06
0.600956528765
0.560312944176
0.567424770742
0.549806105822
0.499887215428
0.435589347793
0.375955387065
0.323050291897
0.280494073213
0.278472934812
0.297295620299
0.387890493584
0.389785851626
0.387890493584
0.389291018821
0.387890493584
0.282259387822
0.0782811353113
0.00361510758272
3.08885820168e-05
0.608951519875
0.583775700846
0.597028055254
0.579834387453
0.522556229631
0.444046139635
0.375992782738
0.319326386994
0.280720146224
0.282576600127
0.343885684575
0.389134902372
0.387890493584
0.389579781272
0.387890493584
0.388659072147
0.335667742465
0.135779955511
0.0112411877918
0.000160041162506
0.617161685829
0.600900460776
0.616264300421
0.604882588815
0.552631701078
0.465899834681
0.384649683537
0.325233104598
0.29670666635
0.313380142563
0.377744601035
0.387890493584
0.388805094265
0.387890493584
0.38911335257
0.387890493584
0.358355804391
0.184084998802
0.0247295178607
0.000617474425104
0.615795889376
0.612200217719
0.615724429611
0.616035071377
0.577557429286
0.497040481525
0.40930901051
0.351077790429
0.342751377786
0.364589697927
0.385742850821
0.383475657838
0.379818703812
0.388543025275
0.387890493584
0.38853356336
0.364625288946
0.210838425537
0.0403791377528
0.00167707570871
0.618004390707
0.615607602161
0.617155202229
0.615724429611
0.590619696349
0.524331338478
0.44546678329
0.396695258916
0.395094328255
0.401028925232
0.388201241953
0.362489529456
0.33999085514
0.362028531544
0.388372550388
0.387890493584
0.36471396115
0.222372148341
0.0531081383664
0.00329449265823
0.615795889376
0.616504584773
0.616014568113
0.616055505585
0.596451848593
0.539852975407
0.473592704841
0.432550888024
0.419981666475
0.408087827787
0.382365474987
0.331709027102
0.295024582994
0.314115015193
0.369241253905
0.388119484297
0.3610687939
0.227039785091
0.0619550081957
0.0051392618882
0.618046630377
0.615427945017
0.61714839289
0.616061185242
0.599294348536
0.545976377244
0.48266292527
0.440932118698
0.422129651876
0.405828084686
0.367639811916
0.305218842204
0.282962086315
0.285629402147
0.327007998232
0.371539124409
0.346596775734
0.230420883127
0.0698987751329
0.00704523969301
0.615795889376
0.616752042769
0.616135361016
0.616830894906
0.601510167911
0.549142574728
0.48373488832
0.440128101821
0.41921679259
0.396256749564
0.347969758087
0.289037481958
0.282991392739
0.282781505794
0.290557496792
0.327581835756
0.32360865792
0.236807668375
0.0790502236035
0.00902296986285
0.6169714976
0.615013199151
0.617961583018
0.616307471432
0.606616224102
0.554659089011
0.484962856023
0.43641488035
0.409418010112
0.378468752827
0.327953266989
0.283389736187
0.282709055593
0.282991392739
0.282646759005
0.28920109471
0.308636761369
0.247083661155
0.0897789784894
0.0111920792642
0.615795889376
0.616748567462
0.616462861501
0.617462225243
0.613825286424
0.564303663997
0.489256396881
0.433987861182
0.398183212258
0.362893427267
0.316516132697
0.282974943339
0.282991392739
0.282214557812
0.282991392739
0.282511293266
0.303308177401
0.265191819191
0.103135897369
0.0138319788474
0.616748567462
0.614949779116
0.618161127141
0.616588668256
0.616565944538
0.575527369961
0.499901895162
0.436517313982
0.396626555952
0.360401985048
0.315885775066
0.282991392739
0.282481533928
0.282991392739
0.281592714717
0.282991392739
0.311349600418
0.298573502091
0.119794909887
0.0175453929897
0.615545577332
0.616748567462
0.616780729058
0.617923120675
0.616588668256
0.587366713285
0.519370080023
0.44882261552
0.401723498719
0.363590316808
0.318647071832
0.282962772165
0.282991392739
0.281633162528
0.282991392739
0.280900187432
0.372039507375
0.357185797394
0.140616048302
0.0239876809261
0.61899308231
0.615288366469
0.61871365845
0.616972259051
0.617098682712
0.599463111757
0.547218336266
0.477854311177
0.422764759875
0.379199762779
0.330030754975
0.283586865603
0.28229846149
0.282991392739
0.280151037273
0.282991392739
0.500143676049
0.429901235486
0.178337604447
0.036593003505
0.621028540879
0.61734501843
0.617349754374
0.618309114177
0.616972259051
0.610445826665
0.577216464992
0.520727761149
0.464832940431
0.414296215515
0.354320835097
0.287871543625
0.282991392739
0.280868230052
0.282991392739
0.361290446671
0.568781013951
0.487565039793
0.243679246634
0.0593801971848
0.624517132113
0.617615826601
0.618591878581
0.617349754374
0.617715180558
0.616124882401
0.598349219603
0.561002242316
0.513248987202
0.457477568412
0.382323793099
0.293521633421
0.282005217377
0.282991392739
0.280121534324
0.526993234878
0.567889091687
0.538711648794
0.318286159528
0.0946766510448
0.62132579879
0.61770683305
0.617349754374
0.618252616078
0.616972259051
0.616827234542
0.607988259109
0.583767557402
0.542824992237
0.482330691465
0.39357254875
0.292922348635
0.282991392739
0.280320445765
0.394912780995
0.567889091687
0.571306967244
0.567889091687
0.388035698394
0.140807755714
0.626105418695
0.613348413779
0.617750430124
0.616972259051
0.617181937249
0.616588668256
0.610740246867
0.589454604927
0.548684636143
0.484344764466
0.39159892733
0.289073679736
0.281746377973
0.322512358979
0.558681488185
0.572538329772
0.567889091687
0.569749191837
0.442658860946
0.195035530063
0.621858531014
0.602681270238
0.616972259051
0.617075045282
0.616588668256
0.616434854567
0.609257037813
0.586789621813
0.544608883383
0.476550968564
0.381086767643
0.293719331639
0.31453254889
0.50687367943
0.572413363856
0.567889091687
0.571787123719
0.567889091687
0.48338859854
0.250025431282
0.626508502438
0.586471021454
0.608006735221
0.614595570014
0.613731471565
0.609303901963
0.596368749446
0.569966505786
0.523670766128
0.451100374534
0.373090789791
0.348281103254
0.46423408449
0.571454392736
0.567889091687
0.572641607283
0.567889091687
0.569948438279
0.506314187358
0.293079830315
0.622073698626
0.567976630054
0.587524621998
0.595517279872
0.59237116541
0.581575316711
0.562472444778
0.531898404559
0.484263052714
0.428935114621
0.394943322477
0.461834962316
0.570146975242
0.567889091687
0.572761518264
0.567889091687
0.571594780079
0.567889091687
0.511483854032
0.311385052598
0.626210844727
0.547678338934
0.559365985536
0.559059411867
0.552393133295
0.538279334944
0.517928344859
0.489075493052
0.45515364273
0.433083583562
0.462844974516
0.566469133572
0.567889091687
0.572455721331
0.567889091687
0.572237088574
0.567889091687
0.569845072717
0.509992831976
0.311518758073
0.622005856209
0.5248975018
0.527782724033
0.522589359012
0.516578976316
0.506039247354
0.489604440379
0.469152924032
0.454963624624
0.465831258326
0.549989574238
0.567889091687
0.571838055435
0.567889091687
0.572357707271
0.567889091687
0.571153198483
0.567889091687
0.502123357213
0.304663943197
0.625487078444
0.499682646783
0.496385313113
0.494744675037
0.497689627162
0.493631517668
0.48173583028
0.469142947442
0.468979899599
0.513024253166
0.567889091687
0.571060271319
0.567889091687
0.572117766804
0.567889091687
0.571597600135
0.567889091687
0.569084188875
0.481698840839
0.285260348077
0.621594395281
0.472967649509
0.472518254052
0.478451759795
0.489976637965
0.48823796064
0.479153005945
0.471975742772
0.487206047376
0.543514562856
0.570136596913
0.567889091687
0.571545092744
0.567889091687
0.57167339969
0.567889091687
0.570022692514
0.567889091687
0.443757332668
0.253759228651
0.621621981793
0.444378535149
0.452519865616
0.468527033717
0.483052363302
0.480158256155
0.471615302842
0.469744073113
0.492184643886
0.553061603485
0.567889091687
0.570811818997
0.567889091687
0.571480289092
0.567889091687
0.57044489092
0.567889091687
0.545179398205
0.387572010312
0.216921247691
0.59980765418
0.412773262089
0.432610845584
0.456637647722
0.467747396554
0.459226250429
0.448155903634
0.453961791315
0.489337822085
0.55345425777
0.569755065505
0.567889091687
0.570952194905
0.567889091687
0.570463041389
0.567889091687
0.568484649103
0.49642541911
0.325291735412
0.182770578766
0.552051234397
0.394553888786
0.410066799295
0.434156948708
0.435762506065
0.415445234734
0.403491866373
0.420995400914
0.477634519658
0.549485404296
0.567889091687
0.569931178438
0.567889091687
0.569961940113
0.567889091687
0.568520454914
0.555997979258
0.432193999224
0.270694714634
0.15604992736
0.496323595507
0.392516512298
0.39170903522
0.400195909818
0.387243754466
0.353690576309
0.348485320026
0.379490188394
0.452160078081
0.527122846458
0.563297000119
0.567889091687
0.568852732923
0.567889091687
0.568398348944
0.557852313138
0.494792058491
0.358854750459
0.231622869045
0.13902982717
0.430215046803
0.391407588012
0.390286728681
0.38916789269
0.34606797599
0.30660944817
0.306272352261
0.332430739184
0.401126317106
0.471362625178
0.518473556409
0.537785090537
0.542049888958
0.540762525414
0.526412536058
0.485400653406
0.393908806
0.293086126431
0.209135048973
0.130618510188
0.414621417206
0.403913181857
0.429370984206
0.416106264534
0.348032089914
0.301490128376
0.290997032826
0.291323566985
0.319672836599
0.365950339009
0.408041464615
0.432414168539
0.438780956475
0.43298851103
0.404777014995
0.354785946251
0.2940849915
0.248126336502
0.198690255782
0.126854556916
0.495142915974
0.562222280237
0.567017387159
0.522354331908
0.437018417946
0.365563208524
0.315711893384
0.292370527395
0.27316625463
0.263483023833
0.265900514553
0.275101315908
0.278870364895
0.273636246232
0.253801320101
0.234472483726
0.226873841228
0.221961493228
0.193989571272
0.126838112788
0.697443379215
0.739521035807
0.719099963315
0.688357307698
0.6464681979
0.589722880134
0.507371252129
0.410751354451
0.323257923278
0.268743785549
0.234320467207
0.200472740718
0.175317181611
0.166180825283
0.163126007729
0.168825375885
0.188260486349
0.2031006595
0.190502955998
0.133132274646
0.809736119294
0.796817989715
0.786969909251
0.781714639673
0.775527656364
0.7609809265
0.72682259566
0.657459270757
0.532983224529
0.387485127153
0.285509373936
0.21884745727
0.172729355755
0.148208319551
0.144699246416
0.147183336557
0.162045629229
0.183514996844
0.185618116934
0.14549322658
0.820691296242
0.803144068888
0.802022949086
0.802116943248
0.802168004668
0.800340890311
0.79174110903
0.765687964828
0.69920877707
0.567386291456
0.422281213241
0.30170172128
0.206759648338
0.152280382333
0.143997030184
0.143966025671
0.147226193208
0.162746502478
0.176096505836
0.151710592906
0.819504261815
0.803818469667
0.803664929868
0.803525096892
0.803382400273
0.803194228517
0.799482505077
0.780622504683
0.731637148574
0.640337501481
0.518151637202
0.3906078437
0.268784036364
0.170630086082
0.14388248887
0.143997030184
0.143878201374
0.148093409061
0.162957136578
0.151414196805
0.821567075276
0.801707099026
0.80350525899
0.803382400273
0.803194228517
0.803063313927
0.799955512618
0.78045403159
0.7322523257
0.649633367417
0.542613568648
0.425598597526
0.30487689781
0.191929094415
0.143997030184
0.14367616024
0.143997030184
0.143798501482
0.150072658214
0.148173989891
0.820002179189
0.794858303741
0.801775952345
0.802853620011
0.803063313927
0.802827084229
0.796470643496
0.772711760918
0.723527183867
0.64463156672
0.542549511251
0.429832974328
0.311716888088
0.197863116625
0.143913694555
0.143997030184
0.143355400991
0.143997030184
0.143771354265
0.146979913709
0.820847560669
0.786054193222
0.793958117779
0.7959577816
0.798035618731
0.795349346837
0.78118654111
0.748015938451
0.693797510521
0.618981321539
0.526518832147
0.420991565921
0.306055394645
0.193739297302
0.143997030184
0.143507357829
0.143997030184
0.142999414824
0.143997030184
0.152210135514
0.819445290022
0.780464580048
0.778011315543
0.777000485316
0.7782718792
0.770885981424
0.746446708205
0.701481963477
0.640100726469
0.566789877291
0.482853504147
0.386853302511
0.278661959081
0.174553023794
0.143785026553
0.143997030184
0.142737698858
0.143997030184
0.165164049515
0.167183096688
0.820697179623
0.772363397764
0.754241290677
0.744969424809
0.739219196793
0.722887626577
0.687601709418
0.633903602693
0.568264233506
0.495861037319
0.416844530261
0.326949442671
0.226247481237
0.149332075177
0.143997030184
0.142860342698
0.143997030184
0.145853577173
0.236193404342
0.176534475488
0.818911533948
0.753347902356
0.722406355914
0.700307345599
0.679709439934
0.649438845479
0.60584903376
0.549712101433
0.48545881586
0.415831516796
0.339116202641
0.251736873242
0.167408449474
0.143997030184
0.143139308338
0.143997030184
0.142734432264
0.250081122161
0.302393415473
0.160126932209
0.818936089207
0.721694562324
0.67912961832
0.63935522513
0.599750291186
0.555584900608
0.507885486388
0.455399496972
0.397238731539
0.331647956244
0.255527497551
0.176783039752
0.143997030184
0.143464526112
0.143997030184
0.142737698858
0.208173379842
0.418721083389
0.313126263961
0.125861347516
0.807307035021
0.675283954019
0.614240047194
0.554398401807
0.49994457896
0.449731628037
0.404434561775
0.358841811209
0.306975675271
0.244071965826
0.175401470891
0.144052215616
0.143613913219
0.143997030184
0.142745671354
0.194013361673
0.444160231598
0.448344497235
0.291833944474
0.109489292598
0.773707944154
0.591121966159
0.520917681469
0.449501396712
0.393668885775
0.348994507383
0.30992766412
0.268595544479
0.2191378983
0.164806351087
0.143997030184
0.143458311927
0.143997030184
0.142755471552
0.219572669374
0.440789314755
0.534728634419
0.44650012688
0.259880339003
0.103677493873
0.698732815033
0.467739947373
0.411070548588
0.354389758292
0.313778683142
0.276925232394
0.238016376191
0.197423910285
0.164434410075
0.14625685168
0.143904135662
0.14718754397
0.184680358855
0.295324949272
0.47441095503
0.557074747293
0.535836383536
0.41536815554
0.234845521759
0.100976156828
0.565320111317
0.352668271652
0.340379007545
0.319748749334
0.286506977138
0.242277257337
0.202137862821
0.177932395013
0.165699955618
0.170403877792
0.209353036993
0.293940245874
0.412093673663
0.520795436136
0.558268687642
0.557788664608
0.52795703948
0.386304110278
0.220798143054
0.100519760252
0.43614899846
0.345835740115
0.343534108456
0.329095883665
0.288374837336
0.238951186725
0.204657950711
0.199043858525
0.235194024102
0.330077767737
0.432945084652
0.508592670389
0.55031877571
0.558365641336
0.557788664608
0.558562502658
0.518541250886
0.377230829543
0.220382754669
0.103752288914
0.439026452195
0.432829846339
0.442044855205
0.415385479795
0.349754115782
0.294613731457
0.273625205543
0.298334129979
0.385727776912
0.479871597217
0.531250566032
0.554723230267
0.557922319939
0.557788664608
0.558468980688
0.557788664608
0.519352331729
0.383957732459
0.2346235664
0.114700907614
0.574576041096
0.649378219718
0.643648236552
0.618894075412
0.563704869989
0.519407822822
0.481986934385
0.460191316351
0.468585148721
0.493083957864
0.525674724607
0.548102508827
0.557376823456
0.558002817397
0.557788664608
0.558331628037
0.528541116501
0.413561984042
0.272303551203
0.137871211397
0.745847734225
0.779720802928
0.777070544749
0.774117648591
0.76154855828
0.748894156604
0.724642764265
0.663968064828
0.570176768507
0.517335929619
0.519911226229
0.524833767344
0.542990535842
0.555263959126
0.557996215632
0.557788664608
0.540489035604
0.45657851749
0.325373132074
0.175687154572
0.806900013333
0.809848810082
0.81344644621
0.816462015024
0.817615460351
0.816570524838
0.813412886544
0.794340294569
0.730257022164
0.622810647383
0.540456919362
0.521032683473
0.521254833328
0.535472963611
0.551601521148
0.55668376084
0.542205558307
0.488560955783
0.376535679925
0.223563030808
0.818106291181
0.816122402027
0.81798545537
0.818821141129
0.817906970074
0.819004006899
0.817812202474
0.818338435686
0.807978861673
0.755773531239
0.649153981438
0.552001779306
0.518279422442
0.514495160171
0.526523082896
0.540304447772
0.536682369437
0.500222977649
0.413398896291
0.269595768082
0.818119973647
0.818082717212
0.818540934658
0.81798545537
0.819166769287
0.817906970074
0.819089406099
0.817812202474
0.818133032843
0.801489355265
0.745913677375
0.64179359389
0.548681597979
0.511615570098
0.499225438626
0.513161085456
0.520294586751
0.499918384874
0.43371155654
0.304145580531
0.818146907346
0.818108188468
0.818000913834
0.818794742478
0.817920599293
0.819122031952
0.817829514461
0.818813021391
0.817742874022
0.808415085278
0.772536162335
0.702118559733
0.607507000419
0.529309251536
0.489825040404
0.48943433383
0.498281361525
0.492147757888
0.440040085777
0.325620534288
0.8180100685
0.817151733248
0.818132524825
0.817920599293
0.818917978533
0.817829514461
0.818989781937
0.817742874022
0.818184882682
0.809933623852
0.777221040296
0.717734689048
0.641135592602
0.557267128624
0.491312223408
0.470224619377
0.476083586314
0.476206329897
0.438958618266
0.33602316998
0.818000913834
0.812489088904
0.816261090378
0.81811622474
0.817829514461
0.818819643734
0.817742874022
0.818517953466
0.81763147875
0.810459617917
0.778026805015
0.720851753386
0.651595970057
0.571220674385
0.491858713074
0.452246099965
0.454572153647
0.457966221016
0.431853582102
0.337756104272
0.812268192063
0.802652272135
0.80814187766
0.816323252554
0.818227091019
0.817742874022
0.818518165263
0.81763147875
0.817885636112
0.810282836062
0.777525447194
0.721021999207
0.654306596765
0.574140456856
0.488305621642
0.434311247312
0.43420910002
0.440514187678
0.420226929061
0.334290742792
0.799917217971
0.788504679009
0.793485280195
0.807677286684
0.817742874022
0.818185224172
0.81763147875
0.817989662876
0.81753039012
0.808642377487
0.77435842837
0.71930847999
0.65383687415
0.572496024072
0.479173873257
0.415988003422
0.415459427959
0.425660137223
0.408117648253
0.324665895853
0.786499002331
0.771685718615
0.775176570988
0.79214104893
0.813746092433
0.81763147875
0.817912657853
0.81753039012
0.817550301787
0.803100277568
0.766032388572
0.713140228872
0.64894395069
0.564025629052
0.463971143494
0.397367892867
0.39875792127
0.414257604834
0.397248162676
0.311235368293
0.774494202461
0.752956713914
0.755521577671
0.774105650405
0.80278562062
0.816245963905
0.81753039012
0.817324693675
0.812673578501
0.791114882818
0.751968070007
0.701363665312
0.636563640362
0.546630060665
0.442553004442
0.378770088145
0.384425239295
0.406376294866
0.387548965476
0.295178255191
0.762489936004
0.732278107141
0.736243072335
0.75713243235
0.787819132853
0.807220702244
0.811609899451
0.809832525515
0.798555600676
0.772258531884
0.733291201124
0.684240731265
0.616664081374
0.521271480103
0.415463825462
0.361115239156
0.373360806873
0.401864745833
0.378278863493
0.276013035224
0.748886026939
0.710171495867
0.719373997657
0.742425360461
0.770108850414
0.787800533961
0.792775376279
0.78913822953
0.773849190605
0.747255911264
0.71065355869
0.661648800444
0.589581047634
0.488803432808
0.384331193898
0.34653999349
0.366831170847
0.399703701912
0.368173960701
0.253018883986
0.731867087342
0.68895678595
0.706626120507
0.729376722509
0.74939263441
0.758439255178
0.7594389687
0.753772991434
0.738902046342
0.715866152871
0.682639199609
0.631987747565
0.553943517145
0.449360560817
0.353611232818
0.336911105557
0.36504908146
0.398412641005
0.355747145625
0.225600168883
0.705619956686
0.675508627779
0.697190107958
0.717610189654
0.726030610546
0.721486032965
0.712495006699
0.704491165907
0.693451989057
0.676141602688
0.645847848263
0.592016265797
0.507391986365
0.403889776597
0.332593745125
0.33126398185
0.366296972158
0.398842053156
0.34006349073
0.193565025949
0.676061765049
0.666758734496
0.690860683802
0.708311008152
0.70479449937
0.679620906713
0.654188626595
0.643854594114
0.63749617396
0.625408044349
0.596560760058
0.538917273709
0.450344607754
0.358271563579
0.328256483448
0.328351919804
0.372270211304
0.401331826347
0.320124233452
0.158451346655
0.657850788876
0.661321310978
0.687080225408
0.702848403378
0.690804919774
0.643644553031
0.595324350993
0.576975174598
0.571627937301
0.561973031851
0.533661181075
0.474197276021
0.390482967431
0.330898649418
0.328351919804
0.328628963119
0.390943221623
0.408893950676
0.295589718221
0.125267120826
0.657613224451
0.657648372552
0.683355471553
0.700453783297
0.685570266989
0.628740139116
0.557231245043
0.518608877382
0.504950475607
0.49285865706
0.464453445166
0.408926029373