/*--------------------------------*- C++ -*----------------------------------*\
| =========                 |                                                 |
| \\      /  F ield         | OpenFOAM: The Open Source CFD Toolbox           |
|  \\    /   O peration     | Version:  2312                                  |
|   \\  /    A nd           | Website:  www.openfoam.com                      |
|    \\/     M anipulation  |                                                 |
\*---------------------------------------------------------------------------*/
FoamFile
{
    version     2.0;
    format      ascii;
    arch        "LSB;label=32;scalar=64";
    class       volScalarField;
    location    "0.34/heater";
    object      T;
}
// * * * * * * * * * * * * * * * * * * * * * * * * * * * * * * * * * * * * * //

dimensions      [0 0 0 1 0 0 0];

internalField   nonuniform List<scalar> 
75
(
799.776401896
799.605045574
799.200649603
798.451083225
797.256985333
799.776287426
799.606857976
799.21102005
798.491399524
797.373668195
799.776042722
799.610922325
799.229806057
798.543336723
797.459813972
799.771201877
799.607204111
799.233443655
798.558693735
797.411915252
799.77320674
799.611209046
799.241463028
798.568875961
797.429577625
799.780993248
799.623740897
799.261648789
798.594445702
797.496870786
799.787120216
799.633961538
799.278257961
798.611305889
797.496334495
799.785167109
799.631353561
799.274527839
798.6041279
797.449320501
799.778168421
799.617958374
799.244529883
798.54823251
797.406602303
799.769531216
799.600895997
799.20408472
798.461047378
797.275984562
799.758406037
799.579245848
799.153411814
798.344026206
797.048698659
799.7459659
799.556818825
799.10962105
798.266937723
796.90323046
799.7443637
799.553617614
799.103453601
798.264217796
796.938827548
799.747034775
799.558336182
799.11886282
798.324309122
797.108724235
799.751599389
799.568248395
799.147224143
798.405608316
797.283375377
)
;

boundaryField
{
    emptyPatch
    {
        type            empty;
    }
    minY
    {
        type            zeroGradient;
    }
    maxY
    {
        type            zeroGradient;
    }
    minX
    {
        type            zeroGradient;
    }
    heater_to_water
    {
        type            compressible::turbulentTemperatureTwoPhaseRadCoupledMixed;
        refValue        nonuniform List<scalar> 
30
(
778.198159697
780.923787101
780.923525678
781.186374274
781.304329508
774.86775661
774.867996491
772.346414431
772.346357615
778.78685599
778.78666241
782.515787882
782.580437538
777.133100535
777.133301241
780.177469275
780.177605786
783.203237188
783.20348536
783.061077898
782.764921895
777.759051538
777.759568927
779.963877491
779.963795501
780.350855747
780.350422876
780.124502518
779.435739983
781.931348032
)
;
        refGradient     uniform 0;
        valueFraction   nonuniform List<scalar> 
30
(
0.0257052650917
0.026523772976
0.0265237871615
0.0265492008666
0.0265487633819
0.0246439552701
0.0246439430107
0.0239740865814
0.0239740894261
0.0257357515458
0.0257357617934
0.0269140434088
0.0269135796841
0.0251993425807
0.0251993321456
0.0260787012481
0.02607869395
0.0270884143618
0.0270884006834
0.027136966251
0.0271359670655
0.0255135381284
0.0255135109435
0.0261158955412
0.0261158999332
0.0262358889926
0.0262359122679
0.0262346080951
0.0259794719699
0.0265791299638
)
;
        source          uniform 0;
        value           nonuniform List<scalar> 
30
(
796.767017794
796.823711963
796.937302258
796.943862621
797.030877684
796.903028112
796.856342484
796.810991045
796.82821376
796.949776698
797.015303691
797.093623696
797.094846761
796.98314675
796.937337299
796.998859998
796.957236436
797.021799582
796.894709896
796.890161954
796.661004916
796.556461715
796.414725858
796.460761554
796.49542355
796.503541612
796.668995034
796.663089958
796.819664953
796.87529359
)
;
        kappaMethod     solidThermo;
        Tnbr            T.liquid;
        region          solid;
        otherPhase      gas;
    }
    procBoundary1to0
    {
        type            processor;
        value           nonuniform List<scalar> 5(799.759500699 799.583616007 799.179612024 798.467372493 797.407102457);
    }
    procBoundary1to2
    {
        type            processor;
        value           nonuniform List<scalar> 5(799.777567896 799.6093965 799.213207863 798.47344598 797.27380975);
    }
}


// ************************************************************************* //
