/*--------------------------------*- C++ -*----------------------------------*\
| =========                 |                                                 |
| \\      /  F ield         | OpenFOAM: The Open Source CFD Toolbox           |
|  \\    /   O peration     | Version:  2312                                  |
|   \\  /    A nd           | Website:  www.openfoam.com                      |
|    \\/     M anipulation  |                                                 |
\*---------------------------------------------------------------------------*/
FoamFile
{
    version     2.0;
    format      ascii;
    arch        "LSB;label=32;scalar=64";
    class       volScalarField;
    location    "0.185/water";
    object      alpha.gas;
}
// * * * * * * * * * * * * * * * * * * * * * * * * * * * * * * * * * * * * * //

dimensions      [0 0 0 0 0 0 0];

internalField   nonuniform List<scalar> 
6000
(
0.172969912968
0.102805783201
0.0287116279352
0.0071116499904
0.00133231279229
0.000206635803586
2.6435903096e-05
2.03119770106e-06
5.00857654012e-08
4.97489629192e-10
2.74538783865e-12
1.16544999144e-14
1e-15
1e-15
1e-15
1e-15
1e-15
1e-15
1e-15
1e-15
0.611209596749
0.262358481798
0.108241680012
0.0365804694221
0.0114590749031
0.00304917507405
0.000691525675988
0.000123139592531
1.2333850748e-05
2.90444825526e-07
1.15720090412e-09
2.11952348776e-12
3.68442812033e-15
1e-15
1e-15
1e-15
1e-15
1e-15
1e-15
1e-15
0.613294019074
0.348800799037
0.172539053267
0.0734423788792
0.0280547008806
0.00931017531971
0.00260712176447
0.000587389223751
8.6993311262e-05
4.6021424427e-06
2.85751104674e-08
4.70644988002e-11
5.37316130537e-14
1.00229157516e-15
1e-15
1e-15
1e-15
1e-15
1e-15
1e-15
0.613295062351
0.426239464216
0.251140491055
0.128682598859
0.0577327237412
0.0221390137674
0.0070700947859
0.00182065774709
0.000336138724548
3.08052730427e-05
4.75372077516e-07
8.77100496951e-10
8.01406931739e-13
1.50805994535e-15
1e-15
1e-15
1e-15
1e-15
1e-15
1e-15
0.600298400844
0.473332117749
0.330788622263
0.203038217375
0.108200912967
0.0484301051262
0.0175977238995
0.00501123352875
0.00104563088557
0.000127879703295
4.65218526079e-06
1.41394035252e-08
1.22561402076e-11
8.44862369419e-15
1.00246592666e-15
1.00006533592e-15
1.00005530326e-15
1.00005434643e-15
1.00006359528e-15
1.00001410182e-15
0.576747730259
0.490758287797
0.390700262593
0.280580956966
0.177312691358
0.0950113707869
0.0411503488676
0.0135713604073
0.00317258193712
0.000455938238433
2.70545857017e-05
2.06669838561e-07
2.46892129011e-10
1.62321084964e-13
1.07169591771e-15
1.000588375e-15
1.00035011502e-15
1.00025159525e-15
1.00015685127e-15
1.00005918137e-15
0.556385401266
0.488769188102
0.421979226646
0.340695304654
0.248622040129
0.157790934229
0.0829577419707
0.0335357721044
0.00941371616431
0.00159743875387
0.000126200799658
2.30912165966e-06
4.3615791225e-09
3.04214919285e-12
2.35162234125e-15
1.00243393297e-15
1.00169220991e-15
1.00153932276e-15
1.0013974169e-15
1.00119582272e-15
0.546424893276
0.481491150321
0.430634671485
0.375309916229
0.303982943118
0.220456525454
0.137081516081
0.0682588693518
0.0242639071973
0.0052137086801
0.000535855855994
1.72230075184e-05
5.70280842617e-08
4.42810454895e-11
2.06844483818e-14
1.00874582116e-15
1.00266713476e-15
1.00198731146e-15
1.00175511976e-15
1.00149290574e-15
0.53229986238
0.46985574405
0.436848025793
0.398933455549
0.344113802304
0.271707924082
0.190640941821
0.113053368638
0.0508612604961
0.0144554265863
0.00202379765237
0.000100061469648
8.35898448801e-07
7.83863191584e-10
3.03336112338e-13
1.07068125531e-15
1.00269927612e-15
1.00200801696e-15
1.00167686955e-15
1.00144497402e-15
0.515400406684
0.463034717925
0.446768067632
0.421285286865
0.375836849316
0.310934394102
0.236411523891
0.159764853366
0.0878961035157
0.0329533313322
0.00647678188298
0.000491840936657
9.39933910385e-06
8.78752817473e-09
1.97594223044e-12
1.29126900753e-15
1.00193113986e-15
1.00157134829e-15
1.0013673307e-15
1.00124401573e-15
0.51258344195
0.471565995365
0.464497703341
0.445557940427
0.403692822308
0.343505224355
0.275702228974
0.204725297567
0.131932122327
0.0633544953899
0.0175978406966
0.00211146244093
7.95015248601e-05
4.25712270581e-07
5.95099628882e-11
5.62538910441e-15
1.00118121859e-15
1.00092522917e-15
1.00095981199e-15
1.00096410354e-15
0.540608958622
0.502588856044
0.487615224214
0.468246879272
0.430151074846
0.375603552652
0.313839997379
0.249330971837
0.180555412061
0.106803815465
0.0414503635013
0.00791560681734
0.000557536271162
9.79079976321e-06
5.94016798478e-10
9.56393042519e-14
1.03085341053e-15
1.0004699057e-15
1.000614234e-15
1.00071445518e-15
0.598050460873
0.534537586118
0.503801445508
0.483695590041
0.452588342954
0.406712585433
0.351554375078
0.292186029324
0.229366226988
0.159407881004
0.0832674303136
0.024890571417
0.00312438105428
0.000118233360649
6.83241939555e-07
5.39193378031e-12
2.94191879115e-15
1.00043044733e-15
1.00045793884e-15
1.00060510862e-15
0.602169147983
0.541549366951
0.515877729722
0.494663270599
0.465839269777
0.425721342356
0.378059548285
0.325277725131
0.270477618597
0.211190703348
0.139021543077
0.0612139157752
0.0129170484082
0.000924813360698
1.53433237633e-05
8.0140253204e-09
6.37506127148e-13
1.07796677853e-15
1.00057206911e-15
1.00069899542e-15
0.59920041948
0.541386051843
0.523937110389
0.501789686687
0.469581627967
0.427395448485
0.382263769918
0.339596938084
0.296805588308
0.252734926863
0.195680502913
0.114744534732
0.0373073257761
0.00459721728512
0.00014875638983
7.0616827892e-07
2.97538649864e-10
7.90371900043e-14
1.01845137654e-15
1.00289034305e-15
0.603535835565
0.537616633421
0.525017879188
0.502920557475
0.468746336202
0.424708841245
0.378967225757
0.338379005304
0.307707143306
0.280138610222
0.241203575477
0.170111324922
0.0758834796094
0.0146852691771
0.000826456936374
9.11171484313e-06
1.14769620233e-08
6.2990553882e-12
3.6957613572e-15
1.00949843997e-15
0.59935933879
0.528993687296
0.520479451771
0.498567757366
0.461799749887
0.414293526177
0.367672064828
0.330922673553
0.309015373115
0.295492138976
0.271182137704
0.21207122692
0.115981380373
0.0317240132874
0.00280343988498
5.31968526478e-05
1.40869346612e-07
1.27015462416e-10
8.05258888068e-14
1.05065218012e-15
0.603373376774
0.515961692044
0.505130540128
0.481132213458
0.441820565276
0.392190777919
0.346430811498
0.316382467363
0.306980068943
0.303872254214
0.288674654264
0.237518502253
0.145965243374
0.0506012309501
0.0062953189314
0.00017825515401
7.89006484701e-07
9.7926855634e-10
7.50275423415e-13
1.40672655521e-15
0.59935933879
0.501303361059
0.484338236453
0.452801476533
0.410010594147
0.360823587161
0.320828963874
0.307058481973
0.307019274888
0.308605410632
0.299795594
0.253799300168
0.166301402444
0.0669037547317
0.0107311261165
0.000419214175564
2.73139551395e-06
4.25149728801e-09
3.63490769446e-12
3.06250858145e-15
0.600587300121
0.488966230867
0.465459404632
0.426590443766
0.38067584237
0.335023263531
0.307143063174
0.3070976902
0.307058481973
0.316914136678
0.311131955827
0.269305991318
0.185240610888
0.0832522594466
0.0164907401066
0.000868579163039
8.11604865353e-06
1.4097996788e-08
1.10139065476e-11
6.41167300803e-15
0.599136118745
0.478937541273
0.452471533292
0.414750240975
0.371135437316
0.329884328895
0.30718843739
0.307143063174
0.317590304827
0.332488540106
0.327834952914
0.291566583565
0.21450149254
0.109350573579
0.0270627697925
0.00199720363735
2.86326309305e-05
4.69714530714e-08
2.56748959686e-11
9.33723434017e-15
0.594666573325
0.468986610188
0.445645783057
0.414285135128
0.373195459554
0.334453481817
0.315917991961
0.321649969017
0.339298953992
0.350785970527
0.346748884976
0.323894172586
0.26662884078
0.161789937667
0.0522047561448
0.00569887674044
0.000136430432115
4.22899154085e-07
1.00906934408e-10
1.23360948977e-14
0.574401175229
0.46554226192
0.449012792402
0.425503644403
0.389929964236
0.355380492212
0.342698244625
0.349668490466
0.359860559811
0.357503150805
0.351327249347
0.349530117952
0.32951111535
0.242731429112
0.106971999199
0.01828157792
0.000784600115509
6.04428526137e-06
1.13594583291e-09
2.9176486011e-14
0.550292096739
0.478705542913
0.480985230616
0.468913504554
0.434435450409
0.396410180651
0.379014517066
0.37490672104
0.366839183999
0.354793231889
0.349667858459
0.349456195112
0.349392053634
0.316643803349
0.193331216813
0.0527488747064
0.00409363875923
6.76399931423e-05
9.64546927853e-08
1.61128128532e-12
0.549546603029
0.526111523267
0.54589675874
0.538756090883
0.496926569085
0.445107523004
0.41204278384
0.39032419578
0.365614194299
0.343687243964
0.337709327802
0.346336503553
0.349320369975
0.34923971241
0.272404998052
0.114108482685
0.0159303450206
0.000535553354934
3.27905147444e-06
5.80986813942e-11
0.570878417573
0.586434895764
0.606882050272
0.598920590083
0.554861838666
0.491078042609
0.439530074393
0.400102298336
0.360888970436
0.325441726583
0.316765269557
0.331056849649
0.348395859752
0.349164232033
0.313818045449
0.180176362503
0.042307679629
0.00267687050208
3.5649475224e-05
7.24177703778e-09
0.619103478503
0.625975010538
0.633033769895
0.628070417085
0.593535625797
0.528741611919
0.463192831084
0.407265696319
0.354500097356
0.31035498907
0.304058121222
0.312619359247
0.335628336462
0.348323171793
0.327792205082
0.22690120276
0.0792885708898
0.00863917545386
0.000206103187156
5.78790851243e-07
0.662146865946
0.640253969031
0.641099099782
0.637018638719
0.611113305242
0.551380910826
0.479175251003
0.410440254042
0.347518188349
0.304551367544
0.30185407818
0.304001763292
0.317076747238
0.337089901694
0.326396673851
0.256004650981
0.117374883139
0.0196371719582
0.000771925903079
5.18355796929e-06
0.665987964835
0.643118925731
0.642917635859
0.641299017444
0.618218915157
0.560473448063
0.48502864773
0.409373011039
0.338079762397
0.302137339829
0.301710976045
0.301719536294
0.306214831287
0.317821231542
0.321635220446
0.277634843696
0.153848100207
0.0356186524953
0.00212849931636
2.43471693006e-05
0.663804762741
0.643232847191
0.642955788098
0.642665973643
0.620455831441
0.562025076526
0.484365568052
0.402193467837
0.325481989021
0.301720825041
0.301689300035
0.301449370927
0.302005921006
0.307805718571
0.320151346081
0.297458454469
0.191811137369
0.0574739961415
0.00494366518415
8.60286844287e-05
0.667842273298
0.640871555565
0.642665973643
0.642354873766
0.618724564363
0.557998391144
0.475887794214
0.386959638398
0.313449155497
0.301689300035
0.301284489785
0.301533236753
0.301382084892
0.303462600582
0.321678750045
0.317497344165
0.231747414055
0.0866174857777
0.0105125067335
0.00027042822576
0.663995137302
0.634873530887
0.641363605967
0.638136708224
0.608610119762
0.542743360401
0.455540559052
0.364623476548
0.304906792051
0.301405683243
0.301533236753
0.300871394975
0.301533236753
0.30143535204
0.324897415957
0.343651432862
0.271464742132
0.12289347574
0.0205666120666
0.000770505841662
0.669459643581
0.625176382125
0.632479974082
0.624089177679
0.587074171392
0.516011095338
0.426282270549
0.338392803862
0.301609198093
0.301533236753
0.300879102643
0.301327818546
0.300790175501
0.301533236753
0.331478070711
0.360217909785
0.304704666505
0.162907960761
0.0360926710894
0.00191179158582
0.663995137302
0.612504777476
0.617788108196
0.602503056487
0.557339767913
0.481681029226
0.392709948136
0.31575085566
0.301533236753
0.301014344956
0.301327818546
0.300402663597
0.301327818546
0.300999090397
0.341162456552
0.360546383325
0.325742446708
0.199488108139
0.0558897381614
0.00406705254273
0.669738486043
0.598138483745
0.600215118375
0.576618234935
0.522248875947
0.44240749324
0.356833877309
0.302931481277
0.301200393928
0.301327818546
0.300418950899
0.301172962398
0.300302618479
0.301327818546
0.354411230096
0.360217909785
0.337516933179
0.227407543919
0.0771622890154
0.00753913981664
0.663995137302
0.583960964766
0.578566344056
0.54550817461
0.482979737335
0.401296799875
0.32356449059
0.301323773705
0.301327818546
0.300495194697
0.301172962398
0.300047934476
0.301172962398
0.309839686282
0.360217909785
0.360543480771
0.344244653935
0.248641626362
0.0987010286024
0.0126544342081
0.669701204463
0.568437289059
0.550563824074
0.508308522516
0.441169565825
0.36309898065
0.304018856531
0.301327818546
0.300564682826
0.301172962398
0.300019383388
0.301159762438
0.300054814588
0.32895944675
0.360524253494
0.360217909785
0.349420247197
0.267587320059
0.121590517062
0.0200729881904
0.663995137302
0.549797094164
0.515194322037
0.464861031309
0.398346234384
0.330749912967
0.301327818546
0.300673598064
0.301172962398
0.299979118771
0.301159762438
0.29994470113
0.301159762438
0.347521029632
0.360217909785
0.360404391798
0.354272156549
0.286034432885
0.147740984507
0.031013684794
0.6684208071
0.526361503577
0.479152794924
0.421413249297
0.36073684133
0.309697615856
0.300852854393
0.301172962398
0.299979118771
0.301159762438
0.299913707311
0.301159762438
0.307810323636
0.353161743691
0.360398151789
0.360217909785
0.35858760918
0.307957208772
0.182322064571
0.0475734578983
0.663995137302
0.497609221193
0.4446443004
0.387416959089
0.340109860872
0.306062362224
0.301327818546
0.300126958988
0.301159762438
0.299934468566
0.301159762438
0.300099520833
0.317464842966
0.346192493902
0.355744928297
0.359655164691
0.365249937929
0.344276824202
0.231217996568
0.0714568633289
0.665123735462
0.460309513289
0.41312799207
0.370120110226
0.338556926809
0.313134093024
0.306438751013
0.311558215245
0.319301288619
0.319226319782
0.307270260985
0.301167899412
0.311304024398
0.325238729597
0.33803195219
0.354044530349
0.385068752615
0.389014612531
0.278804059289
0.102238332334
0.655313811429
0.415467103233
0.390867729596
0.368859005047
0.349987893322
0.341036029366
0.341820523582
0.346649873713
0.342397564285
0.324719855116
0.304390623729
0.293471434701
0.294267465646
0.299930285782
0.313700451793
0.350486206709
0.391356457391
0.390423802095
0.315306366649
0.141265313316
0.597164647728
0.389494856389
0.388226900186
0.383026099499
0.383147832901
0.378892661787
0.36968824895
0.356636122585
0.339952176022
0.315741233332
0.291321231161
0.279794110189
0.27935690681
0.282674405832
0.294737703144
0.34601021896
0.390423802095
0.391567312828
0.365507937062
0.192620306908
0.50315296831
0.390007135595
0.40420627537
0.43235410871
0.419374054004
0.39186814467
0.369183588318
0.350154181868
0.324921442658
0.29666589254
0.276798414976
0.270119869456
0.270957992827
0.273044899558
0.282944058618
0.33928885524
0.391674985005
0.390423802095
0.391004207082
0.245061480839
0.448965608234
0.418903217957
0.480164192968
0.493907628529
0.437553409911
0.387898570305
0.357633893485
0.331602768591
0.303202079942
0.279628902263
0.266985965172
0.263722006616
0.265433416217
0.266703037807
0.273777390043
0.329879242495
0.390423802095
0.392300712027
0.390423802095
0.291105751998
0.450599832384
0.536168755636
0.574988911317
0.5465692572
0.456720837202
0.385614826167
0.34329825157
0.313121190732
0.28735918896
0.268427680605
0.259605358255
0.257832020041
0.260634830283
0.261424290333
0.264293191148
0.315006602964
0.391049245781
0.390423802095
0.391617426323
0.33154543219
0.543724319222
0.666965218482
0.647125893283
0.609260627291
0.52202847807
0.419876553246
0.349750301108
0.310109067675
0.282356235386
0.262202886788
0.253817714667
0.252899793297
0.255683296564
0.256444157806
0.255397834929
0.295805773154
0.385539722776
0.392322820961
0.390423802095
0.37684143478
0.693788590698
0.733188634989
0.708837379173
0.683912516729
0.641561201854
0.550337929778
0.421585851274
0.333044705715
0.288223360269
0.261985946877
0.250913016949
0.250425799912
0.251817070767
0.252338818933
0.250719542354
0.276090503774
0.374799134151
0.390423802095
0.391953068534
0.390423802095
0.758150085541
0.755902518873
0.745074618858
0.735363702146
0.722445993792
0.682989563409
0.565825703172
0.41187882324
0.318453835169
0.269124636886
0.249584725244
0.249417185856
0.250256759209
0.250566095569
0.249708385326
0.260472718562
0.364404821776
0.392274261864
0.390423802095
0.391178710783
0.774463019581
0.766209038565
0.761113762133
0.757983896541
0.753071039217
0.735296062189
0.670983069632
0.516419882583
0.374909402249
0.290010384767
0.249272610403
0.249124621064
0.249456109461
0.249827520719
0.249377869675
0.252159251196
0.356893583636
0.390423802095
0.392011620888
0.390423802095
0.783687596444
0.773477675082
0.769666563413
0.768168186876
0.765443414974
0.753808523918
0.712344511531
0.59538257716
0.439599071911
0.32222956301
0.253919724382
0.248986446263
0.249097817137
0.249418435188
0.249109483589
0.249735595919
0.350961824809
0.39223489985
0.390423802095
0.3913783477
0.793793120718
0.780104139417
0.775765506074
0.774543885575
0.772981056859
0.76410351837
0.730180320645
0.638207305427
0.492284367127
0.357102198515
0.266808043585
0.24885927126
0.248732420993
0.249115092676
0.248864647614
0.24928380872
0.350919720035
0.390423802095
0.392242536157
0.390423802095
0.808542029018
0.786681884285
0.7808874722
0.779647719495
0.77872677611
0.770818058896
0.738451318896
0.6576629044
0.524594783644
0.384834493551
0.280279348467
0.248772955369
0.248550536359
0.248730229272
0.248721999771
0.249564008461
0.356355265313
0.392294845683
0.390423802095
0.391994365791
0.829543623449
0.792067093308
0.785217509419
0.783862175488
0.782953394679
0.774145620041
0.740860981523
0.66301861033
0.537151834708
0.397999464304
0.286701211775
0.248851301483
0.248350391705
0.248540402472
0.248587336037
0.255101284974
0.36523806092
0.390423802095
0.392447024791
0.390423802095
0.842952785252
0.794510519821
0.78845177278
0.786709594065
0.785117239897
0.774524460933
0.739273092333
0.660777245038
0.536629658341
0.398263477891
0.286166385617
0.248769139239
0.248140624452
0.24835238836
0.248445634256
0.260235863023
0.367345562742
0.392272561959
0.390423802095
0.39237322431
0.842131246071
0.795038875148
0.790036280718
0.787815478927
0.785108554829
0.771680138026
0.730000316391
0.646681531762
0.523125021321
0.386182853648
0.277825202375
0.24818429822
0.247891354794
0.24817835527
0.248303331702
0.260611055226
0.365896984831
0.390423802095
0.392503970764
0.390423802095
0.844504770367
0.794542527571
0.789518597853
0.786635452214
0.781572051886
0.760377799357
0.7076926212
0.615138786252
0.489200466991
0.354809916056
0.262415456117
0.247387361635
0.247597291597
0.248019423967
0.248161186345
0.260314014455
0.36166781001
0.392168416439
0.390423802095
0.39251039852
0.843087113458
0.791568213487
0.784229041723
0.778954580926
0.768128692185
0.736010549376
0.670974439784
0.568494168504
0.439391017493
0.312378513818
0.250824681209
0.246976901861
0.247357926238
0.247901275334
0.248064694185
0.25931697603
0.357535429586
0.390423802095
0.392506964111
0.390423802095
0.846019045053
0.783331757357
0.766269373527
0.756341656823
0.737741536248
0.695025575433
0.618673230505
0.508523761593
0.379503080515
0.273491625007
0.246902262
0.246726637812
0.247196612639
0.247870058194
0.248149339316
0.257504633306
0.351234753525
0.3921343149
0.390423802095
0.392532274223
0.843089287478
0.759030841703
0.726943007833
0.710839864903
0.684685355939
0.632759617268
0.54759500644
0.433753518501
0.314910655003
0.251388294931
0.246007045799
0.246501558084
0.247292945798
0.247976028789
0.248271268146
0.255956353929
0.348648530323
0.390423802095
0.3926108733
0.390423802095
0.845423587584
0.687378263606
0.661072817641
0.637137474056
0.604091310431
0.544048183772
0.453948315455
0.345842838167
0.262339033059
0.246028535787
0.246215442143
0.246050887683
0.247531944204
0.248201873777
0.248462471994
0.256941332951
0.351056098743
0.392400424083
0.390423802095
0.392634505672
0.842237316459
0.609141662371
0.568763935034
0.530767141494
0.49062141783
0.427004250773
0.342947590635
0.267920054123
0.246082995536
0.246215442143
0.245272515742
0.246215442143
0.24786013046
0.24844697223
0.24865159419
0.259892272708
0.357097753869
0.390423802095
0.392899233624
0.390423802095
0.844850146077
0.547747939822
0.45547949248
0.39458049976
0.352311760351
0.301042126801
0.257871709766
0.246016452322
0.246215442143
0.245097745391
0.246215442143
0.245444250178
0.248331902738
0.248733129132
0.249032454194
0.26413010207
0.358062395286
0.392550365631
0.390423802095
0.392934366184
0.841476900549
0.486538723107
0.341984577259
0.270689527179
0.254601099186
0.246183494917
0.245705755863
0.245904311059
0.244799436344
0.246215442143
0.244218826996
0.246215442143
0.24819901946
0.249272194256
0.250301432463
0.267977816856
0.353599422305
0.390423802095
0.393148301016
0.390423802095
0.838175752974
0.396520947091
0.262367145027
0.245660167401
0.246183494917
0.244523121481
0.245904311059
0.243457845731
0.245904311059
0.243746669914
0.246215442143
0.244360618299
0.248850472996
0.251921040458
0.253029613975
0.268403129128
0.339882687706
0.39183398584
0.390423802095
0.393266186049
0.763505895877
0.284151003452
0.245847250228
0.246183494917
0.24338691638
0.245904311059
0.242121187696
0.245765009702
0.242332006559
0.245904311059
0.243691605439
0.246215442143
0.25178476148
0.252704400975
0.25277902774
0.264404362963
0.323860863613
0.390423802095
0.392700005768
0.390423802095
0.622413794089
0.245125371078
0.246183494917
0.242627546582
0.245904311059
0.241679162537
0.245511533661
0.241524563276
0.245765009702
0.242732780137
0.245904311059
0.247666718375
0.252633882081
0.252085861565
0.248957479777
0.254256341896
0.305724497223
0.383289635277
0.390423802095
0.393189191528
0.490132717117
0.258849410139
0.251389107986
0.245904311059
0.241679162537
0.245511533661
0.241442578454
0.245511533661
0.242462647161
0.245765009702
0.24420791397
0.25150126496
0.252066426377
0.247054123827
0.242290815655
0.242743491313
0.283141656602
0.361892013077
0.391608576611
0.390423802095
0.490475905269
0.418799063279
0.399788631696
0.345362233497
0.294273670725
0.265923889038
0.252188422137
0.243370548851
0.245765009702
0.244712776901
0.247109327137
0.248731002694
0.245681276363
0.241109342151
0.237736223563
0.236321669614
0.255960764772
0.330113205029
0.390423802095
0.39240775081
0.613644121438
0.676129653855
0.64915341731
0.600602542332
0.534930481383
0.48318005503
0.427463795154
0.348708836977
0.275697097398
0.247106096836
0.240320675625
0.237424288646
0.236385939245
0.236565009298
0.23586203504
0.234762833057
0.237597948325
0.284260776373
0.371754666299
0.390423802095
0.791588213322
0.803273250513
0.778078032333
0.765612175371
0.747067450504
0.725853464504
0.695524912833
0.624975741913
0.470317240371
0.306277114551
0.244313161368
0.231207052686
0.229351519674
0.231941731277
0.234167020796
0.234366071471
0.234048389193
0.245121587511
0.324831531018
0.391189322112
0.887053212817
0.826338385542
0.805528217121
0.805556817928
0.804828449335
0.802493685654
0.797613158866
0.779103884503
0.70207742139
0.487526143231
0.294979524084
0.235478738993
0.228076378874
0.228370058005
0.231223953394
0.233921331317
0.233959657428
0.234278198153
0.273307920945
0.38781335887
0.8965753192
0.828858780372
0.813454113478
0.814323174447
0.816410051888
0.817272121131
0.816765045959
0.810098742853
0.776375080652
0.652150878202
0.416228892778
0.264482188602
0.227952625412
0.227835535316
0.228399665356
0.232497735528
0.234330402314
0.234290536806
0.243676615292
0.352933009642
0.89495406922
0.830909987372
0.817737000199
0.818464821514
0.821531434455
0.823674688406
0.823359050823
0.817148833971
0.787672494723
0.7039121701
0.524183407659
0.329951407144
0.234360261807
0.227751228372
0.22769543086
0.229510323734
0.234575749196
0.234483636065
0.23719678823
0.291919537252
0.896675374147
0.833169308008
0.820858386678
0.821528277166
0.825646505529
0.828904109584
0.827853617511
0.820094395335
0.789596835669
0.711351358291
0.566237423395
0.388299487927
0.256556327984
0.22764188916
0.227570953748
0.227982148045
0.233963027679
0.236977438722
0.237556586987
0.256052104593
0.895246908077
0.836191055447
0.823919953885
0.824588716414
0.829764218871
0.833288414244
0.831225383843
0.821197504417
0.78825936025
0.709699970633
0.572273708123
0.409960292232
0.276019581068
0.22778590785
0.227475865021
0.227638519743
0.232622783773
0.239713185897
0.239351761884
0.243746895857
0.896867524171
0.840491351678
0.827768598442
0.828276278975
0.833580891941
0.836080976301
0.833309147144
0.821067893338
0.782046934111
0.698893290165
0.566810977091
0.410325777933
0.27942700564
0.228187014127
0.227410740918
0.227440413529
0.231632976964
0.241610518906
0.241940554717
0.242873530555
0.895429310165
0.845858174004
0.832620359578
0.832400163189
0.836302250137
0.83629626382
0.834290765639
0.81970810834
0.77220201286
0.678648784065
0.546108602247
0.397960364668
0.274385612488
0.228152318667
0.22731999438
0.227380122225
0.230856344023
0.242139514908
0.24411302071
0.243211943534
0.896485890564
0.851308920038
0.837545053874
0.835679053611
0.836683978915
0.83647542334
0.834644794123
0.817275966577
0.763431267959
0.660114178653
0.51848193436
0.370786225124
0.25945318116
0.227551411508
0.227209299586
0.227288571922
0.229943264983
0.241591588781
0.245144225212
0.24374936418
0.895392993469
0.856094501963
0.840798462309
0.837099252336
0.836890548982
0.836681895644
0.834357729212
0.813980822337
0.756624357461
0.649879968348
0.503821866841
0.355393201651
0.252395636897
0.227297008178
0.227116523368
0.227182785006
0.228824179633
0.240327427301
0.245765647915
0.244822301802
0.896275574809
0.859657623247
0.841786035534
0.83665464627
0.836681895644
0.836473281493
0.832081270789
0.808226027845
0.748860451852
0.643117773845
0.50097540741
0.35586482299
0.253438323696
0.227312731601
0.227188837214
0.227118371827
0.228073052572
0.239922366025
0.246962049338
0.247601335449
0.895279535228
0.861381655487
0.840500081243
0.832854597021
0.833289038568
0.832559767561
0.824353387801
0.796754977551
0.736243003335
0.633963318922
0.498221877856
0.357962470538
0.256142718826
0.227379476765
0.227119719377
0.22718655101
0.228198764307
0.241750072559
0.250676753895
0.253486483052
0.89565859842
0.86024529317
0.833126646211
0.821090821099
0.820749296388
0.818297061407
0.806043411854
0.774784676045
0.713801768393
0.616881196591
0.490354287281
0.356908611792
0.256820959922
0.22731327608
0.227193250073
0.227077218502
0.231308033296
0.250919915178
0.259719191273
0.261163110732
0.895032561894
0.85218613294
0.813658432269
0.796852034627
0.793690774931
0.78786550012
0.771304825038
0.73622224236
0.675301687764
0.585154643806
0.470304409587
0.348137298785
0.254118077123
0.227202310855
0.2271084609
0.227184840377
0.244759685719
0.269040286269
0.270936745995
0.265270709451
0.895165276557
0.830356016882
0.778438435395
0.756853783142
0.748497638045
0.736958963496
0.714329590819
0.674498511931
0.614195139817
0.531736858689
0.430183691546
0.323169308955
0.243679645837
0.227117270235
0.227200703281
0.236669725179
0.26855032784
0.279363063059
0.275233053985
0.263444416372
0.89478536036
0.794096881239
0.727642119457
0.699421375832
0.682797040092
0.662060701643
0.630599665517
0.585473351243
0.526314408342
0.45233604191
0.365739937281
0.27982450652
0.229513686261
0.227204079353
0.230938143645
0.260241650956
0.279720751175
0.279776156656
0.273228157612
0.251324362666
0.887188601639
0.752431747147
0.667322120267
0.625060315896
0.596171422647
0.56265093617
0.520226877691
0.470225645066
0.414266046471
0.351761228205
0.285781033924
0.235070285339
0.224285502542
0.227092249614
0.249102105694
0.27697302996
0.279776156656
0.277643876092
0.26034032368
0.220959532922
0.840027701988
0.710095594978
0.603571838487
0.53820035333
0.491905204284
0.444067014092
0.392081581955
0.341406360462
0.29595064086
0.254803800381
0.223025616651
0.21573184114
0.220915301055
0.239230790361
0.269026002434
0.277173292867
0.277031378212
0.263682903957
0.227755942459
0.189634870222
0.753102888901
0.647024627921
0.530175985975
0.442604928111
0.379067545853
0.322192818536
0.27065239297
0.232544169746
0.211780621546
0.200943531517
0.201144805038
0.212824026594
0.231482967484
0.258869477216
0.270755245937
0.272302960354
0.26110079401
0.228607441006
0.190986180252
0.18790906599
0.753794520166
0.571086437203
0.430626856474
0.332200721804
0.268596381386
0.222783948324
0.195460837547
0.184146739443
0.183416992448
0.187239041865
0.201110123997
0.223631242904
0.250150145767
0.261608974512
0.263504098943
0.25230257576
0.223297789964
0.192033730555
0.190639734037
0.191426142287
0.755277814231
0.455249315256
0.302035208961
0.218001868622
0.189359936843
0.17829730044
0.176072181612
0.176243168608
0.17718037331
0.185919355921
0.208650796589
0.239515556997
0.251693976587
0.252710246267
0.239208407298
0.211174774736
0.190965218376
0.190797251063
0.215430798831
0.373248462734
0.753794520166
0.334406096504
0.193489743883
0.174396500702
0.17376931624
0.173577287553
0.173023268811
0.172958088862
0.175181667765
0.185730941377
0.215453550597
0.239783307783
0.240829079175
0.225026148203
0.197137448334
0.188550636059
0.188617983275
0.251501213124
0.466163500738
0.617926244708
0.750607362697
0.237885156744
0.174396500702
0.172906806944
0.173577287553
0.171634201185
0.17292278025
0.171596822633
0.172399081956
0.184891629234
0.21466499205
0.224146233135
0.209023668825
0.185568110956
0.184855854289
0.185553792308
0.28711047474
0.542740632711
0.639094728634
0.637236216288
0.685367018158
0.17921980311
0.173118633953
0.173577287553
0.170243260015
0.17292278025
0.169800918658
0.172399081956
0.171174579854
0.183120311339
0.201745564963
0.192660650533
0.175156399741
0.174708096627
0.19633105712
0.323075412757
0.56997275469
0.641212158743
0.637338356666
0.639933566729
0.544340207472
0.172203510448
0.173577287553
0.169607326686
0.17292278025
0.169035547338
0.172399081956
0.169671492105
0.172324683736
0.180250702245
0.1756642655
0.161208157103
0.169729381662
0.212914249357
0.358745522569
0.553910564801
0.640074793808
0.637338356666
0.641827376674
0.637338356666
0.427305684391
0.207970737103
0.187377607539
0.180409006951
0.175236849201
0.177429619022
0.17998389575
0.179387155607
0.172336411934
0.164977570775
0.155811187694
0.157925008098
0.202926939127
0.349927046118
0.53256872483
0.626286472266
0.637338356666
0.642024670314
0.637338356666
0.640570217082
0.478794205271
0.442249035359
0.384515036581
0.346046773144
0.299130966305