/*--------------------------------*- C++ -*----------------------------------*\
| =========                 |                                                 |
| \\      /  F ield         | OpenFOAM: The Open Source CFD Toolbox           |
|  \\    /   O peration     | Version:  2312                                  |
|   \\  /    A nd           | Website:  www.openfoam.com                      |
|    \\/     M anipulation  |                                                 |
\*---------------------------------------------------------------------------*/
FoamFile
{
    version     2.0;
    format      ascii;
    arch        "LSB;label=32;scalar=64";
    class       volScalarField;
    location    "0.985/water";
    object      alpha.gas_0;
}
// * * * * * * * * * * * * * * * * * * * * * * * * * * * * * * * * * * * * * //

dimensions      [0 0 0 0 0 0 0];

internalField   nonuniform List<scalar> 
1503
(
0.16745289171
0.101353840293
0.0288544079119
0.00738663324211
0.00145082843468
0.000239871523145
3.2602283366e-05
2.72650366907e-06
6.50095934127e-08
5.75582993011e-10
2.84307163065e-12
1.09853488238e-14
1e-15
1e-15
1e-15
1e-15
1e-15
1e-15
1e-15
1e-15
0.608361836251
0.252906955385
0.104915670264
0.0360853054325
0.0117655371587
0.00330012872246
0.000788780200078
0.000146882838236
1.56611641758e-05
3.83245247633e-07
1.28227873934e-09
2.04290588758e-12
3.35887790226e-15
1e-15
1e-15
1e-15
1e-15
1e-15
1e-15
1e-15
0.613304089033
0.338039361585
0.16528652757
0.0704798321743
0.0276511227741
0.00961572243685
0.00284164996392
0.000672198689974
0.000104433013347
5.96841081195e-06
3.1911516118e-08
3.84066877014e-11
3.89537960408e-14
1e-15
1e-15
1e-15
1e-15
1e-15
1e-15
1e-15
0.613303650933
0.418131640117
0.241807575705
0.122381171283
0.055209855758
0.0217953626197
0.00729546589092
0.00197663260193
0.000382388038399
3.70333024448e-05
6.04617819933e-07
6.92649649792e-10
4.82048455988e-13
1.24671143363e-15
1e-15
1e-15
1e-15
1e-15
1e-15
1e-15
0.600335587547
0.467318008097
0.321712387366
0.194305502074
0.102616530226
0.0462144200287
0.0172297823095
0.00510672189929
0.00111420604793
0.000143003730434
5.64316516612e-06
1.15664020608e-08
6.56870736202e-12
4.18023243369e-15
1e-15
1e-15
1e-15
1e-15
1e-15
1e-15
0.575309559612
0.484320549747
0.381442366324
0.270646864522
0.169065737897
0.089856993951
0.0389408762796
0.0130135757465
0.00312526933058
0.000468553098792
2.97821753982e-05
2.20302043369e-07
1.2742996791e-10
5.00509547779e-14
1.01215321732e-15
1e-15
1e-15
1e-15
1e-15
1e-15
0.550858560099
0.481303906547
0.413170648181
0.331295954921
0.239240920265
0.149586473547
0.0774015465746
0.0309300129739
0.00867114924481
0.00149971394381
0.000124407368048
2.36911760347e-06
1.74733382246e-09
5.09088456456e-13
1.12053943131e-15
1.00117827241e-15
1.00081732529e-15
1.00054317623e-15
1.00031727673e-15
1e-15
0.536797382475
0.475432866167
0.425911885674
0.368977624531
0.294862618084
0.209813043387
0.127794107793
0.0623176499328
0.0217198952004
0.00462319877221
0.000482677050228
1.60300052882e-05
2.912822862e-08
5.00267953617e-12
1.75543642023e-15
1.00216269419e-15
1.00158444415e-15
1.00119789053e-15
1.00085496372e-15
1.00036226964e-15
0.524707902428
0.47210675421
0.438787983512
0.396581317709
0.335752642847
0.260172828267
0.179676942491
0.104762878812
0.0460685838957
0.0127706522758
0.0017687801259
8.86980095952e-05
6.70751264912e-07
5.28307019112e-11
5.64574112953e-15
1.00201981921e-15
1.00112533613e-15
1.00087742234e-15
1.00062233513e-15
1.00031642308e-15
0.520548199958
0.478024759275
0.456127788856
0.421981584232
0.368583025014
0.301006646977
0.227395182153
0.152473076387
0.0825504144668
0.0302424825909
0.00585330148222
0.000449165287791
8.78046348357e-06
5.65151819657e-10
7.75795054577e-14
1.01173867744e-15
1.00031555265e-15
1.00033648731e-15
1.00031096718e-15
1.00033109463e-15
0.540093754469
0.500462978986
0.477836704664
0.446674577328
0.398964167218
0.338267519829
0.271575383015
0.201145688164
0.128608692626
0.0611206052663
0.0169563119408
0.00207276960835
8.0693831941e-05
4.20372167287e-07
7.55197095159e-12
2.08701075641e-15
1.00033648731e-15
1.0002484203e-15
1.00033648731e-15
1.00023210772e-15
0.593547239054
0.52622574339
0.494996383284
0.468208268914
0.428908770334
0.375410672273
0.313812978114
0.248473321347
0.179235460333
0.106071561529
0.0417712183841
0.00819893151122
0.000591954984746
1.04539726462e-05
1.82662070164e-09
2.37396955774e-13
1.03547597549e-15
1.00033648731e-15
1.00016648533e-15
1.00033648731e-15
0.594154521193
0.531059518927
0.500134293285
0.478422498156
0.448078322448
0.403732490111
0.34888649068
0.289141900181
0.226820732977
0.158686872707
0.0841938913576
0.0257265248465
0.00324780482918
0.000119379087027
6.61923726268e-07
3.39309139298e-11
1.01553255358e-14
1.00016401798e-15
1.00033648731e-15
1.00015259062e-15
0.598368873367
0.529724600633
0.504694471747
0.481747241701
0.451178172409
0.41041166384
0.364838004719
0.315287836622
0.264252366143
0.208638588686
0.138288734493
0.060631553142
0.0124812807336
0.000841120900752
1.26290386889e-05
4.61929141576e-09
6.71668493808e-13
1.25577707577e-15
1.00014589716e-15
1.00033648731e-15
0.594235455495
0.524909732979
0.506660566415
0.482423718805
0.44979730219
0.407908669152
0.363891255912
0.325042426026
0.287854129789
0.247786924015
0.190467702807
0.107988937881
0.0330036490779
0.00369754502643
0.00010345846653
3.92125349283e-07
6.14295787789e-11
1.86277965258e-14
1.01017101182e-15
1.00325888253e-15
0.598360524707
0.515366246826
0.503642540459
0.479038741506
0.442650506935
0.39835973782
0.356353503512
0.323113855289
0.299221459893
0.273580863597
0.229453806666
0.15264628737
0.062295356636
0.0105539124917
0.000481095471412
3.96921683405e-06
2.61012584691e-09
9.46940694649e-13
1.3453943744e-15
1.01173164676e-15
0.594235455495
0.502072914204
0.490849979286
0.464654571019
0.424900784384
0.379029365799
0.340820298807
0.317429015491
0.304410569448
0.288431577302
0.252972490067
0.184049185196
0.0908341318663
0.020961788297
0.00140941306186
1.86020298882e-05
2.80076420494e-08
1.44921736429e-11
6.87459260822e-15
1.0176597572e-15
0.597333676816
0.487118615474
0.466454343589
0.436253130668
0.396171182902
0.353267141394
0.323347133158
0.312156122513
0.307684927356
0.297423278272
0.267329346919
0.204760518106
0.113353464517
0.0323612842039
0.00294739069602
5.49633334619e-05
1.34683328367e-07
8.63495472001e-11
3.86256899408e-14
1.02809939343e-15
0.594152807165
0.47454461299
0.444748769035
0.408382519828
0.369796300325
0.33472705464
0.315927088992
0.312263436672
0.312226480545
0.306329121586
0.280797321752
0.223725990236
0.133844964025
0.0447304213524
0.0052580852156
0.000136254603616
5.3216636885e-07
3.50077845296e-10
1.22210391009e-13
1.03477087311e-15
0.594279626872
0.466288948828
0.436266614513
0.400596994037
0.364047246306
0.333014076499
0.317696719707
0.318052735513
0.322079931146
0.319987057792
0.30040117083
0.250294795673
0.162664559192
0.0636619665646
0.00987729780315
0.000386879426253
2.72744611959e-06
9.64488551809e-10
1.06133799278e-13
1.01307923034e-15
0.582602886945
0.459038352709
0.436447684712
0.405057131551
0.370210371634
0.341176749356
0.330073181215
0.333850368695
0.339521017485
0.339436007887
0.32657924348
0.290287159376
0.213125840965
0.102683201367
0.0223698697425
0.00144067771278
1.9479446302e-05
7.95059956106e-09
4.71545162651e-14
1.01417780735e-15
0.555888512408
0.459111265895
0.449745536631
0.430178274951
0.398645445112
0.369280008989
0.357073366372
0.35679876436
0.356406086979
0.348646356605
0.340292977439
0.33055535831
0.285891336025
0.177559227395
0.0566247603151
0.00610694850792
0.000159607989611
6.09277337604e-07
1.17529059141e-11
2.6084094011e-15
0.547255827853
0.483221867764
0.491483750691
0.484456285862
0.452076816864
0.412983961171
0.389383411659
0.376235653768
0.361405880553
0.346446644598
0.339211496072
0.339061214853
0.335364731261
0.26588043853
0.126014549571
0.0231653245707
0.00115039935766
1.20449897707e-05
2.95884752457e-09
1.11917651741e-13
0.555650836811
0.538084336485
0.557028737037
0.550794300625
0.510713274942
0.457196143415
0.417125685488
0.388263281897
0.359882869248
0.336860910785
0.330665600201
0.337184315483
0.33703491917
0.320966143331
0.211060536501
0.0637237689908
0.00584427048808
0.000125278815849
3.14592965067e-07
2.83078671072e-12
0.579883371911
0.590686295474
0.609146816282
0.599135683107
0.556640452317
0.494354969851
0.439327907894
0.394909692323
0.354047439885
0.318586808649
0.3111882109
0.325262191598
0.336799324096
0.334688878218
0.266894709742
0.119469266606
0.0191813537006
0.000785468949532
6.16497341532e-06
1.69828345687e-10
0.60701733224
0.61714152656
0.628418522149
0.621859907794
0.585953504848
0.52162922646
0.455586766419
0.39705549308
0.344213593836
0.300370775064
0.295504511743
0.306663155397
0.328645695023
0.332326447753
0.290253588225
0.167054910527
0.0417746452115
0.00293238846577
4.27049417574e-05
1.51731189289e-08
0.629802183695
0.627532173914
0.632160970725
0.629148988723
0.5995881292
0.536309565279
0.463317560231
0.39532623811
0.331129717905
0.294939203693
0.294815441958
0.294975887054
0.309436900895
0.322580359274
0.296662483779
0.199514703604
0.067925494578
0.00728564991807
0.000168012811361
4.73862467595e-07
0.64995101684
0.632454292189
0.632300210055
0.629755805291
0.601560214652
0.539143541717
0.463154780152
0.386759120946
0.314647924514
0.294785245477
0.294939203693
0.294582398101
0.295123734441
0.307256888616
0.298177707322
0.22524837932
0.0944202521894
0.0139422765222
0.000469203706416
2.75154064163e-06
0.661116969507
0.632600751205
0.632348096919
0.629305374585
0.599854626586
0.536286732267
0.455849515704
0.370102627957
0.300233328555
0.294939203693
0.294299362059
0.294939203693
0.294439870414
0.294948441946
0.302257206018
0.251448968043
0.123250554383
0.0235683192183
0.00112179320497
1.0364468943e-05
0.671826584166
0.629465328935
0.632084364349
0.625626612008
0.591083398199
0.523326006162
0.436634408977
0.34700162902
0.294951125524
0.294552354703
0.294939203693
0.293900149072
0.294939203693
0.294402892922
0.318124860968
0.284401826077
0.157918701814
0.0382141757473
0.00256230263177
3.43905953978e-05
0.678580586814
0.622226261733
0.627878316526
0.615663156914
0.573380431647
0.499236861639
0.408483767997
0.321407849311
0.29479007557
0.294939203693
0.293876603243
0.294939203693
0.293545618921
0.294939203693
0.343500083243
0.318178845578
0.198694974829
0.0608698496373
0.00571244359658
0.000107927160642
0.677892251971
0.612547892919
0.615199291046
0.598335307647
0.548643482424
0.468519629631
0.377152684004
0.301561518057
0.294939203693
0.294080553459
0.294939203693
0.293304074342
0.294939203693
0.298497950848
0.357285518891
0.340442196449
0.239201627191
0.0909865539233
0.0116642475636
0.000310479082302
0.683041380368
0.601341514868
0.595528259088
0.572447995915
0.517187766763
0.433867046121
0.345400203335
0.294939203693
0.29447224815
0.294939203693
0.293411611877
0.294939203693
0.292935770675
0.318292540331
0.358410070303
0.351777394509
0.269728683782
0.121790993521
0.0207462744973
0.000786206677221
0.678345778464
0.588370601538
0.57377882198
0.54068651531
0.480134436288
0.397053662391
0.315618587263
0.294710909185
0.294939203693
0.293621685934
0.294939203693
0.292924697364
0.294939203693
0.337883496249
0.358231377112
0.355872818684
0.287326680577
0.1474506765
0.0322980602782
0.00172763957005
0.683892448955
0.572264605457
0.549204190466
0.505136306422
0.439316444386
0.360478775594
0.296881324254
0.294939203693
0.29385857063
0.294939203693
0.292978300376
0.294939203693
0.296115517404
0.35665610513
0.358446667106
0.356378199401
0.297591672567
0.168881428981
0.0456930805593
0.00330039669692
0.679101238925
0.551372142601
0.518461530294
0.465835356941
0.398238522206
0.328754490316
0.294939203693
0.294132173981
0.294939203693
0.293115928914
0.294939203693
0.29291764994
0.328066572282
0.358320957098
0.358231377112
0.356394919464
0.308358682976
0.192201357892
0.0615776064116
0.00561795722149
0.683815542217
0.522279135034
0.477814344874
0.422052768172
0.362292866016
0.31110402845
0.294488481525
0.294939203693
0.293243189394
0.294939203693
0.292924697364
0.299448360171
0.34353438304
0.355177207029
0.356731005792
0.357581573647
0.325480513756
0.222861323748
0.0814683285763
0.00888316827752
0.678592880768
0.481650745269
0.426010192285
0.375163227756
0.336064700966
0.309514661635
0.295729580562
0.297078857137
0.302444682317
0.304485625976
0.304326938764
0.314114129737
0.32960002949
0.337311262319
0.34818482652
0.361831374941
0.349042962914
0.260056624607
0.106417952493
0.013724155925
1e-15
1e-15
1e-15
1e-15
1e-15
1e-15
1e-15
1e-15
1e-15
1e-15
1e-15
1e-15
1e-15
1e-15
1e-15
1e-15
1e-15
1e-15
1e-15
1e-15
1e-15
1e-15
1e-15
1e-15
1e-15
1e-15
1e-15
1e-15
1e-15
1e-15
1e-15
1e-15
1e-15
1e-15
1e-15
1e-15
1e-15
1e-15
1e-15
1e-15
1e-15
1e-15
1e-15
1e-15
1e-15
1e-15
1e-15
1e-15
1e-15
1e-15
1e-15
1e-15
1e-15
1e-15
1e-15
1e-15
1e-15
1e-15
1e-15
1e-15
1e-15
1e-15
1e-15
1e-15
1e-15
1e-15
1e-15
1e-15
1e-15
1e-15
1e-15
1e-15
1e-15
1e-15
1e-15
1e-15
1e-15
1e-15
1e-15
1e-15
1e-15
1e-15
1e-15
1e-15
1e-15
1e-15
1e-15
1e-15
1e-15
1e-15
1e-15
1e-15
1e-15
1e-15
1e-15
1e-15
1.00303962613e-15
1e-15
1e-15
1e-15
1e-15
1e-15
1e-15
1e-15
1e-15
1e-15
1e-15
1e-15
1e-15
1e-15
1e-15
1e-15
1e-15
1e-15
1e-15
1e-15
1.00343564465e-15
1e-15
1e-15
1.03164469896e-15
1e-15
1.00008860646e-15
1.00010798577e-15
1.00011516807e-15
1.00016005764e-15
1.00023664759e-15
1.00035325225e-15
1.00052407652e-15
1.00068789479e-15
1.00079166039e-15
1.00073546876e-15
1.00039119713e-15
1e-15
1e-15
1e-15
1.00694788279e-15
1.00342346511e-15
1e-15
1e-15
1.07693717825e-15
1.00024990344e-15
1.00060657298e-15
1.00068500659e-15
1.00074593827e-15
1.00081154711e-15
1.00095948755e-15
1.00121061675e-15
1.0015931111e-15
1.00196222321e-15
1.00215753298e-15
1.00196736813e-15
1.00119466839e-15
1e-15
1e-15
1.00167135959e-15
1.00699193266e-15
1.00092113324e-15
1e-15
1e-15
1.11593915073e-15
1.000298134e-15
1.00059479959e-15
1.00075278068e-15
1.00091626e-15
1.0011344941e-15
1.00145985686e-15
1.00195318968e-15
1.0025672078e-15
1.00312635837e-15
1.00338207975e-15
1.00299923479e-15
1.00152346139e-15
1e-15
1e-15
1.00468314859e-15
1.00699002209e-15
1e-15
1e-15
1e-15
1.15048361042e-15
1.0003068597e-15
1.00033109463e-15
1.00056426074e-15
1.00082288886e-15
1.00120867385e-15
1.00173982913e-15
1.00244270752e-15
1.00321432008e-15
1.00392105889e-15
1.00412064189e-15
1.00338924794e-15
1.00143416031e-15
1.0002826257e-15
1.0012417726e-15
1.00688694206e-15
1.00639000022e-15
1e-15
1e-15
1e-15
1.18144544049e-15
1.00033109463e-15
1.00029012745e-15
1.00042076237e-15
1.00082804109e-15
1.00138678583e-15
1.0020684327e-15
1.0028608023e-15
1.00371080964e-15
1.00440315133e-15
1.00456150037e-15
1.00343723405e-15
1.00133843146e-15
1.00057706823e-15
1.00295958522e-15
1.01128636102e-15
1.00470520193e-15
1e-15
1.00390813275e-15
1e-15
1.21022952096e-15
1.00019586366e-15
1.00033648731e-15
1.00061497879e-15
1.00118006844e-15
1.00185939092e-15
1.00258885305e-15
1.00339191522e-15
1.00425948755e-15
1.0050693074e-15
1.00499066712e-15
1.00352945125e-15
1.00141677844e-15
1.0011922463e-15
1.00689693239e-15
1.01288435193e-15
1.0017751353e-15
1e-15
1.0204159583e-15
1e-15
1.23646974187e-15
1.00033648731e-15
1.00039762578e-15
1.00153171127e-15
1.00213725787e-15
1.00277749112e-15
1.00348026816e-15
1.00428668001e-15
1.00534826459e-15
1.00671724874e-15
1.0056400965e-15
1.00388427545e-15
1.00176908992e-15
1.00257096963e-15
1.01364539682e-15
1.01286137075e-15
1e-15
1e-15
1.02014099144e-15
1e-15
1.26001651449e-15
1.00015259062e-15
1.00294398237e-15
1.00349942105e-15
1.00388106473e-15
1.00438987332e-15
1.0050425323e-15
1.00578771011e-15
1.0071820437e-15
1.00905020469e-15
1.00663089321e-15
1.00467579071e-15
1.00251478768e-15
1.00446584362e-15
1.01379049758e-15
1.01217642298e-15
1e-15
1e-15
1.02056717222e-15
1e-15
1.28114555664e-15
1.00435923981e-15
1.00650876266e-15
1.00647686236e-15
1.00644773252e-15
1.00672923704e-15
1.00723622441e-15
1.00863528132e-15
1.02147662131e-15
1.01038371126e-15
1.00795803942e-15
1.00567592334e-15
1.00362164969e-15
1.0083935308e-15
1.01378366812e-15
1.01048294181e-15
1e-15
1e-15
1.02014099144e-15
1e-15
1.30034541969e-15
1.01015378929e-15
1.00997402093e-15
1.0092517154e-15
1.00874015355e-15
1.00866849837e-15
1.0090493194e-15
1.02442637971e-15
1.02540683942e-15
1.01092280707e-15
1.00933791621e-15
1.00642575243e-15
1.00514635491e-15
1.01378366812e-15
1.01377972704e-15
1.00762926618e-15
1e-15
1e-15
1.02056030899e-15
1e-15
1.31800474311e-15
1.01293425198e-15
1.01145879389e-15
1.01023942957e-15
1.00940596523e-15
1.00910536558e-15
1.00996540777e-15
1.02540683942e-15
1.02580181583e-15
1.01143072644e-15
1.00979571822e-15
1.00687932006e-15
1.00669360569e-15
1.01383134564e-15
1.01338437412e-15
1.00221804795e-15
1e-15
1.00003119513e-15
1.02014099144e-15
1e-15
1.33443746731e-15
1.01299136517e-15
1.01125216687e-15
1.00991423421e-15
1.00898593224e-15
1.00861666639e-15
1.00947164099e-15
1.02573665652e-15
1.02540683942e-15
1.02362544952e-15
1.00964950048e-15
1.00697391362e-15
1.0081835579e-15
1.01378366812e-15
1.01217472443e-15
1e-15
1e-15
1.00065122707e-15
1.02053426744e-15
1e-15
1.34992560749e-15
1.01117040034e-15
1.00927838466e-15
1.00795499719e-15
1.00699146431e-15
1.00636546303e-15
1.01314573416e-15
1.02540683942e-15
1.02576484293e-15
1.02540683942e-15
1.00896199008e-15
1.0069280117e-15
1.00958234869e-15
1.01379161804e-15
1.00944637145e-15
1e-15
1e-15
1.00031181737e-15
1.02014099144e-15
1e-15
1.36468442839e-15
1.00671520614e-15
1.0053782336e-15
1.00450562259e-15
1.00382248879e-15
1.00449866356e-15
1.02328296583e-15
1.02564937156e-15
1.02540683942e-15
1.02564880133e-15
1.00856476568e-15
1.00689916921e-15
1.01088678396e-15
1.01344095899e-15
1.00444216664e-15
1e-15
1e-15
1e-15
1.02053288213e-15
1e-15
1.3788963276e-15
1.00141737614e-15
1.00104277218e-15
1.00078340618e-15
1.00053840387e-15
1.00289612447e-15
1.02515892962e-15
1.025406173e-15
1.02570335053e-15
1.02540683942e-15
1.01560020329e-15
1.00688602319e-15
1.01192256646e-15
1.01201573586e-15
1e-15
1e-15
1e-15
1e-15
1.02014099144e-15
1e-15
1.39284369513e-15
1e-15
1e-15
1e-15
1e-15
1.00738122855e-15
1.02506540723e-15
1.02562960946e-15
1.02540683942e-15
1.02563128065e-15
1.02446937503e-15
1.00813693574e-15
1.01297311114e-15
1.00924459106e-15
1e-15
1e-15
1e-15
1e-15
1.02053932656e-15
1e-15
1.4069592927e-15
1e-15
1e-15
1e-15
1e-15
1.02021588077e-15
1.02539724088e-15
1.02540412922e-15
1.02572745557e-15
1.02540683942e-15
1.02544121487e-15
1.01283390011e-15
1.01392319385e-15
1.00574807188e-15
1e-15
1e-15
1e-15
1e-15
1.02014099144e-15
1e-15
1.42169357655e-15
1.03167922289e-15
1e-15
1e-15
1e-15
1.02351440709e-15
1.02539261564e-15
1.02574943862e-15
1.02540683942e-15
1.02566024057e-15
1.02540683942e-15
1.02226749563e-15
1.01466850291e-15
1.00292639778e-15
1e-15
1e-15
1e-15
1e-15
1.02061579841e-15
1e-15
1.43728980974e-15
2.38420170454e-15
1e-15
1e-15
1.00558540118e-15
1.02362189648e-15
1.02558776771e-15
1.02540683942e-15
1.02584067826e-15
1.02540683942e-15
1.02549770452e-15
1.02465913461e-15
1.01569550466e-15
1.0016068399e-15
1e-15
1e-15
1e-15
1e-15
1.02014099144e-15
1e-15
1.45366028414e-15
6.57756165365e-14
1e-15
1.00253015519e-15
1.01624887645e-15
1.02514157185e-15
1.0253851177e-15
1.02598849706e-15
1.02540683942e-15
1.02576650371e-15
1.02540683942e-15
1.02468869377e-15
1.01627043241e-15
1.00140360802e-15
1e-15
1e-15
1e-15
1.00206874998e-15
1.0207224652e-15
1e-15
1.47056072521e-15
1.53743889398e-12
1e-15
1.00427875919e-15
1.02145985678e-15
1.02536378916e-15
1.02594928704e-15
1.02540683942e-15
1.02599584608e-15
1.02540683942e-15
1.02557450156e-15
1.02469496454e-15
1.01641818717e-15
1.00141390806e-15
1e-15
1e-15
1e-15
1.00563158444e-15
1.02014099144e-15
1e-15
1.48785352849e-15
2.69605452107e-11
1e-15
1.00079099326e-15
1.02151458827e-15
1.02564796412e-15
1.02540315442e-15
1.02618155387e-15
1.02540683942e-15
1.02586477596e-15
1.02540683942e-15
1.0247624739e-15
1.01642612059e-15
1.00114522382e-15
1e-15
1e-15
1e-15
1.00851943855e-15
1.02079857465e-15
1.00675417308e-15
1.50558549306e-15
6.48545616149e-10
1e-15
1e-15
1.01726291593e-15
1.025396082e-15
1.02627948469e-15
1.02540683942e-15
1.02609495082e-15
1.02540683942e-15
1.02561859688e-15
1.02483549871e-15
1.01600244995e-15
1.0016026292e-15
1e-15
1e-15
1.00165531738e-15
1.01113236465e-15
1.02014099144e-15
1.01304829882e-15
1.52390898622e-15
1.63239013422e-08
1e-15
1e-15
1.00811127428e-15
1.02592290029e-15
1.02540683942e-15
1.02626793512e-15
1.02540683942e-15
1.02587403423e-15
1.02540683942e-15
1.0249719906e-15
1.01436039254e-15
1.00290146458e-15
1e-15
1.00115528015e-15
1.00634926149e-15
1.01338967845e-15
1.02078702084e-15
1.01588539215e-15
1.54289079276e-15
1.41588180403e-07
1e-15
1.00002701023e-15
1.00303764723e-15
1.02540683942e-15
1.02636468964e-15
1.02540683942e-15
1.02606778387e-15
1.02540683942e-15
1.02561235158e-15
1.02524090136e-15
1.01194174811e-15
1.00472708328e-15
1.00326587655e-15
1.00607227002e-15
1.00849873244e-15
1.01511251451e-15
1.02014099144e-15
1.01789150041e-15
1.56228185515e-15
7.79685933851e-07
1e-15
1e-15
1.00071869207e-15
1.02604451564e-15
1.02540683942e-15
1.02631850894e-15
1.02540683942e-15
1.02585321919e-15
1.02540683942e-15
1.02504858836e-15
1.01042190616e-15
1.00641078232e-15
1.00681182733e-15
1.00790545034e-15
1.00994673545e-15
1.01617850433e-15
1.0207136117e-15
1.01911215544e-15
1.58163474409e-15
3.19658476046e-06
1e-15
1e-15
1e-15
1.02540683942e-15
1.02639698984e-15
1.02540683942e-15
1.02608684132e-15
1.02540683942e-15
1.02559476758e-15
1.02285510901e-15
1.009737363e-15
1.0075641791e-15
1.00788255028e-15
1.00882187682e-15
1.01085074707e-15
1.01656608002e-15
1.02014099144e-15
1.01941785243e-15
1.60062258043e-15
1.06837888842e-05
1e-15
1e-15
1e-15
1.02590486595e-15
1.02540683942e-15
1.02632343882e-15
1.02540683942e-15
1.02578013338e-15
1.02540683942e-15
1.01865101193e-15
1.00920597521e-15
1.00806206108e-15
1.00829941424e-15
1.00917295254e-15
1.01112560911e-15
1.01626070535e-15
1.02055692337e-15
1.018874158e-15
1.61742594805e-15
2.88219840302e-05
1e-15
1e-15
1e-15
1.02540683942e-15
1.02632504944e-15
1.02540683942e-15
1.02595343183e-15
1.02540683942e-15
1.02546795169e-15
1.01424847636e-15
1.00857332352e-15
1.00799911109e-15
1.00820045363e-15
1.00900567841e-15
1.01084932191e-15
1.01520494702e-15
1.02014099144e-15
1.01740807933e-15
1.63256761292e-15
6.27061382895e-05
1e-15
1e-15
1e-15
1.0173105846e-15
1.02540683942e-15
1.02611527883e-15
1.02540683942e-15
1.02551292107e-15
1.02154530271e-15
1.01048067395e-15
1.00769672229e-15
1.00732996278e-15
1.00749405896e-15
1.00821132282e-15
1.00988725375e-15
1.01351101234e-15
1.02024927421e-15
1.01543561621e-15
1.71364153975e-15
0.000120024061337
1e-15
1e-15
1e-15
1.00788210594e-15
1.02574689603e-15
1.02540683942e-15
1.02555381516e-15
1.02419771336e-15
1.01396200188e-15
1.00775259099e-15
1.00637533705e-15
1.00604386924e-15
1.00618663481e-15
1.0068234799e-15
1.0083463038e-15
1.01148933167e-15
1.01986183003e-15
1.01551539174e-15
1.7911664271e-15
0.000230984563891
1e-15
1e-15
)
;

boundaryField
{
    emptyPatch
    {
        type            empty;
    }
    minY
    {
        type            fixedValue;
        value           uniform 1e-15;
    }
    maxY
    {
        type            inletOutlet;
        phi             phi.gas;
        inletValue      nonuniform List<scalar> 0();
        value           nonuniform List<scalar> 0();
    }
    water_to_cooler
    {
        type            zeroGradient;
    }
    water_to_heater
    {
        type            zeroGradient;
    }
    procBoundary2to3
    {
        type            processor;
        value           nonuniform List<scalar> 
41
(
0.679987348947
0.428885231073
0.377856866847
0.342525982815
0.330557903518
0.321616682459
0.323345256323
0.329527748971
0.330472468966
0.319528932807
0.304325125086
0.29826862742
0.298660647584
0.31074019291
0.339482813494
0.368760833567
0.371307818612
0.295776609927
0.137467807565
0.021613017346
1e-15
1.00543062216e-15
1.02508707064e-15
1.0255859828e-15
1.02399097977e-15
1.0164775762e-15
1.00846151423e-15
1.00556875898e-15
1.00464366593e-15
1.00436860971e-15
1.00450043726e-15
1.00505245362e-15
1.00640440672e-15
1.0092234039e-15
1.01816802275e-15
1.01606519437e-15
1.78834921256e-15
0.000488291934693
1.68741577736e-07
1e-15
1e-15
)
;
    }
}


// ************************************************************************* //
