/*--------------------------------*- C++ -*----------------------------------*\
| =========                 |                                                 |
| \\      /  F ield         | OpenFOAM: The Open Source CFD Toolbox           |
|  \\    /   O peration     | Version:  2312                                  |
|   \\  /    A nd           | Website:  www.openfoam.com                      |
|    \\/     M anipulation  |                                                 |
\*---------------------------------------------------------------------------*/
FoamFile
{
    version     2.0;
    format      ascii;
    arch        "LSB;label=32;scalar=64";
    class       surfaceScalarField;
    location    "0.085/water";
    object      phi;
}
// * * * * * * * * * * * * * * * * * * * * * * * * * * * * * * * * * * * * * //

dimensions      [0 3 -1 0 0 0 0];

oriented        oriented;

internalField   nonuniform List<scalar> 
11810
(
8.23590943427e-08
2.00202682926e-07
5.63201600958e-08
1.50777558363e-07
4.16775237621e-08
1.48219673902e-07
3.22280727577e-08
1.50062861536e-07
2.56090439295e-08
1.54241104633e-07
2.09913163816e-08
1.59540603453e-07
1.77509446184e-08
1.65818321845e-07
1.53730952061e-08
1.72988424871e-07
1.34153885799e-08
1.80997752939e-07
1.16444134388e-08
1.89656957324e-07
9.99917646066e-09
1.98814222893e-07
8.48288378604e-09
2.08426922782e-07
7.10715763869e-09
2.18509321753e-07
5.87768536069e-09
2.29091116437e-07
4.79141473673e-09
2.40206019387e-07
3.83751107321e-09
2.51887984814e-07
2.99991200249e-09
2.64169738218e-07
2.25993504984e-09
2.77082725581e-07
1.59811520142e-09
2.90658007517e-07
3.04928687441e-07
9.93632337489e-10
1.21103956293e-07
2.52001408414e-07
8.42319660541e-08
1.78982848732e-07
6.60594835773e-08
1.64539699224e-07
5.34614556521e-08
1.62352686457e-07
4.37387796597e-08
1.63913506084e-07
3.62982493431e-08
1.66973401973e-07
3.05601884403e-08
1.71555114196e-07
2.61252385427e-08
1.77423153225e-07
2.27277580097e-08
1.84395207511e-07
1.99815378332e-08
1.92403172649e-07
1.75739073923e-08
2.01221854441e-07
1.53472800582e-08
2.10653547019e-07
1.32483917236e-08
2.20608211093e-07
1.12714616023e-08
2.31068044073e-07
9.42572632831e-09
2.42051755648e-07
7.71910032558e-09
2.53594608828e-07
6.1513443333e-09
2.65737495048e-07
4.71255217618e-09
2.78521516154e-07
3.38389041307e-09
2.91986669983e-07
3.06174223967e-07
2.13835244585e-09
1.22700690444e-07
2.96522955949e-07
8.11427153437e-08
2.1012201383e-07
6.13365861977e-08
1.82052901481e-07
4.94524638183e-08
1.73797562131e-07
4.08922762215e-08
1.72389690509e-07
3.46219687494e-08
1.73226248231e-07
3.01687398767e-08
1.76004290472e-07
2.67142262338e-08
1.80876705384e-07
2.38285420522e-08
1.8728072266e-07
2.1356140727e-08
1.94875557327e-07
1.91426389688e-08
2.03435357728e-07
1.70664282582e-08
2.12729754365e-07
1.50580509152e-08
2.22616589697e-07
1.30912784985e-08
2.33034813795e-07
1.11665795034e-08
2.43976455657e-07
9.29579776848e-09
2.55465388445e-07
7.4909400547e-09
2.67542353571e-07
5.75742029833e-09
2.80255034264e-07
4.09101993893e-09
2.93653071052e-07
3.07787927712e-07
2.47731468668e-09
1.41220192759e-07
3.17237177361e-07
9.37046559722e-08
2.43416281028e-07
6.75052051875e-08
2.04701572538e-07
5.0889699461e-08
1.89662358441e-07
3.92597759221e-08
1.83864267848e-07
3.10219069903e-08
1.81427415388e-07
2.5774761988e-08
1.81241290941e-07
2.26102869171e-08
1.84038373785e-07
2.04180031209e-08
1.89472419584e-07
1.86199952544e-08
1.96673498871e-07
1.69750064552e-08
2.05080346419e-07
1.53835719617e-08
2.14321184904e-07
1.37943266791e-08
2.24205835852e-07
1.21808404114e-08
2.34648297086e-07
1.05352748896e-08
2.45622022066e-07
8.86225227967e-09
2.57138408767e-07
7.17210369703e-09
2.69232502939e-07
5.4747848422e-09
2.81952351417e-07
3.77569896688e-09
2.95352157645e-07
3.09489858483e-07
2.07376665473e-09
1.536753301e-07
3.22256703338e-07
1.1069423735e-07
2.69258575903e-07
7.97223627727e-08
2.30448429535e-07
5.7754523003e-08
2.10306769205e-07
4.15678661687e-08
1.99737240475e-07
2.99568539127e-08
1.92956831442e-07
2.25070755819e-08
1.88666485015e-07
1.85216080939e-08
1.88016563718e-07
1.64584050801e-08
1.91533986401e-07
1.51046806581e-08
1.98027014888e-07
1.39337492866e-08
2.06251272576e-07
1.27736481846e-08
2.15481281838e-07
1.15717073256e-08
2.25407778353e-07
1.03064553314e-08
2.35913545886e-07
8.96880454616e-09
2.46959674085e-07
7.55778360564e-09
2.58549427268e-07
6.0781085674e-09
2.70712178915e-07
4.53737271097e-09
2.83493085429e-07
2.94342178788e-09
2.96946109402e-07
3.11130617783e-07
1.30266082463e-09
1.62024199226e-07
3.17359662186e-07
1.29065061258e-07
2.83748596002e-07
9.82301845322e-08
2.5470621369e-07
7.28334595433e-08
2.33700589729e-07
5.18641597475e-08
2.20137875026e-07
3.5349988781e-08
2.09299397192e-07
2.37756957573e-08
2.00182795021e-07
1.71784972338e-08
1.94595070898e-07
1.41446596577e-08
1.94563326477e-07
1.26612809596e-08
1.99509755434e-07
1.16149399351e-08
2.07297577077e-07
1.06316275282e-08
2.16464588798e-07
9.61189303112e-09
2.26427513891e-07
8.52613478644e-09
2.36999300452e-07
7.36327350151e-09
2.4812253641e-07
6.11876057835e-09
2.5979393745e-07
4.79229597437e-09
2.72038644418e-07
3.38724940198e-09
2.84898130015e-07
1.91002679739e-09
2.98423332824e-07
3.12671381643e-07
3.69261173072e-10
1.61518138954e-07
3.13333113439e-07
1.37297663956e-07
2.89858838202e-07
1.13285808205e-07
2.7164461555e-07
8.86895655928e-08
2.5581181009e-07
6.60722064702e-08
2.41924489993e-07
4.6016372992e-08
2.29057792286e-07
3.00161504108e-08
2.16064416234e-07
1.94420981155e-08
2.05124373081e-07
1.4080919296e-08
1.99912083074e-07
1.17124899052e-08
2.01876121899e-07
1.03600082061e-08
2.08649886313e-07
9.25140750964e-09
2.17573178146e-07
8.17355057808e-09
2.27505372487e-07
7.06898499424e-09
2.38103861971e-07
5.91845687197e-09
2.49273065856e-07
4.71243383168e-09
2.60999957485e-07
3.44528863682e-09
2.7330579063e-07
2.1151462234e-09
2.86228270208e-07
7.24541790039e-10
2.99813938177e-07
3.14114951845e-07
-7.1903037161e-10
1.58638842351e-07
3.13251164722e-07
1.38531200214e-07
2.92909943968e-07
1.20745637176e-07
2.82593625239e-07
1.00260552064e-07
2.73698717125e-07
7.85106373945e-08
2.62691080515e-07
5.7590141536e-08
2.49566694623e-07
3.88841456704e-08
2.34574812178e-07
2.44755965818e-08
2.1944347222e-07
1.57898618566e-08
2.08567053123e-07
1.17258995429e-08
2.05933594883e-07
9.69459363281e-09
2.10680429204e-07
8.2451007822e-09
2.19022617111e-07
6.94208460487e-09
2.28808388966e-07
5.68129088537e-09
2.3936465107e-07
4.43275479056e-09
2.50521603071e-07
3.18104893031e-09
2.62251660011e-07
1.91426414606e-09
2.74572576416e-07
6.23889397907e-10
2.87518642588e-07
-6.93252114892e-10
3.01131080614e-07
3.15455075706e-07
-2.03337804921e-09
1.59504489494e-07
3.12472664859e-07
1.42417435123e-07
2.93301448878e-07
1.27131350822e-07
2.91117608577e-07
1.09084589108e-07
2.89095878835e-07
8.81885848956e-08
2.8251429043e-07
6.74841979068e-08
2.69774764997e-07
4.79867536815e-08
2.53803411017e-07
3.10725792283e-08
2.36212515212e-07
1.88287862361e-08
2.20748474067e-07
1.21351149566e-08
2.12609703899e-07
8.93461969389e-09
2.13877992426e-07
7.00108183909e-09
2.20955871625e-07
5.42163095426e-09
2.30387832429e-07
3.9723598276e-09
2.40813917262e-07
2.60598376744e-09
2.51887980855e-07
1.30123429186e-09
2.63556405938e-07
3.89942049809e-11
2.75834817803e-07
-1.1959468394e-09
2.88753581046e-07
-2.41342521977e-09
3.02348560117e-07
3.16658749755e-07
-3.6171015482e-09
1.59502089713e-07
3.11802519592e-07
1.43830564716e-07
2.92549228692e-07
1.30030642191e-07
2.98202026773e-07
1.13374738821e-07
3.0306344483e-07
9.33214149943e-08
3.01434190711e-07
7.27174689154e-08
2.89822680234e-07
5.39430524454e-08
2.72251715202e-07
3.6550193017e-08
2.53407390527e-07
2.18873195328e-08
2.35308530365e-07
1.21851141037e-08
2.22273254217e-07
7.2842427323e-09
2.18769525434e-07
4.82588716229e-09
2.2341291623e-07
3.1054367172e-09
2.32108210812e-07
1.59509801229e-09
2.42324249788e-07
2.13002181612e-10
2.53270078164e-07
-1.06009684423e-09
2.64829500989e-07
-2.24336452853e-09
2.77018086767e-07
-3.35701318278e-09
2.89867226908e-07
-4.4168172145e-09
3.03408365274e-07
3.17673420834e-07
-5.43149072332e-09
1.57792358789e-07
3.13237210402e-07
1.4099418078e-07
2.93316797837e-07
1.28394987597e-07
3.04189821808e-07
1.13273126386e-07
3.15494027986e-07
9.43816212003e-08
3.19155804864e-07
7.46328802021e-08
3.08972150792e-07
5.7040971571e-08
2.89475162718e-07
4.05052795008e-08
2.69702157971e-07
2.47948012044e-08
2.50874196502e-07
1.22023632831e-08
2.34795153473e-07
4.80568064395e-09
2.26141742793e-07
1.53031901417e-09
2.2668325314e-07
-1.47240583151e-10
2.33785359938e-07
-1.49420989335e-09
2.43671206036e-07
-2.71187924507e-09
2.54487749315e-07
-3.81501129618e-09
2.65932628736e-07
-4.81545632657e-09
2.78018533244e-07
-5.72823199927e-09
2.90779999501e-07
-6.56729209972e-09
3.04247426643e-07
3.18448253914e-07
-7.34212785779e-09
1.55172850791e-07
3.18267945035e-07
1.36516336e-07
2.96473988363e-07
1.24333498925e-07
3.10042037247e-07
1.10586319647e-07
3.26628966991e-07
9.39380673642e-08
3.34629814502e-07
7.64528344353e-08
3.25829277661e-07
6.03299242578e-08
3.05197846053e-07
4.5011245012e-08
2.84746166241e-07
2.90763284038e-08
2.66624775291e-07
1.3911730781e-08
2.49847931823e-07
2.99640361813e-09
2.37003298574e-07
-2.08414763001e-09
2.31747949511e-07
-3.81847059509e-09
2.35517831637e-07
-4.86486729261e-09
2.44717547179e-07
-5.79640809856e-09
2.55419291544e-07
-6.63680818188e-09
2.66773024058e-07
-7.38636241038e-09
2.78768088867e-07
-8.05002974248e-09
2.91443663536e-07
-8.63478107497e-09
3.04832179237e-07
3.1896000226e-07
-9.14653225983e-09
1.52247431294e-07
3.27130248917e-07
1.31327645715e-07
3.02576083183e-07
1.17711266656e-07
3.17797683872e-07
1.04534349314e-07
3.37400878861e-07
9.09289151566e-08
3.47120031309e-07
7.76556626999e-08
3.38475142095e-07
6.43272207676e-08
3.18109797162e-07
5.04155461456e-08
2.98359214562e-07
3.47156947e-08
2.82105224847e-07
1.77738269279e-08
2.66630269263e-07
3.19371111527e-09
2.51482949751e-07
-4.81455194038e-09
2.39715718878e-07
-7.10690496621e-09
2.3780373439e-07
-7.89926575721e-09
2.45509666155e-07
-8.54177923491e-09
2.56061805894e-07
-9.11668636736e-09
2.67347926065e-07
-9.61712526993e-09
2.79268529355e-07
-1.00386258448e-08
2.91865160527e-07
-1.03802050857e-08
3.05173759903e-07
3.19222680252e-07
-1.06428861654e-08
1.53209511362e-07
3.34759159731e-07
1.29501487766e-07
3.11264131211e-07
1.12996702002e-07
3.2856426289e-07
9.94254818786e-08
3.48695613639e-07
8.81077615246e-08
3.57381620878e-07
7.84802257091e-08
3.47495968949e-07
6.80370200824e-08
3.28137830383e-07
5.56176136875e-08
3.10466958465e-07
4.02274929696e-08
2.97246223895e-07
2.22840933769e-08
2.84363773752e-07
5.10328268376e-09
2.68502571231e-07
-5.9274268517e-09
2.50664161318e-07
-9.42066425207e-09
2.41279989397e-07
-1.01779800911e-08
2.46266144968e-07
-1.06238903757e-08
2.56507711069e-07
-1.09984538936e-08
2.6772248391e-07
-1.13005947063e-08
2.79570671697e-07
-1.15228829762e-08
2.92087444973e-07
-1.16603046194e-08
3.05311182976e-07
3.19273277761e-07
-1.17109053877e-08
1.53833395653e-07
3.41283737804e-07
1.28452299521e-07
3.21269880224e-07
1.10387199332e-07
3.40797232856e-07
9.68622871381e-08
3.59957847613e-07
8.73985539797e-08
3.65814146226e-07
8.00318572599e-08
3.54272049847e-07
7.14974210099e-08
3.36264081425e-07
5.99263129471e-08
3.21721110725e-07
4.43570057149e-08
3.12540153905e-07
2.5757804916e-08
3.0270242653e-07
7.42721529251e-09
2.8660623725e-07
-5.50043891424e-09
2.63457401086e-07
-1.06686542014e-08
2.46413972041e-07
-1.17450918237e-08
2.47340248409e-07
-1.20957462192e-08
2.56858332194e-07
-1.23272453679e-08
2.679539769e-07
-1.24721426667e-08
2.79715570684e-07
-1.25281120165e-08
2.92143410186e-07
-1.24918959665e-08
3.05274968514e-07
3.19143206553e-07
-1.2361828275e-08
1.52821532235e-07
3.48801266552e-07
1.26881498338e-07
3.31724836943e-07
1.09238697229e-07
3.52505842574e-07
9.6728936717e-08
3.70155741763e-07
8.89228190046e-08
3.72583016296e-07
8.31677241265e-08
3.59445386268e-07
7.54635884829e-08
3.4356866949e-07
6.34680445874e-08
3.3339561015e-07
4.68795120205e-08
3.28823919599e-07
2.77042777374e-08
3.21565214121e-07
9.77540326371e-09
3.042449819e-07
-3.72529157696e-09
2.76772746662e-07
-1.10319912297e-08
2.53663556638e-07
-1.30160305159e-08
2.49318345365e-07
-1.33357861755e-08
2.57177894721e-07
-1.34014817727e-08
2.68019663988e-07
-1.33694689017e-08
2.79683559408e-07
-1.32464598865e-08
2.92020396759e-07
-1.30326478478e-08
3.05061158057e-07
3.18838155789e-07
-1.27276007917e-08
1.49920427759e-07
3.59801777018e-07
1.23564995092e-07
3.42726078966e-07
1.07758874697e-07
3.62361374287e-07
9.78573433964e-08
3.77700579529e-07
9.21987306268e-08
3.77186717623e-07
8.74092607253e-08
3.63655691536e-07
7.95010293234e-08
3.51081602724e-07
6.59724392668e-08
3.46590036126e-07
4.83488929974e-08
3.4610527228e-07
2.96233290972e-08
3.39925909262e-07
1.36151401201e-08
3.19911498664e-07
2.10857014604e-10
2.89948823163e-07
-9.99495953515e-09
2.63781853377e-07
-1.41092380247e-08
2.53417292493e-07
-1.46537714296e-08
2.57721318509e-07
-1.45016161105e-08
2.67867475814e-07
-1.42406199267e-08
2.79422564885e-07
-1.39009329526e-08
2.9168070503e-07
-1.3485459629e-08
3.0464568644e-07
3.18346885925e-07
-1.29941937385e-08
1.47834378932e-07
3.73670098199e-07
1.20955132935e-07
3.54472870115e-07
1.06344707697e-07
3.71173502097e-07
9.89344386407e-08
3.82802074346e-07
9.50721274828e-08
3.80001971607e-07
9.01499569618e-08
3.68002664649e-07
8.11238055111e-08
3.59707760387e-07
6.64209691773e-08
3.60930142227e-07
4.93606555081e-08
3.62781466189e-07
3.37605321769e-08
3.55120467954e-07
2.09218993884e-08
3.32377508593e-07
7.55514674395e-09
3.03053383823e-07
-6.20278548994e-09
2.77409567256e-07
-1.43727554562e-08
2.61548395542e-07
-1.60433130228e-08
2.59386390379e-07
-1.57180350525e-08
2.67541961807e-07
-1.52027808669e-08
2.78907310988e-07
-1.46317967932e-08
2.91109715854e-07
-1.40084762939e-08
3.04022367601e-07
3.17669307846e-07
-1.33309024081e-08
1.51472207783e-07
3.82847883413e-07
1.25943828227e-07
3.64107751479e-07
1.11753331955e-07
3.79281709001e-07
1.04020607823e-07
3.88164947955e-07
9.90058336759e-08
3.83966930068e-07
9.22605660748e-08
3.74172443673e-07
8.10193905495e-08
3.7053810496e-07
6.65773730779e-08
3.74981022604e-07
5.26812474206e-08
3.76263391764e-07
4.08098404658e-08
3.66574191503e-07
3.02581859767e-08
3.42556225219e-07
1.69418478962e-08
3.16083252549e-07
2.87527444096e-10
2.9387834956e-07
-1.30225134146e-08
2.74770791616e-07
-1.71990961645e-08
2.63542269202e-07
-1.69229292321e-08
2.67264450332e-07
-1.62089519629e-08
2.78193322632e-07
-1.54651809481e-08
2.90365939281e-07
-1.468578986e-08
3.03242978227e-07
3.16844926558e-07
-1.38614130506e-08
1.5407884105e-07
3.88947341294e-07
1.30589310842e-07
3.71019568934e-07
1.1773541976e-07
3.85679438019e-07
1.08911259799e-07
3.94468329422e-07
1.01510556667e-07
3.90278091458e-07
9.25975661095e-08
3.82498540949e-07
8.05107154809e-08
3.82194424883e-07
6.82010018094e-08
3.86879641934e-07
5.75277002766e-08
3.86519971764e-07
4.85439712806e-08
3.75144710953e-07
3.90089239314e-08
3.51725035566e-07
2.53908941421e-08
3.29397130433e-07
7.17447776826e-09
3.11847452637e-07
-9.90814116404e-09
2.91690063391e-07
-1.72270723073e-08
2.70805871422e-07
-1.76276704965e-08
2.67660102677e-07
-1.70536008665e-08
2.77619190775e-07
-1.6369519055e-08
2.89681851462e-07
-1.55862914409e-08
3.02459752272e-07
3.15963727314e-07
-1.47050969043e-08
1.54795956001e-07
3.94025546018e-07
1.32372816472e-07
3.76510732813e-07
1.19841088505e-07
3.91511751255e-07
1.10165529356e-07
4.01514513063e-07
1.00849094095e-07
3.98473772338e-07
9.04052391946e-08
3.92346605156e-07
7.93409674104e-08
3.92819037077e-07
6.9319402478e-08
3.96489996038e-07
6.06118381704e-08
3.94814916016e-07
5.3676127585e-08
3.81682970014e-07
4.41070038497e-08
3.60945352583e-07
2.92513080123e-08
3.43935414688e-07
1.03596247171e-08
3.30433019342e-07
-7.32086787429e-09
3.09126580036e-07
-1.64508757431e-08
2.79835009542e-07
-1.81296638891e-08
2.69327620917e-07
-1.81162163699e-08
2.77605556921e-07
-1.77189227256e-08
2.89284551152e-07
-1.70367193764e-08
3.01777550679e-07
3.15051937755e-07
-1.61249347907e-08
1.54270892436e-07
3.99941141102e-07
1.31089644932e-07
3.82794696247e-07
1.18062084915e-07
3.97794572004e-07
1.07761775537e-07
4.09149835793e-07
9.75881508356e-08
4.07513903822e-07
8.70343429778e-08
4.02300109804e-07
7.69885415493e-08
4.02425581053e-07
6.8350988242e-08
4.04721385725e-07
6.19797259616e-08
4.00787493478e-07
5.60510281957e-08
3.8724274322e-07
4.43943210056e-08
3.72272313615e-07
2.77042453224e-08
3.60293539087e-07
8.03855400017e-09
3.49746697969e-07
-8.49811849799e-09
3.25365806544e-07
-1.80958909529e-08
2.89300916964e-07
-2.08260867769e-08
2.72040247802e-07
-2.10472056561e-08
2.77826276106e-07
-2.06072785679e-08
2.8884461599e-07
-1.9732542442e-08
3.00902816223e-07
3.13855088993e-07
-1.85356989256e-08
1.50901854127e-07
4.09252047904e-07
1.26077548425e-07
3.91486043658e-07
1.11852182677e-07
4.05728943743e-07
1.00856212312e-07
4.1765538354e-07
9.07942350914e-08
4.16501997451e-07
8.11935372576e-08
4.11321275066e-07
7.26735061814e-08
4.10516896264e-07
6.66669653665e-08
4.10336312754e-07
6.27625387112e-08
4.04321540123e-07
5.6118045303e-08
3.93553957913e-07
4.33321905078e-08
3.84733758727e-07
2.43632607539e-08
3.78915861722e-07
4.08664351422e-09
3.69636061772e-07
-1.24378284159e-08
3.4156725961e-07
-2.39450716185e-08
3.00659181247e-07
-2.76919486563e-08
2.75762466501e-07
-2.7156103715e-08
2.7728954553e-07
-2.57688782985e-08
2.87457377795e-07
-2.40086014744e-08
2.99142540955e-07
3.1185949635e-07
-2.20130143961e-08
1.50578323618e-07
4.18469960674e-07
1.24807409702e-07
4.01174339477e-07
1.06981177792e-07
4.17455613228e-07
9.35909292198e-08
4.2870007285e-07
8.30477584164e-08
4.26040993584e-07
7.45182635022e-08
4.19299340119e-07
6.8632698831e-08
4.15990788491e-07
6.57964023639e-08
4.12806251203e-07
6.33945381657e-08
4.06389241686e-07
5.59664849474e-08
4.0066921418e-07
4.3875100824e-08
3.96501137493e-07
2.37808475222e-08
3.98626310508e-07
4.39836099802e-09
3.88599223458e-07
-1.37030795965e-08
3.59320980706e-07
-3.06849770439e-08
3.17463177325e-07
-3.7352279091e-08
2.82388175425e-07
-3.5388597813e-08
2.75323165383e-07
-3.21495935306e-08
2.84218338314e-07
-2.88740015244e-08
2.95866950057e-07
3.08658148892e-07
-2.56726600485e-08
1.47088270971e-07
4.31421807308e-07
1.19401783045e-07
4.12646331414e-07
9.94418863509e-08
4.31272296197e-07
8.4519306111e-08
4.41330439742e-07
7.43016420769e-08
4.35295985059e-07
6.80694392973e-08
4.24998496096e-07
6.52545477075e-08
4.18410013775e-07
6.46721888584e-08
4.13046184461e-07
6.2712093152e-08
4.08037634337e-07
5.69089567307e-08
4.06157792252e-07
4.48863170826e-08
4.08180115369e-07
2.93928955971e-08
4.13689552593e-07
1.49130192611e-08
4.02619128737e-07
-5.08110932654e-09
3.7891472946e-07
-2.97890521598e-08
3.41911352009e-07
-4.35979475491e-08
2.96103339822e-07
-4.14571356414e-08
2.73172343319e-07
-3.63910573414e-08
2.79152113832e-07
-3.17557884385e-08
2.91231680726e-07
3.04493132337e-07
-2.7590778533e-08
1.51213606987e-07
4.39734793528e-07
1.22039930402e-07
4.24395873948e-07
1.01312883467e-07
4.45388833226e-07
8.45836805926e-08
4.55618831571e-07
7.28115174932e-08
4.46072710973e-07
6.69443683712e-08
4.30329835876e-07
6.49939512257e-08
4.1997070949e-07
6.40739815658e-08
4.13633820289e-07
6.0730000431e-08
4.11070960259e-07
5.3862807721e-08
4.12702987869e-07
4.15706252661e-08
4.20085453442e-07
3.58925533935e-08
4.18885848301e-07
3.01873749045e-08
4.07826181545e-07
1.56299463968e-08
3.92972505448e-07
-1.21765172023e-08
3.69297045433e-07
-3.53991649689e-08
3.19105499992e-07
-3.86651857914e-08
2.76402332378e-07
-3.41212915994e-08
2.74607432227e-07
-2.97124537225e-08
2.86822834531e-07
3.0057414008e-07
-2.57934698609e-08
1.62904613853e-07
4.36514574254e-07
1.36770111334e-07
4.31937576884e-07
1.18456802181e-07
4.56231214844e-07
1.00683078063e-07
4.70480477413e-07
8.49115170532e-08
4.60654084187e-07
7.4956392572e-08
4.39678869044e-07
6.98106344816e-08
4.24704186548e-07
6.50697316436e-08
4.18032131289e-07
5.68323323568e-08
4.18979455212e-07
4.50203845094e-08
4.24150850874e-07
3.66195588671e-08
4.28029234496e-07
3.48974217362e-08
4.20135819973e-07
3.35445234123e-08
4.0868308876e-07
2.8363907569e-08
3.97627034807e-07
1.16872501636e-08
3.85419684923e-07
-1.30129627641e-08
3.43414214516e-07
-2.56761296975e-08
2.88961958715e-07
-2.48132185552e-08
2.73740033386e-07
-2.2465895565e-08
2.84475457259e-07
2.98265664447e-07
-2.0157436332e-08
1.63350561856e-07
4.32244993194e-07
1.42141937358e-07
4.34962696337e-07
1.32318217577e-07
4.58550151782e-07
1.20789995761e-07
4.78886634143e-07
1.04852038387e-07
4.75246088272e-07
9.0160767219e-08
4.53695316146e-07
7.87220967797e-08
4.35704921471e-07
6.71578908758e-08
4.2923327604e-07
5.30935335399e-08
4.32672999686e-07
4.0145327294e-08
4.36678513023e-07
3.60281328944e-08
4.31699126536e-07
3.5647854114e-08
4.20049793739e-07
3.48099285508e-08
4.09023782723e-07
3.09194678228e-08
4.0099627835e-07
2.50595739571e-08
3.9073435408e-07
7.87260077958e-09
3.60118244667e-07
-8.94636808487e-09
3.0557525789e-07
-1.27952977027e-08
2.77570908251e-07
-1.30193260851e-08
2.84699169576e-07
2.98022343911e-07
-1.27760556063e-08
1.6636024664e-07
4.26261787672e-07
1.48142725857e-07
4.34886128871e-07
1.42024280288e-07
4.57081847759e-07
1.36161977699e-07
4.81458765397e-07
1.23146020951e-07
4.86764042998e-07
1.06038457152e-07
4.70024435678e-07
8.84612064906e-08
4.52779237008e-07
7.0667237622e-08
4.4660908522e-07
5.47420283094e-08
4.48174965262e-07
4.45151321915e-08
4.46461267997e-07
3.97993856085e-08
4.35971628394e-07
4.03777991839e-08
4.19025179646e-07
4.11175252579e-08
4.07808543555e-07
3.69169886747e-08
4.0468580291e-07
3.04345799242e-08
3.96683367864e-07
1.93898010889e-08
3.7064178321e-07
5.15593528329e-09
3.19520568766e-07
-2.01456891803e-09
2.84697161763e-07
-4.51413320714e-09
2.87197408677e-07
2.99586583492e-07
-6.0785273734e-09
1.64508106479e-07
4.21017158449e-07
1.48302666343e-07
4.33201788592e-07
1.41675224426e-07
4.56100926332e-07
1.37119190537e-07
4.8281415003e-07
1.26714289809e-07
4.95695505724e-07
1.10920725215e-07
4.85028497452e-07
9.26910167955e-08
4.7047549721e-07
7.47655557353e-08
4.64079060929e-07
6.06038700114e-08
4.61891287135e-07
5.10396402796e-08
4.55584841362e-07
4.56081047364e-08
4.40979034805e-07
4.3143794906e-08
4.21095004824e-07
4.27779327602e-08
4.07752205891e-07
3.99494055391e-08
4.07015726604e-07
3.19123105692e-08
4.04183399244e-07
2.3003708853e-08
3.79031142458e-07
1.25506490326e-08
3.29653186906e-07
4.81145479799e-09
2.9236720859e-07
8.96080373558e-10
2.9110936785e-07
3.022901965e-07
-1.80794170163e-09
1.63457479028e-07
4.18410506598e-07
1.45803205873e-07
4.32979735043e-07
1.371114447e-07
4.57534741115e-07
1.30234210083e-07
4.86588798154e-07
1.19937408097e-07
5.04575050294e-07
1.06678734263e-07
4.97509053558e-07
9.22470962885e-08
4.84363884659e-07
7.8311823894e-08
4.77547084054e-07
6.66589987784e-08
4.73098626594e-07
5.80571661921e-08
4.637563488e-07
5.19051615203e-08
4.46740226235e-07
4.30239525775e-08
4.2962914546e-07
3.65420626366e-08
4.13865670884e-07
3.5430393988e-08
4.07675035086e-07
2.89897780618e-08
4.10100852635e-07
2.15911316765e-08
3.85915117684e-07
1.3149675896e-08
3.3776738111e-07
6.42541527409e-09
2.99009117968e-07
2.22404401475e-09
2.95304912149e-07
3.05300982808e-07
-7.87640925177e-10
1.60687730681e-07
4.17690147154e-07
1.41797003239e-07
4.34584853052e-07
1.31214473945e-07
4.60924059725e-07
1.22681307523e-07
4.92216503683e-07
1.12489010352e-07
5.13452760371e-07
1.01325448828e-07
5.07947216052e-07
9.02889340074e-08
4.94883143873e-07
7.98792094948e-08
4.87504552564e-07
7.11663138596e-08
4.81379046496e-07
6.49932190219e-08
4.6952365464e-07
5.78121406698e-08
4.53569372517e-07
4.37334702738e-08
4.43377687932e-07
3.01222218868e-08
4.27127746894e-07
2.56835737654e-08
4.1171184899e-07
2.30023988931e-08
4.12278960255e-07
1.71576123036e-08
3.91262010334e-07
9.12149894162e-09
3.4547659065e-07
3.45315053542e-09
3.04589718158e-07
-2.52469930864e-10
2.99002659017e-07
3.07934438008e-07
-2.8876067563e-09
1.57092326424e-07
4.22272521721e-07
1.3603941129e-07
4.39133050595e-07
1.24907310773e-07
4.65592543664e-07
1.1590877863e-07
4.98530286946e-07
1.06015392513e-07
5.22130843188e-07
9.57858079046e-08
5.17489325091e-07
8.67082866442e-08
5.0345999608e-07
7.93695247489e-08
4.94403437901e-07
7.4414822875e-08
4.85919688997e-07
7.02110981123e-08
4.73352393954e-07
6.0993170418e-08
4.6246633323e-07
4.55629829343e-08
4.5847597405e-07
2.80542262494e-08
4.44294320455e-07
1.64263751729e-08
4.22979103596e-07
1.52168096478e-08
4.13042625625e-07
9.33744425792e-09
3.96676727358e-07
1.5329365962e-09
3.529543668e-07
-2.99290890322e-09
3.09024276616e-07
-5.6837770412e-09
3.01683767139e-07
3.09675987544e-07
-7.42813029289e-09
1.56281588607e-07
4.26616335577e-07
1.35987260903e-07
4.43433815329e-07
1.24366040979e-07
4.7085645649e-07
1.15534014069e-07
5.04886984131e-07
1.04817480765e-07
5.31723610535e-07
9.42024757877e-08
5.27458653179e-07
8.58092987707e-08
5.11375462152e-07
8.04550480472e-08
4.99339603165e-07
7.7657148577e-08
4.88332953946e-07
7.42940723224e-08
4.763736997e-07
6.44753739765e-08
4.71975357059e-07
5.0250582001e-08
4.72382296737e-07
3.24361615569e-08
4.61766456655e-07
1.53658943889e-08
4.39694591079e-07
8.0655546946e-09
4.19962116813e-07
-6.41309827808e-10
4.04949258548e-07
-8.55241419279e-09
3.60537945858e-07
-1.16214826556e-08
3.11998426832e-07
-1.29267202228e-08
3.02977052347e-07
3.10163890419e-07
-1.34189946256e-08
1.57357288915e-07
4.30278151426e-07
1.38109520476e-07
4.46236633623e-07
1.28291383064e-07
4.74480086267e-07
1.21498837454e-07
5.09205824164e-07
1.1083074848e-07
5.41290084586e-07
9.95794563885e-08
5.38077731527e-07
9.11137269742e-08
5.19373147016e-07
8.57956215687e-08
5.04254580255e-07
8.24866957051e-08
4.91279912024e-07
7.87286078682e-08
4.79813292444e-07
7.08386222826e-08
4.79562706588e-07
5.93899907778e-08
4.83505531801e-07
4.32599568961e-08
4.77567379235e-07
2.53018164486e-08
4.57298372878e-07
9.96338554972e-09
4.3493193368e-07
-7.29033835008e-09
4.21787769942e-07
-1.82588984383e-08
3.71169875126e-07
-2.03528963253e-08
3.13992949025e-07
-2.03864312214e-08
3.02995562866e-07
3.09332250982e-07
-1.95614021409e-08
1.59428873695e-07
4.31012163217e-07
1.42569874844e-07
4.46383385569e-07
1.35107905701e-07
4.75287752997e-07
1.31413320155e-07
5.10350295362e-07
1.24577291445e-07
5.46978205063e-07
1.13097768949e-07
5.48905367296e-07
1.03133537322e-07
5.28865428285e-07
9.65836945219e-08
5.10403006507e-07
9.22417611472e-08
4.95263368993e-07
8.83979697695e-08
4.83342043536e-07
8.31067746208e-08
4.84548651021e-07
7.47947630282e-08
4.91505441673e-07
6.19830478943e-08
4.90036436224e-07
4.47068094099e-08
4.74232001935e-07
2.6304864317e-08
4.52969653127e-07
-1.05182756611e-08
4.58158370233e-07
-2.63345264117e-08
3.86620940441e-07
-2.79162855119e-08
3.1546780377e-07
-2.67254881984e-08
3.01784637869e-07
3.07147087162e-07
-2.45502280262e-08
1.63053083756e-07
4.28393642095e-07
1.48187762045e-07
4.43661893115e-07
1.43590656723e-07
4.72990326335e-07
1.43029456341e-07
5.08085098259e-07
1.42684972882e-07
5.46063063302e-07
1.33794944618e-07
5.57083011683e-07
1.21910065566e-07
5.40246182343e-07
1.13226330011e-07
5.18670668476e-07
1.08181075338e-07
4.99944115503e-07
1.0536277088e-07
4.85843077722e-07
1.0317087209e-07
4.86441511443e-07
9.86564980772e-08
4.95695879109e-07
9.05975370478e-08
4.97773084699e-07
7.80517956651e-08
4.86415998232e-07
5.06514531926e-08
4.79980463394e-07
-1.07471497062e-08
5.1903453792e-07
-3.05084330248e-08
4.0596077265e-07
-3.2409706387e-08
3.17244851956e-07
-3.00399870495e-08
2.99385443738e-07
3.03793301646e-07
-2.67009988821e-08
1.63389554196e-07
4.25217311799e-07
1.5061101172e-07
4.39264622522e-07
1.49383333789e-07
4.67085921091e-07
1.53109536189e-07
5.0146699487e-07
1.58029943726e-07
5.39801919887e-07
1.551233824e-07
5.5922832579e-07
1.45008481196e-07
5.49819987426e-07
1.35256394895e-07
5.27980466373e-07
1.29389077656e-07
5.05429979377e-07
1.27370697465e-07
4.87535711013e-07
1.2803897346e-07
4.85470861879e-07
1.27118467868e-07
4.96311206797e-07
1.23524326542e-07
5.01020765343e-07
1.15748641826e-07
4.93830089886e-07
6.10790088217e-08
5.34225624888e-07
4.84348798196e-09
5.74571806652e-07
-2.14219632347e-08
4.31735820192e-07
-2.79905399495e-08
3.23648354934e-07
-2.66266380024e-08
2.9797611799e-07
3.0082612869e-07
-2.3681418862e-08
1.66508086685e-07
4.19014288362e-07
1.55882389184e-07
4.3217023527e-07
1.56291885059e-07
4.59556272344e-07
1.61499502057e-07
4.93205513495e-07
1.68505693693e-07
5.31389122431e-07
1.70361125505e-07
5.56565989973e-07
1.65109520581e-07
5.54493009679e-07
1.57545547924e-07
5.35068467056e-07
1.52110618609e-07
5.10456827541e-07
1.50175433816e-07
4.89129329299e-07
1.50905387384e-07
4.84444310484e-07
1.49800825171e-07
4.97086566123e-07
1.45238991682e-07
5.05259687285e-07
1.16340038506e-07
5.22407145514e-07
5.60761718291e-08
5.93859107201e-07
3.07023929329e-08
5.99228270208e-07
-3.57767317923e-10
4.62211686611e-07
-1.37136491771e-08
3.36766622373e-07
-1.5825799041e-08
3.00019168554e-07
3.00091910882e-07
-1.51236582276e-08
1.67385551329e-07
4.11567403335e-07
1.58982439365e-07
4.22697339322e-07
1.59895079265e-07
4.51080047459e-07
1.65266194432e-07
4.84726228882e-07
1.72398162299e-07
5.22804433233e-07
1.77020717817e-07
5.51116875907e-07
1.77380186499e-07
5.53540146187e-07
1.75202348948e-07
5.3675571496e-07
1.73060742401e-07
5.12178580068e-07
1.72062603478e-07
4.89783403996e-07
1.71492744217e-07
4.84722133392e-07
1.68736575078e-07
4.99566498691e-07
1.53618381613e-07
5.20079337678e-07
9.60934397807e-08
5.79430098871e-07
6.76967974575e-08
6.21564752694e-07
4.93183282815e-08
6.16876549183e-07
1.98091068271e-08
4.91104070634e-07
3.28972174466e-09
3.5297963012e-07
-1.96825917901e-09
3.05181028008e-07
3.01732533449e-07
-3.6529795342e-09
1.68395260708e-07
4.03556203303e-07
1.62416242636e-07
4.10296480994e-07
1.63365667342e-07
4.4240505733e-07
1.68467001262e-07
4.76332444859e-07
1.75191082427e-07
5.14574426964e-07
1.818605369e-07
5.43597096713e-07
1.86672260365e-07
5.48126700001e-07