/*--------------------------------*- C++ -*----------------------------------*\
| =========                 |                                                 |
| \\      /  F ield         | OpenFOAM: The Open Source CFD Toolbox           |
|  \\    /   O peration     | Version:  2312                                  |
|   \\  /    A nd           | Website:  www.openfoam.com                      |
|    \\/     M anipulation  |                                                 |
\*---------------------------------------------------------------------------*/
FoamFile
{
    version     2.0;
    format      ascii;
    arch        "LSB;label=32;scalar=64";
    class       volScalarField;
    location    "83";
    object      alpha.airMean;
}
// * * * * * * * * * * * * * * * * * * * * * * * * * * * * * * * * * * * * * //

dimensions      [0 0 0 0 0 0 0];

internalField   nonuniform List<scalar> 
1875
(
0.212361
0.19752
0.195876
0.200933
0.208256
0.215747
0.223689
0.232789
0.242633
0.250255
0.256464
0.261315
0.26531
0.270065
0.273381
0.2734
0.270843
0.263215
0.251712
0.238669
0.225939
0.218117
0.215839
0.218634
0.225961
0.159003
0.152209
0.151449
0.153635
0.158965
0.165585
0.173501
0.181842
0.189872
0.197181
0.203439
0.210049
0.218217
0.228137
0.240149
0.250644
0.256464
0.255853
0.249195
0.235576
0.218465
0.203999
0.196179
0.192389
0.178704
0.125499
0.135243
0.149869
0.157327
0.162502
0.166884
0.172151
0.177101
0.182391
0.187684
0.194317
0.201556
0.21015
0.220072
0.231798
0.243986
0.252446
0.257004
0.251678
0.240337
0.225251
0.210025
0.199976
0.190332
0.175796
0.101132
0.127336
0.162681
0.179625
0.18619
0.191632
0.19631
0.202832
0.208128
0.212769
0.218293
0.224425
0.231436
0.238256
0.245914
0.253329
0.259812
0.262032
0.256616
0.245634
0.232775
0.219971
0.209687
0.19506
0.176267
0.0921723
0.129222
0.173765
0.19421
0.201649
0.205251
0.20977
0.213575
0.218112
0.222375
0.227857
0.233629
0.238749
0.24401
0.248522
0.253088
0.254847
0.252354
0.24693
0.239508
0.230816
0.221143
0.21008
0.192792
0.176637
0.093448
0.136159
0.181052
0.203496
0.213225
0.217065
0.218993
0.221371
0.224052
0.228547
0.233502
0.238108
0.241399
0.243351
0.244979
0.24449
0.241447
0.238569
0.235543
0.232115
0.227312
0.219372
0.207067
0.190055
0.186429
0.0942911
0.145816
0.185637
0.206174
0.223243
0.230007
0.231869
0.232467
0.232741
0.233222
0.23402
0.234673
0.233942
0.2322
0.230266
0.229096
0.227469
0.225233
0.223041
0.222299
0.219454
0.213014
0.201581
0.187205
0.185126
0.0972146
0.157393
0.194597
0.217174
0.241053
0.248126
0.2477
0.243941
0.239101
0.233327
0.227512
0.222124
0.218847
0.21699
0.216183
0.215021
0.213285
0.210857
0.210008
0.210695
0.211194
0.207324
0.19736
0.185736
0.186989
0.0985072
0.170666
0.205068
0.230019
0.253152
0.25759
0.252193
0.243444
0.234433
0.224767
0.216527
0.210525
0.205565
0.203126
0.20144
0.199338
0.197264
0.195997
0.197259
0.201672
0.205533
0.20285
0.193571
0.184781
0.185013
0.101839
0.187643
0.212243
0.234744
0.252854
0.256252
0.249454
0.239298
0.22966
0.218932
0.209143
0.200472
0.194107
0.190273
0.187983
0.186388
0.185875
0.186556
0.190129
0.197316
0.202022
0.199874
0.191436
0.185698
0.184936
0.111966
0.20708
0.214412
0.231693
0.245897
0.250651
0.245827
0.236757
0.226004
0.214092
0.202773
0.193494
0.186443
0.182221
0.180481
0.180693
0.181541
0.182976
0.187691
0.195328
0.19991
0.197942
0.191804
0.188354
0.183146
0.122529
0.206236
0.21673
0.226262
0.237818
0.243274
0.241274
0.233713
0.222697
0.210963
0.200147
0.191188
0.184823
0.180543
0.179435
0.180635
0.182308
0.184287
0.18929
0.195698
0.199531
0.197545
0.193444
0.191833
0.183161
0.128958
0.205682
0.216927
0.222296
0.231564
0.235774
0.235951
0.228897
0.219116
0.209303
0.20016
0.192622
0.186734
0.183141
0.181967
0.183019
0.185078
0.18792
0.192707
0.197655
0.200764
0.199166
0.196178
0.193584
0.182318
0.132881
0.206074
0.217085
0.221119
0.228588
0.230973
0.230977
0.224953
0.216885
0.209193
0.202245
0.196439
0.191502
0.18751
0.185832
0.186462
0.188798
0.191578
0.195559
0.200085
0.203154
0.203272
0.200135
0.190924
0.172361
0.133177
0.208354
0.218698
0.22222
0.227217
0.22956
0.229245
0.22366
0.217145
0.211001
0.205468
0.200812
0.196476
0.192415
0.190024
0.18985
0.19105
0.19296
0.197097
0.201648
0.204904
0.206132
0.202895
0.187514
0.154102
0.13396
0.210087
0.222396
0.224805
0.229016
0.230118
0.230002
0.225273
0.219366
0.21417
0.209319
0.204672
0.201129
0.196688
0.193571
0.192977
0.193679
0.194672
0.197444
0.201562
0.204403
0.204809
0.202683
0.188629
0.143577
0.136154
0.208512
0.225783
0.228867
0.231522
0.232692
0.23138
0.227814
0.222776
0.218385
0.213387
0.208194
0.203838
0.199709
0.196515
0.195561
0.195834
0.195982
0.197637
0.20064
0.202429
0.202195
0.202211
0.193535
0.142937
0.140578
0.20478
0.228767
0.233603
0.235955
0.23565
0.234009
0.230256
0.226396
0.222613
0.217241
0.211466
0.206469
0.202557
0.199087
0.19693
0.19696
0.197222
0.198409
0.200235
0.201419
0.200533
0.201296
0.198619
0.144047
0.148631
0.200945
0.228136
0.23721
0.23991
0.238825
0.235438
0.231103
0.228798
0.226777
0.222329
0.216846
0.210716
0.206042
0.201817
0.199256
0.1986
0.198813
0.199868
0.200718
0.200475
0.198107
0.19964
0.200129
0.145172
0.169006
0.199233
0.224113
0.237656
0.241498
0.239608
0.236244
0.232627
0.230637
0.229516
0.226971
0.22201
0.2158
0.210303
0.205741
0.203549
0.202767
0.201941
0.201799
0.201245
0.200027
0.19662
0.198469
0.200984
0.144752
0.171126
0.19884
0.217844
0.23364
0.240001
0.239285
0.236558
0.233748
0.232265
0.230749
0.227585
0.2237
0.219515
0.215071
0.21126
0.208442
0.207486
0.205547
0.204111
0.202622
0.200972
0.196873
0.199433
0.203402
0.145995
0.170532
0.197846
0.2121
0.22584
0.234211
0.236231
0.234527
0.232715
0.231308
0.229776
0.226713
0.223493
0.220873
0.21822
0.215477
0.213107
0.211548
0.209678
0.207345
0.204849
0.203071
0.19911
0.202093
0.207848
0.145132
0.171262
0.197324
0.2102
0.218896
0.224946
0.22838
0.229198
0.2292
0.229153
0.228034
0.226143
0.223825
0.222201
0.220256
0.218181
0.216645
0.215297
0.212863
0.210038
0.207808
0.206678
0.202531
0.206509
0.210889
0.146143
0.1708
0.197501
0.209717
0.214896
0.216872
0.218949
0.221901
0.224555
0.226203
0.226739
0.225882
0.22422
0.222656
0.221115
0.219331
0.218439
0.21727
0.216082
0.214244
0.212323
0.210382
0.206888
0.212381
0.212274
0.144498
0.170365
0.196642
0.20903
0.21336
0.212576
0.212443
0.215801
0.219625
0.223141
0.225072
0.225553
0.224404
0.22318
0.221237
0.2199
0.219362
0.219351
0.219755
0.219515
0.218149
0.215603
0.211037
0.219097
0.212729
0.144887
0.166289
0.195784
0.209198
0.212712
0.210869
0.209252
0.211352
0.215644
0.220395
0.223894
0.225131
0.22494
0.223783
0.222029
0.220581
0.220403
0.221679
0.223513
0.224273
0.223025
0.219778
0.214772
0.221025
0.213554
0.143174
0.155646
0.197267
0.216798
0.212649
0.210039
0.20901
0.210127
0.213275
0.218428
0.223385
0.225598
0.225391
0.224693
0.223252
0.222178
0.22272
0.224965
0.22702
0.227582
0.226002
0.222738
0.217897
0.222142
0.214172
0.143897
0.14305
0.19977
0.223029
0.211488
0.208719
0.209075
0.211191
0.214643
0.218932
0.223807
0.226851
0.227287
0.226621
0.225719
0.225533
0.226234
0.22791
0.229381
0.229666
0.228207
0.225103
0.221024
0.222388
0.214905
0.142793
0.134134
0.203324
0.221462
0.208378
0.207511
0.209691
0.21267
0.217116
0.221548
0.226116
0.228942
0.229701
0.228991
0.227737
0.227881
0.228523
0.229088
0.230039
0.230433
0.228962
0.226923
0.222835
0.22218
0.214515
0.144014
0.131453
0.206439
0.219644
0.205501
0.206979
0.21026
0.214268
0.218778
0.223844
0.227999
0.231041
0.232193
0.231137
0.228902
0.228166
0.228318
0.229294
0.229356
0.229494
0.228332
0.227162
0.223147
0.221289
0.213385
0.144409
0.130741
0.20755
0.217851
0.203796
0.20618
0.20986
0.21552
0.221542
0.226139
0.229503
0.23175
0.232671
0.231482
0.229248
0.227507
0.227324
0.227619
0.227561
0.227158
0.226645
0.2259
0.222573
0.219741
0.211701
0.145803
0.130055
0.208149
0.21675
0.203647
0.206599
0.210498
0.21689
0.22397
0.228716
0.231175
0.232296
0.232457
0.230968
0.229026
0.227388
0.22689
0.226473
0.225331
0.224775
0.224516
0.224747
0.221966
0.218246
0.208671
0.145626
0.129548
0.208869
0.216509
0.205251
0.209036
0.213466
0.220138
0.226395
0.230684
0.232399
0.233023
0.232632
0.231176
0.22944
0.227848
0.226814
0.225788
0.224432
0.223528
0.223348
0.224187
0.221546
0.217042
0.205263
0.146778
0.130358
0.209882
0.21775
0.20759
0.212852
0.218156
0.224031
0.229071
0.23222
0.23336
0.233257
0.232328
0.230594
0.229227
0.228143
0.227066
0.225267
0.223669
0.222528
0.2225
0.223289
0.221349
0.215705
0.201362
0.147545
0.130404
0.212961
0.222223
0.211596
0.217051
0.22229
0.227387
0.230811
0.233483
0.234618
0.234256
0.232122
0.229852
0.228335
0.22728
0.226233
0.224657
0.223146
0.222193
0.22191
0.222538
0.220906
0.21415
0.198028
0.148646
0.131888
0.216467
0.227969
0.2152
0.22136
0.225381
0.229134
0.231898
0.234284
0.235219
0.234809
0.232528
0.22947
0.227301
0.225912
0.224647
0.223778
0.223075
0.222372
0.222181
0.22176
0.220249
0.213016
0.195766
0.150773
0.132453
0.218709
0.230155
0.218664
0.225427
0.22878
0.231005
0.233096
0.234691
0.235306
0.234293
0.232077
0.228727
0.226479
0.224571
0.223383
0.223271
0.223015
0.222335
0.222008
0.221124
0.219967
0.212299
0.195294
0.152839
0.1343
0.220146
0.231749
0.221744
0.228206
0.231251
0.233463
0.234144
0.234802
0.234367
0.233074
0.231292
0.228309
0.225938
0.224065
0.223348
0.223452
0.223398
0.222578
0.221664
0.220452
0.219784
0.212416
0.195433
0.154718
0.134342
0.22069
0.231509
0.224137
0.229535
0.231727
0.233647
0.234693
0.234664
0.233612
0.231544
0.229546
0.227506
0.225687
0.224537
0.223945
0.223831
0.223799
0.222771
0.220987
0.220103
0.220229
0.2136
0.196271
0.15531
0.135443
0.220708
0.231661
0.225889
0.230561
0.2315
0.232608
0.233046
0.233338
0.23226
0.230219
0.228059
0.226419
0.225177
0.224469
0.224308
0.224416
0.223785
0.222989
0.221042
0.2205
0.22101
0.215628
0.196941
0.154358
0.135005
0.221096
0.231192
0.227282
0.231289
0.231567
0.231769
0.231426
0.231518
0.230762
0.229319
0.227526
0.225935
0.2248
0.223968
0.224106
0.224276
0.223987
0.223126
0.222231
0.221471
0.221878
0.219929
0.198235
0.152741
0.135578
0.220796
0.231348
0.227832
0.231331
0.231566
0.232025
0.231432
0.230569
0.229921
0.228869
0.227698
0.226169
0.224947
0.223872
0.223745
0.224053
0.224303
0.224362
0.22397
0.222864
0.223153
0.228035
0.200638
0.150373
0.134588
0.220282
0.230369
0.227922
0.231128
0.231424
0.232479
0.232385
0.231305
0.229697
0.2285
0.227721
0.226746
0.2251
0.224249
0.224294
0.224461
0.224703
0.225142
0.225063
0.223586
0.223951
0.231343
0.204927
0.148193
0.134355
0.21886
0.229507
0.228044
0.231277
0.231552
0.232874
0.232849
0.231653
0.229859
0.228794
0.228109
0.226787
0.225647
0.225143
0.22497
0.224636
0.224643
0.224936
0.224775
0.223677
0.223583
0.231596
0.21066
0.146392
0.134141
0.218224
0.227972
0.227965
0.230872
0.231957
0.233587
0.233036
0.231897
0.230878
0.229924
0.228706
0.227299
0.226309
0.225905
0.225587
0.225231
0.224752
0.224527
0.224039
0.223408
0.222784
0.231125
0.216037
0.145322
0.135195
0.217871
0.227612
0.227245
0.230993
0.232615
0.234333
0.233417
0.232396
0.231691
0.230733
0.229479
0.227938
0.226993
0.226753
0.226843
0.22653
0.22546
0.224586
0.224073
0.223071
0.22226
0.231226
0.219851
0.144253
0.134723
0.217915
0.227706
0.227547
0.231225
0.233181
0.234436
0.233717
0.232752
0.232693
0.232148
0.230581
0.22923
0.228632
0.22821
0.228306
0.227828
0.226602
0.225321
0.224366
0.223213
0.221826
0.230895
0.224442
0.144104
0.135037
0.217987
0.228806
0.22874
0.231665
0.232607
0.23384
0.233186
0.233075
0.233491
0.23325
0.23177
0.231102
0.23137
0.230689
0.229592
0.228714
0.227405
0.226029
0.22514
0.223448
0.222
0.231512
0.227157
0.143642
0.134866
0.218923
0.229643
0.23025
0.231892
0.232078
0.232679
0.232526
0.232792
0.233857
0.234301
0.233797
0.233257
0.233141
0.232496
0.230747
0.228971
0.227437
0.226226
0.224869
0.22358
0.222318
0.231634
0.227499
0.143898
0.135452
0.220007
0.230355
0.230804
0.232029
0.231458
0.231607
0.231376
0.232293
0.233909
0.235826
0.23588
0.235382
0.234358
0.233061
0.230929
0.228423
0.226806
0.225683
0.224275
0.223106
0.222681
0.232417
0.227186
0.143529
0.135421
0.221528
0.230353
0.230999
0.231746
0.230674
0.230955
0.231547
0.232398
0.234667
0.236228
0.236729
0.235794
0.234361
0.232943
0.23084
0.227894
0.225595
0.224684
0.223405
0.222758
0.222729
0.232444
0.227819
0.143857
0.135687
0.222814
0.230822
0.230682
0.231331
0.230004
0.230891
0.231772
0.232884
0.234564
0.235741
0.236055
0.234884
0.23324
0.231988
0.230214
0.227787
0.225362
0.223626
0.222727
0.223128
0.223276
0.232563
0.227703
0.143348
0.135103
0.224129
0.231857
0.231276
0.231104
0.229848
0.230782
0.231803
0.233382
0.234551
0.234988
0.234694
0.233948
0.232686
0.231496
0.229656
0.227603
0.225985
0.224201
0.223316
0.224288
0.224103
0.232315
0.228139
0.143433
0.136782
0.227423
0.235452
0.234046
0.233395
0.231725
0.232457
0.233806
0.234938
0.235774
0.235708
0.235662
0.235379
0.234811
0.233471
0.23153
0.22979
0.228742
0.227275
0.226395
0.226982
0.22655
0.23443
0.229396
0.144263
0.139314
0.231135
0.239384
0.237992
0.23691
0.235621
0.236188
0.237171
0.237333
0.237689
0.238084
0.237981
0.237701
0.237241
0.236569
0.235955
0.234998
0.23344
0.231643
0.230285
0.230616
0.22995
0.237124
0.232876
0.146939
0.142555
0.23436
0.242851
0.241299
0.24074
0.239464
0.240185
0.241217
0.241211
0.240344
0.239985
0.239863
0.239849
0.239783
0.239806
0.240004
0.239853
0.238559
0.236016
0.234331
0.234492
0.234208
0.241149
0.236715
0.149051
0.145039
0.23686
0.245258
0.244347
0.243982
0.243004
0.243696
0.244405
0.244611
0.243652
0.242561
0.241743
0.241863
0.241954
0.242297
0.242679
0.242689
0.242074
0.240506
0.238977
0.238916
0.238954
0.244847
0.240515
0.15196
0.147556
0.24028
0.247867
0.247182
0.247265
0.246004
0.246614
0.247131
0.247112
0.246068
0.244911
0.244247
0.244208
0.243945
0.244086
0.244159
0.244531
0.244556
0.244344
0.243413
0.243698
0.243664
0.24862
0.242899
0.154124
0.149389
0.244158
0.250832
0.250077
0.250196
0.249072
0.249441
0.249853
0.249451
0.248425
0.247834
0.247402
0.246613
0.245598
0.245242
0.245662
0.246265
0.247104
0.247631
0.247154
0.24792
0.24777
0.250905
0.245181
0.156972
0.151754
0.248245
0.254263
0.253057
0.253047
0.252155
0.252803
0.252704
0.252178
0.251317
0.251449
0.250391
0.24915
0.248
0.247569
0.248717
0.249582
0.250676
0.250726
0.25037
0.251389
0.251564
0.253209
0.247187
0.158993
0.154056
0.252341
0.258242
0.257042
0.256598
0.255779
0.255932
0.255637
0.255082
0.254116
0.253691
0.252948
0.251775
0.251592
0.25178
0.252367
0.253466
0.254042
0.254032
0.252982
0.254467
0.254326
0.25479
0.249768
0.161651
0.156718
0.257063
0.262322
0.261411
0.260943
0.259463
0.259089
0.25822
0.257309
0.256212
0.256023
0.255682
0.255734
0.256718
0.256562
0.256911
0.25748
0.258085
0.257477
0.256404
0.257076
0.256964
0.257695
0.252859
0.163853
0.159391
0.261097
0.266143
0.265316
0.264459
0.262787
0.261909
0.260752
0.25947
0.259282
0.259379
0.259409
0.260393
0.261304
0.261133
0.26131
0.261765
0.26154
0.260926
0.259824
0.260348
0.259841
0.260924
0.256686
0.166793
0.162664
0.264377
0.269611
0.269219
0.268469
0.266775
0.265571
0.2645
0.263999
0.264046
0.264028
0.264097
0.265304
0.266585
0.266459
0.266428
0.266415
0.265884
0.265068
0.263839
0.263789
0.262953
0.264239
0.26016
0.169323
0.165097
0.264556
0.269722
0.269471
0.268759
0.267245
0.266127
0.264985
0.264507
0.264839
0.265482
0.265931
0.266847
0.267794
0.267871
0.268047
0.267668
0.266836
0.265618
0.26449
0.263496
0.262136
0.264146
0.260739
0.17184
0.168128
0.258416
0.26196
0.26125
0.260261
0.258836
0.257787
0.256741
0.256768
0.256505
0.25669
0.256987
0.25776
0.258661
0.25887
0.258772
0.258188
0.257417
0.256708
0.256166
0.254789
0.25338
0.255075
0.254291
0.174457
0.189097
0.266922
0.264823
0.265488
0.26453
0.263396
0.262438
0.260837
0.25906
0.256597
0.255217
0.254708
0.254681
0.255574
0.256031
0.25574
0.256149
0.257102
0.257556
0.257958
0.257104
0.25744
0.258843
0.265887
0.195487
0.448042
0.465022
0.458682
0.463031
0.463892
0.463793
0.464358
0.463808
0.462382
0.45909
0.453596
0.450694
0.44852
0.449661
0.449214
0.447911
0.448232
0.45284
0.457137
0.460493
0.461419
0.457154
0.457059
0.473896
0.461381
0.8705
0.836574
0.824845
0.826847
0.828395
0.827266
0.825282
0.823857
0.823384
0.823548
0.823247
0.823151
0.823294
0.824195
0.82435
0.824148
0.8251
0.828205
0.832691
0.835644
0.834112
0.822621
0.826068
0.8413
0.873229
0.9931
0.98709
0.983029
0.982291
0.982207
0.981872
0.981343
0.980911
0.980634
0.980408
0.980238
0.980183
0.980283
0.980505
0.980662
0.980798
0.981119
0.981681
0.982419
0.982947
0.982949
0.982043
0.983319
0.987364
0.993084
0.999939
0.999808
0.999546
0.999418
0.999396
0.999387
0.999374
0.999358
0.999343
0.999329
0.99932
0.999316
0.999318
0.999324
0.999334
0.999346
0.999364
0.999384
0.999402
0.999415
0.999422
0.999437
0.999567
0.99982
0.999945
0.999996
0.999999
0.999997
0.999995
0.999994
0.999994
0.999994
0.999994
0.999994
0.999994
0.999993
0.999993
0.999993
0.999993
0.999993
0.999994
0.999994
0.999994
0.999994
0.999994
0.999994
0.999995
0.999998
0.999999
0.999997
0.999998
1
1
1
1
1
1
1
1
1
1
1
1
1
1
1
1
1
1
1
1
1
1
1
0.999998
0.999999
1
1
1
1
1
1
1
1
1
1
1
1
1
1
1
1
1
1
1
1
1
1
1
0.999999
0.999999
1
1
1
1
1
1
1
1
1
1
1
1
1
1
1
1
1
1
1
1
1
1
1
0.999999
)
;

boundaryField
{
    inlet
    {
        type            calculated;
        value           uniform 0.5;
    }
    outlet
    {
        type            calculated;
        value           nonuniform List<scalar> 
25
(
0.999999
1
1
1
1
1
1
1
1
1
1
1
1
1
1
1
1
1
1
1
1
1
1
1
0.999999
)
;
    }
    walls
    {
        type            calculated;
        value           nonuniform List<scalar> 
150
(
0.212361
0.159003
0.125499
0.101132
0.0921723
0.093448
0.0942911
0.0972146
0.0985072
0.101839
0.111966
0.122529
0.128958
0.132881
0.133177
0.13396
0.136154
0.140578
0.148631
0.169006
0.171126
0.170532
0.171262
0.1708
0.170365
0.166289
0.155646
0.14305
0.134134
0.131453
0.130741
0.130055
0.129548
0.130358
0.130404
0.131888
0.132453
0.1343
0.134342
0.135443
0.135005
0.135578
0.134588
0.134355
0.134141
0.135195
0.134723
0.135037
0.134866
0.135452
0.135421
0.135687
0.135103
0.136782
0.139314
0.142555
0.145039
0.147556
0.149389
0.151754
0.154056
0.156718
0.159391
0.162664
0.165097
0.168128
0.189097
0.448042
0.8705
0.9931
0.999939
0.999996
0.999998
0.999999
0.999999
0.225961
0.178704
0.175796
0.176267
0.176637
0.186429
0.185126
0.186989
0.185013
0.184936
0.183146
0.183161
0.182318
0.172361
0.154102
0.143577
0.142937
0.144047
0.145172
0.144752
0.145995
0.145132
0.146143
0.144498
0.144887
0.143174
0.143897
0.142793
0.144014
0.144409
0.145803
0.145626
0.146778
0.147545
0.148646
0.150773
0.152839
0.154718
0.15531
0.154358
0.152741
0.150373
0.148193
0.146392
0.145322
0.144253
0.144104
0.143642
0.143898
0.143529
0.143857
0.143348
0.143433
0.144263
0.146939
0.149051
0.15196
0.154124
0.156972
0.158993
0.161651
0.163853
0.166793
0.169323
0.17184
0.174457
0.195487
0.461381
0.873229
0.993084
0.999945
0.999997
0.999998
0.999999
0.999999
)
;
    }
    defaultFaces
    {
        type            empty;
    }
}


// ************************************************************************* //
