/*--------------------------------*- C++ -*----------------------------------*\
| =========                 |                                                 |
| \\      /  F ield         | OpenFOAM: The Open Source CFD Toolbox           |
|  \\    /   O peration     | Version:  2312                                  |
|   \\  /    A nd           | Website:  www.openfoam.com                      |
|    \\/     M anipulation  |                                                 |
\*---------------------------------------------------------------------------*/
FoamFile
{
    version     2.0;
    format      ascii;
    arch        "LSB;label=32;scalar=64";
    class       volVectorField;
    location    "29";
    object      Ur;
}
// * * * * * * * * * * * * * * * * * * * * * * * * * * * * * * * * * * * * * //

dimensions      [0 1 -1 0 0 0 0];

internalField   nonuniform List<vector> 
1875
(
(0.0160083 0.315201 0)
(0.0723052 0.314695 0)
(0.12329 0.297562 0)
(0.137372 0.281672 0)
(0.135356 0.270295 0)
(0.121361 0.262287 0)
(0.0923218 0.25584 0)
(0.0564713 0.254676 0)
(0.0200368 0.261767 0)
(-0.00745025 0.256534 0)
(-0.0414497 0.257333 0)
(-0.0653544 0.262848 0)
(-0.0948236 0.258023 0)
(-0.128101 0.264991 0)
(-0.151862 0.240931 0)
(-0.162203 0.216772 0)
(-0.153193 0.194743 0)
(-0.146132 0.188245 0)
(-0.0748076 0.204618 0)
(0.00513521 0.212824 0)
(0.0216803 0.21657 0)
(0.0518987 0.256341 0)
(-0.000802747 0.268445 0)
(-0.0470788 0.274822 0)
(0.00633431 0.280914 0)
(0.0272539 0.424156 0)
(0.0896676 0.416967 0)
(0.141166 0.38304 0)
(0.166795 0.346101 0)
(0.176375 0.315202 0)
(0.173703 0.291405 0)
(0.158133 0.273408 0)
(0.150412 0.263382 0)
(0.130467 0.250714 0)
(0.114844 0.246329 0)
(0.0939782 0.246375 0)
(0.0744615 0.253468 0)
(0.0217819 0.255879 0)
(-0.0467968 0.253251 0)
(-0.0914664 0.276288 0)
(-0.123912 0.2711 0)
(-0.116905 0.279736 0)
(-0.0839958 0.280315 0)
(-0.0316606 0.284807 0)
(-0.0017219 0.285074 0)
(0.0205127 0.284751 0)
(0.00613429 0.252224 0)
(-0.0639546 0.21879 0)
(-0.0689032 0.256339 0)
(-0.0268123 0.301802 0)
(0.0424827 0.381778 0)
(0.0783689 0.344233 0)
(0.101954 0.310026 0)
(0.11266 0.292997 0)
(0.116105 0.279044 0)
(0.104949 0.275342 0)
(0.107564 0.280065 0)
(0.106646 0.283483 0)
(0.112024 0.290276 0)
(0.111808 0.298262 0)
(0.116416 0.297023 0)
(0.101236 0.279524 0)
(0.0812857 0.256407 0)
(0.0216478 0.265519 0)
(-0.0311165 0.270535 0)
(-0.0561329 0.260794 0)
(-0.0561275 0.265346 0)
(-0.0403398 0.273893 0)
(-0.0245914 0.276368 0)
(-0.00355533 0.276313 0)
(0.00767144 0.27105 0)
(0.00471202 0.260848 0)
(-0.00166836 0.243413 0)
(-0.0409497 0.216028 0)
(-0.0291012 0.219613 0)
(0.0273415 0.316535 0)
(0.0342298 0.285222 0)
(0.0530563 0.253215 0)
(0.0755356 0.227445 0)
(0.0903248 0.216232 0)
(0.089952 0.216355 0)
(0.1009 0.21232 0)
(0.12101 0.207526 0)
(0.130001 0.205448 0)
(0.127207 0.204099 0)
(0.0956655 0.206584 0)
(0.0325207 0.223337 0)
(-0.0186983 0.23878 0)
(-0.0378186 0.247774 0)
(-0.0509336 0.257098 0)
(-0.0502632 0.258495 0)
(-0.0409751 0.267349 0)
(-0.0271656 0.274388 0)
(-0.0177544 0.275994 0)
(-0.00555411 0.278212 0)
(0.000167345 0.274944 0)
(-0.00135753 0.265704 0)
(-0.00781889 0.256948 0)
(-0.0137448 0.233784 0)
(-0.00733496 0.265869 0)
(0.0126965 0.267245 0)
(-0.00278512 0.26378 0)
(-0.034525 0.249206 0)
(-0.00940362 0.218038 0)
(0.0234779 0.224043 0)
(0.0412415 0.229745 0)
(0.0522633 0.237008 0)
(0.0322734 0.24712 0)
(0.00753175 0.238619 0)
(-0.00718783 0.238464 0)
(-0.025779 0.230524 0)
(-0.0477599 0.227291 0)
(-0.0469246 0.236284 0)
(-0.0444546 0.252538 0)
(-0.0461541 0.262695 0)
(-0.0372421 0.273863 0)
(-0.028798 0.275271 0)
(-0.0167647 0.277859 0)
(-0.0125694 0.277338 0)
(-0.00565236 0.276452 0)
(-0.00055465 0.274482 0)
(-0.00700218 0.267362 0)
(-0.00930665 0.260377 0)
(-0.0100525 0.253895 0)
(-0.0015855 0.271245 0)
(0.0124594 0.245908 0)
(-0.00408154 0.260423 0)
(-0.0466582 0.282878 0)
(-0.0517991 0.25405 0)
(-0.0228331 0.223058 0)
(0.0520976 0.225559 0)
(0.0331894 0.251682 0)
(-0.00225735 0.264085 0)
(-0.0245031 0.262571 0)
(-0.0512116 0.270719 0)
(-0.0716955 0.276663 0)
(-0.0711809 0.286399 0)
(-0.0553636 0.292668 0)
(-0.03993 0.285172 0)
(-0.0281438 0.279776 0)
(-0.0183946 0.275372 0)
(-0.0144132 0.274979 0)
(-0.011151 0.275962 0)
(-0.0105036 0.279684 0)
(-0.00766563 0.278626 0)
(-0.006773 0.276713 0)
(-0.00421746 0.274845 0)
(-0.00651116 0.263283 0)
(-0.00662452 0.262294 0)
(-0.00818684 0.272943 0)
(0.0121935 0.240701 0)
(0.000860697 0.263501 0)
(-0.0311736 0.296884 0)
(-0.0510387 0.282863 0)
(-0.0248657 0.268069 0)
(-0.000450977 0.24472 0)
(0.0214961 0.253425 0)
(-0.00498881 0.278061 0)
(-0.0436548 0.277737 0)
(-0.0813035 0.289306 0)
(-0.106255 0.29566 0)
(-0.104298 0.302531 0)
(-0.0656544 0.31898 0)
(-0.0352925 0.320689 0)
(-0.0114961 0.308192 0)
(-0.0110295 0.296807 0)
(-0.0137369 0.289612 0)
(-0.0182583 0.282765 0)
(-0.0184534 0.280036 0)
(-0.0140244 0.2774 0)
(-0.0135729 0.275386 0)
(-0.0084043 0.277245 0)
(-0.00982053 0.267716 0)
(-0.0152112 0.246584 0)
(-0.0302293 0.265481 0)
(0.0120709 0.241976 0)
(0.0163476 0.255875 0)
(0.00638672 0.29683 0)
(-0.0124561 0.276655 0)
(-0.0116387 0.285197 0)
(0.00750835 0.270643 0)
(0.0161524 0.257315 0)
(0.00925796 0.25029 0)
(-0.01737 0.225046 0)
(-0.0723493 0.202945 0)
(-0.117746 0.211135 0)
(-0.0896567 0.2617 0)
(-0.0124741 0.276851 0)
(0.0028591 0.294702 0)
(-0.0163085 0.300035 0)
(-0.0022157 0.302643 0)
(-0.00698088 0.297753 0)
(-0.0143064 0.288015 0)
(-0.0173929 0.281031 0)
(-0.0141432 0.277422 0)
(-0.0127638 0.272439 0)
(-0.0119928 0.26842 0)
(-0.0105975 0.256596 0)
(-0.00625093 0.239805 0)
(-0.0268111 0.238355 0)
(0.00857717 0.233411 0)
(0.0375476 0.237337 0)
(0.0237187 0.289551 0)
(0.00896671 0.276998 0)
(0.00619737 0.281165 0)
(-0.00151562 0.270229 0)
(-0.000618238 0.250195 0)
(-0.00194391 0.236223 0)
(-0.0138048 0.199596 0)
(-0.00140005 0.187022 0)
(0.0466166 0.202086 0)
(0.0694528 0.202388 0)
(0.107536 0.200046 0)
(0.108371 0.211635 0)
(0.0381553 0.254935 0)
(0.0234991 0.267392 0)
(0.0173195 0.272934 0)
(0.00393555 0.274285 0)
(-0.0011898 0.269073 0)
(0.00209645 0.259027 0)
(-0.00345524 0.249246 0)
(-0.0128401 0.247704 0)
(-0.0208849 0.250352 0)
(-0.00486431 0.239542 0)
(0.0128384 0.221748 0)
(0.0143737 0.205836 0)
(0.0545311 0.201183 0)
(0.0346515 0.257301 0)
(0.0179769 0.266844 0)
(-0.000182877 0.250937 0)
(-0.0370267 0.252128 0)
(-0.0569949 0.240504 0)
(-0.0412744 0.232748 0)
(-0.0189537 0.238016 0)
(0.037785 0.255524 0)
(0.126293 0.196051 0)
(0.219054 0.138251 0)
(0.201103 0.181737 0)
(0.134014 0.206249 0)
(0.0757864 0.236866 0)
(0.0388051 0.254093 0)
(0.0171748 0.264516 0)
(-0.00736902 0.264328 0)
(-0.0264501 0.268211 0)
(-0.0465849 0.268845 0)
(-0.0593461 0.270621 0)
(-0.0674139 0.268792 0)
(-0.0440786 0.28267 0)
(-0.00593546 0.295436 0)
(0.0413349 0.245953 0)
(0.0188879 0.159986 0)
(0.06404 0.138869 0)
(0.0549657 0.176734 0)
(0.0480874 0.207453 0)
(0.0120713 0.190784 0)
(-0.0278122 0.23434 0)
(-0.0356608 0.248446 0)
(-0.0248482 0.264644 0)
(0.0178204 0.268098 0)
(0.0818582 0.238855 0)
(0.119686 0.231761 0)
(0.0952326 0.248557 0)
(0.0828912 0.242404 0)
(0.0447895 0.255409 0)
(0.0207153 0.278003 0)
(-0.00512221 0.286313 0)
(-0.0258415 0.293062 0)
(-0.0459387 0.300029 0)
(-0.0613907 0.308071 0)
(-0.0743458 0.314671 0)
(-0.0762061 0.326412 0)
(-0.0629556 0.33764 0)
(-0.0323194 0.34616 0)
(0.0168618 0.340949 0)
(0.0341958 0.323634 0)
(-0.00933579 0.180146 0)
(0.0262337 0.154342 0)
(0.0949259 0.103153 0)
(0.0727501 0.176609 0)
(0.0248456 0.205014 0)
(-0.0028794 0.241709 0)
(-0.00873731 0.261823 0)
(-0.0107938 0.288562 0)
(0.0147592 0.274917 0)
(0.0414297 0.267659 0)
(0.0752773 0.251765 0)
(0.069438 0.258216 0)
(0.0533208 0.274315 0)
(0.0283672 0.283752 0)
(0.00654607 0.290474 0)
(-0.016894 0.300119 0)
(-0.0378201 0.31154 0)
(-0.054703 0.322455 0)
(-0.0666012 0.334039 0)
(-0.0744274 0.345691 0)
(-0.076065 0.355921 0)
(-0.0782525 0.370798 0)
(-0.0730929 0.384292 0)
(-0.0370545 0.38948 0)
(0.00504886 0.389311 0)
(-0.0225039 0.2647 0)
(-0.0369972 0.245701 0)
(0.0642854 0.193947 0)
(0.103426 0.18514 0)
(0.0714945 0.21749 0)
(0.0504945 0.254322 0)
(0.0348587 0.275177 0)
(0.0110823 0.286432 0)
(0.0130046 0.278583 0)
(0.0167875 0.277377 0)
(0.0350048 0.268942 0)
(0.0418971 0.268895 0)
(0.0466704 0.26797 0)
(0.0288586 0.276531 0)
(0.00814458 0.284498 0)
(-0.0144435 0.291124 0)
(-0.0346493 0.294779 0)
(-0.0511998 0.299324 0)
(-0.0633132 0.303396 0)
(-0.0733361 0.306709 0)
(-0.0823872 0.314473 0)
(-0.092136 0.324013 0)
(-0.0942699 0.327247 0)
(-0.0645754 0.348242 0)
(-0.0360752 0.355966 0)
(-0.0161731 0.323476 0)
(-0.0320258 0.330176 0)
(0.000286446 0.324074 0)
(0.0742795 0.266984 0)
(0.108716 0.251759 0)
(0.0982169 0.265571 0)
(0.0574122 0.274749 0)
(0.0252033 0.287412 0)
(0.0257519 0.286422 0)
(0.0208714 0.293679 0)
(0.0257671 0.295362 0)
(0.0438196 0.287027 0)
(0.0561677 0.269704 0)
(0.0596786 0.262233 0)
(0.0478676 0.25824 0)
(0.026705 0.263563 0)
(0.00575718 0.269342 0)
(-0.00737583 0.269716 0)
(-0.0146879 0.266762 0)
(-0.0214801 0.260769 0)
(-0.0391937 0.264698 0)
(-0.0651846 0.260748 0)
(-0.0807794 0.246132 0)
(-0.055727 0.264083 0)
(-0.0256725 0.275672 0)
(-0.00286728 0.392502 0)
(0.00878938 0.384297 0)
(0.00343297 0.365324 0)
(0.0379642 0.34097 0)
(0.0540303 0.31519 0)
(0.0771112 0.28794 0)
(0.0863859 0.283313 0)
(0.0545801 0.286749 0)
(0.0297173 0.29621 0)
(0.0369995 0.299826 0)
(0.045919 0.305462 0)
(0.0571275 0.296098 0)
(0.0560751 0.275814 0)
(0.0552092 0.263738 0)
(0.0608063 0.258007 0)
(0.0468216 0.255465 0)
(0.0240461 0.252082 0)
(0.00181303 0.250392 0)
(-0.00923272 0.249492 0)
(-0.0107475 0.244046 0)
(-0.0158764 0.261204 0)
(-0.0293302 0.258083 0)
(-0.0452406 0.225622 0)
(-0.0503722 0.221893 0)
(-0.0194051 0.237328 0)
(0.0326519 0.343706 0)
(0.0261341 0.32666 0)
(0.0119335 0.344515 0)
(0.0143583 0.374338 0)
(0.0196133 0.342656 0)
(0.027795 0.314488 0)
(0.0359912 0.295279 0)
(0.031576 0.280674 0)
(0.0185213 0.268384 0)
(0.0224394 0.294198 0)
(0.040125 0.294907 0)
(0.0743432 0.292562 0)
(0.0445972 0.271838 0)
(0.0428099 0.264037 0)
(0.0415583 0.25661 0)
(0.0376567 0.2425 0)
(0.023954 0.231799 0)
(0.00114974 0.223128 0)
(-0.0219197 0.219454 0)
(-0.0294316 0.218197 0)
(-0.0259185 0.235481 0)
(-0.0287927 0.238425 0)
(-0.0312628 0.218594 0)
(-0.034252 0.194233 0)
(-0.0245963 0.204465 0)
(0.0184122 0.264177 0)
(0.043295 0.243976 0)
(0.0224226 0.275045 0)
(-0.0153637 0.292947 0)
(0.00283248 0.32761 0)
(0.0104651 0.314953 0)
(0.020302 0.294163 0)
(0.016053 0.277714 0)
(-0.00305589 0.259204 0)
(-0.0441688 0.21471 0)
(-0.0254715 0.24115 0)
(-0.0135221 0.268144 0)
(0.00788376 0.284464 0)
(0.0166944 0.278427 0)
(0.0225251 0.26066 0)
(0.0333426 0.243659 0)
(0.0283513 0.227985 0)
(0.0150165 0.2162 0)
(-0.0119665 0.199925 0)
(-0.0331943 0.194089 0)
(-0.0291058 0.201015 0)
(-0.0278892 0.212011 0)
(-0.0193058 0.211123 0)
(-0.012868 0.197834 0)
(-0.00733749 0.201142 0)
(0.0173055 0.238491 0)
(0.0137219 0.232583 0)
(-0.0201579 0.249816 0)
(-0.0173006 0.276525 0)
(-0.0124682 0.295667 0)
(0.0141633 0.321642 0)
(0.0212718 0.305477 0)
(0.0199725 0.287347 0)
(0.00926839 0.272541 0)
(-0.00811182 0.248276 0)
(-0.0786934 0.18534 0)
(-0.144491 0.146438 0)
(-0.0690236 0.25071 0)
(-0.0338553 0.275495 0)
(-0.00411279 0.284464 0)
(0.0153888 0.275318 0)
(0.0246736 0.258298 0)
(0.0169072 0.239005 0)
(0.00212169 0.226153 0)
(-0.00394174 0.21474 0)
(-0.0112655 0.208582 0)
(-0.0134324 0.223727 0)
(-0.00770016 0.22889 0)
(-0.00755074 0.214327 0)
(-0.00393362 0.216873 0)
(0.00768445 0.252602 0)
(0.00276773 0.277414 0)
(-0.00561372 0.259338 0)
(0.00218148 0.272921 0)
(0.00946036 0.285698 0)
(0.0298965 0.300226 0)
(0.0459486 0.31706 0)
(0.0250102 0.305512 0)
(-0.00426788 0.284835 0)
(-0.0108852 0.269347 0)
(-0.0270909 0.246342 0)
(-0.0698386 0.194792 0)
(-0.14267 0.149057 0)
(-0.101564 0.215047 0)
(-0.0567795 0.255328 0)
(-0.0340143 0.262487 0)
(-0.00434062 0.26175 0)
(0.00405686 0.255449 0)
(0.00462197 0.24784 0)
(-0.00135547 0.239806 0)
(-0.00945808 0.227008 0)
(-0.0156452 0.235808 0)
(-0.0126961 0.232068 0)
(-0.0119074 0.219698 0)
(-0.00668715 0.220568 0)
(0.00548497 0.251089 0)
(0.0142518 0.29126 0)
(0.00598234 0.283612 0)
(0.0115496 0.260776 0)
(0.0259196 0.266984 0)
(0.0385456 0.264731 0)
(0.0524531 0.269966 0)
(0.0172013 0.274639 0)
(-0.0180808 0.273523 0)
(-0.0325026 0.264445 0)
(-0.0386695 0.251304 0)
(-0.0504432 0.226098 0)
(-0.0641524 0.185593 0)
(-0.0879288 0.183793 0)
(-0.0808656 0.217358 0)
(-0.0547608 0.243498 0)
(-0.0417373 0.249216 0)
(-0.0247568 0.252015 0)
(-0.0175813 0.245862 0)
(-0.0164091 0.243338 0)
(-0.017403 0.239522 0)
(-0.0234948 0.245642 0)
(-0.0191152 0.232099 0)
(-0.00649398 0.226531 0)
(-0.000759566 0.228424 0)
(0.0131151 0.239375 0)
(0.0135991 0.292233 0)
(0.0117053 0.311246 0)
(-0.00517359 0.261287 0)
(-0.00956381 0.253023 0)
(0.00562619 0.254799 0)
(0.00696255 0.253313 0)
(-0.00169888 0.26889 0)
(-0.0348191 0.264464 0)
(-0.0430129 0.251065 0)
(-0.0453015 0.244324 0)
(-0.0445482 0.234 0)
(-0.0530424 0.212661 0)
(-0.0394222 0.205185 0)
(-0.0494512 0.21102 0)
(-0.0584625 0.22686 0)
(-0.0484288 0.240624 0)
(-0.0366738 0.245846 0)
(-0.0286514 0.248989 0)
(-0.0234878 0.243461 0)
(-0.0229161 0.239169 0)
(-0.0261189 0.249326 0)
(-0.0147934 0.238423 0)
(0.00339431 0.238557 0)
(0.00273835 0.239842 0)
(0.0297122 0.205453 0)
(0.0269963 0.280871 0)
(0.0290926 0.3279 0)
(0.0297706 0.279761 0)
(0.0297634 0.252427 0)
(0.0233624 0.243715 0)
(-0.0163189 0.247518 0)
(-0.0117827 0.253682 0)
(-0.0518639 0.257138 0)
(-0.0711623 0.240451 0)
(-0.059023 0.234675 0)
(-0.0469831 0.232168 0)
(-0.035735 0.223253 0)
(-0.0191167 0.216303 0)
(-0.0142757 0.227971 0)
(-0.0238212 0.230943 0)
(-0.031606 0.237192 0)
(-0.0320669 0.241883 0)
(-0.0287895 0.247746 0)
(-0.0217932 0.244232 0)
(-0.0202771 0.241325 0)
(-0.0230912 0.246364 0)
(-0.00602147 0.246741 0)
(0.00831054 0.247971 0)
(0.00352637 0.250254 0)
(0.0442196 0.143136 0)
(0.0648803 0.219847 0)
(0.055164 0.26139 0)
(0.0663705 0.247251 0)
(0.0673815 0.201156 0)
(0.0516335 0.180758 0)
(0.0105721 0.18618 0)
(-0.0751587 0.216643 0)
(-0.081058 0.218465 0)
(-0.0764946 0.221579 0)
(-0.0592081 0.22648 0)
(-0.0379253 0.235594 0)
(-0.0154811 0.241382 0)
(0.00216283 0.251754 0)
(0.00898874 0.243525 0)
(0.00449094 0.240261 0)
(-0.00329312 0.24154 0)
(-0.0132257 0.245069 0)
(-0.014949 0.244788 0)
(-0.0154276 0.244867 0)
(-0.0181524 0.245203 0)
(-0.0115694 0.25633 0)
(0.00497413 0.260575 0)
(0.00796996 0.260698 0)
(0.0050113 0.262095 0)
(0.0576441 0.109278 0)
(0.118076 0.11401 0)
(0.111681 0.175317 0)
(0.0829522 0.183005 0)
(0.039213 0.170841 0)
(-0.020905 0.172229 0)
(-0.0584434 0.195791 0)
(-0.0790497 0.20623 0)
(-0.0809617 0.217925 0)
(-0.068076 0.240813 0)
(-0.0496385 0.258286 0)
(-0.023555 0.272731 0)
(0.00344574 0.283454 0)
(0.0243604 0.273857 0)
(0.0325689 0.266012 0)
(0.0289288 0.263489 0)
(0.022466 0.259 0)
(0.0157544 0.254579 0)
(0.00328674 0.248266 0)
(-0.0031294 0.245585 0)
(-0.00799699 0.26175 0)
(0.000824701 0.272379 0)
(0.00533394 0.268988 0)
(0.00043453 0.270891 0)
(0.00380699 0.270329 0)
(0.0484206 0.158012 0)
(0.107324 0.155393 0)
(0.0734806 0.227993 0)
(0.0242808 0.222347 0)
(-0.00107881 0.21858 0)
(-0.035635 0.222729 0)
(-0.0602601 0.230095 0)
(-0.0712987 0.254725 0)
(-0.0765489 0.278229 0)
(-0.0521004 0.292158 0)
(-0.0238417 0.296973 0)
(0.0016663 0.299185 0)
(0.0285591 0.296679 0)
(0.0389997 0.286711 0)
(0.0419285 0.284155 0)
(0.0416793 0.273331 0)
(0.037582 0.259332 0)
(0.032852 0.246811 0)
(0.0131722 0.251467 0)
(-0.00466874 0.268697 0)
(-0.00826078 0.275176 0)
(0.00416722 0.277991 0)
(-6.22653e-05 0.275616 0)
(-0.000242129 0.278214 0)
(0.0037125 0.275756 0)
(0.0273642 0.228926 0)
(0.0631197 0.237727 0)
(0.0472977 0.292672 0)
(0.0083304 0.256193 0)
(-0.01476 0.254354 0)
(-0.0313355 0.263229 0)
(-0.0500971 0.272428 0)
(-0.0495658 0.286977 0)
(-0.0246321 0.290499 0)
(0.00208406 0.292198 0)
(0.0235913 0.293618 0)
(0.0391384 0.290641 0)
(0.0450096 0.287597 0)
(0.0550401 0.282685 0)
(0.065275 0.26029 0)
(0.0678769 0.242633 0)
(0.0458035 0.244849 0)
(0.0125624 0.262458 0)
(-0.00542568 0.270936 0)
(-0.0126992 0.277368 0)
(-0.00533097 0.287532 0)
(0.000656607 0.278003 0)
(-0.00663774 0.278095 0)
(-0.00557916 0.277228 0)
(-0.00143584 0.276325 0)
(0.0173026 0.260761 0)
(0.0442638 0.260035 0)
(0.0329812 0.311331 0)
(0.0157176 0.264095 0)
(0.00211745 0.268452 0)
(-0.00837393 0.272778 0)
(-0.00873134 0.278551 0)
(0.00746875 0.277732 0)
(0.0204863 0.277724 0)
(0.0312866 0.278061 0)
(0.0463984 0.276782 0)
(0.0659759 0.267745 0)
(0.0823709 0.249993 0)
(0.0750464 0.237156 0)
(0.0505845 0.239251 0)
(0.0192646 0.250605 0)
(0.00300557 0.261394 0)
(-0.00502306 0.267539 0)
(-0.0103779 0.278852 0)
(-0.0102005 0.28875 0)
(-0.000687087 0.278966 0)
(-0.00477938 0.275284 0)
(-0.0122327 0.274756 0)
(-0.0103752 0.271618 0)
(-0.00510166 0.27195 0)
(0.0147201 0.270677 0)
(0.0336815 0.258789 0)
(0.0277532 0.314526 0)
(0.0214779 0.27084 0)
(0.012133 0.273858 0)
(0.010837 0.275033 0)
(0.0182083 0.274968 0)
(0.0265842 0.271915 0)
(0.0381708 0.270457 0)
(0.0536252 0.264208 0)
(0.0631573 0.253369 0)
(0.050232 0.248649 0)
(0.0308363 0.246938 0)
(0.0173082 0.243897 0)
(0.00520746 0.242994 0)
(0.00468024 0.249859 0)
(0.000214193 0.260988 0)
(-0.00683935 0.269471 0)
(-0.0194286 0.278356 0)
(-0.0155504 0.275556 0)
(-0.0116912 0.273272 0)
(-0.0166309 0.271662 0)
(-0.0198006 0.264179 0)
(-0.0156444 0.259439 0)
(-0.00553238 0.2614 0)
(0.00128266 0.27585 0)
(0.0231617 0.266202 0)
(0.0248611 0.31246 0)
(0.0199416 0.273019 0)
(0.0146565 0.278762 0)
(0.0155306 0.280853 0)
(0.0260885 0.275855 0)
(0.0372018 0.269172 0)
(0.041706 0.263386 0)
(0.0273049 0.258009 0)
(0.0055792 0.257131 0)
(-0.00583197 0.254829 0)
(-0.0130382 0.254722 0)
(-0.0131331 0.251881 0)
(-0.0100144 0.251555 0)
(-0.00938989 0.255521 0)
(-0.00249348 0.254069 0)
(-0.00731174 0.254033 0)
(-0.0173308 0.249089 0)
(-0.0263494 0.246063 0)
(-0.0324166 0.24813 0)
(-0.0276744 0.244867 0)
(-0.0275154 0.239912 0)
(-0.0235748 0.235744 0)
(-0.00966863 0.23896 0)
(-0.00932313 0.282051 0)
(0.0194294 0.284119 0)
(0.0311525 0.301595 0)
(0.0263445 0.274551 0)
(0.0151039 0.280366 0)
(0.0113903 0.279669 0)
(0.0132485 0.278163 0)
(0.00395693 0.276009 0)
(-0.00954979 0.274751 0)
(-0.0210804 0.275941 0)
(-0.0271528 0.271395 0)
(-0.034368 0.268891 0)
(-0.0381662 0.270448 0)
(-0.0323785 0.278474 0)
(-0.0201882 0.285284 0)
(-0.00690632 0.281404 0)
(0.00796298 0.27492 0)
(0.0148836 0.263258 0)
(0.00278241 0.254653 0)
(-0.00981002 0.243367 0)
(-0.022166 0.23409 0)
(-0.030298 0.226087 0)
(-0.024355 0.220817 0)
(-0.0111152 0.225594 0)
(-0.00203889 0.231752 0)
(-0.0126037 0.299976 0)
(0.0208569 0.321053 0)
(0.0312812 0.305483 0)
(0.0302109 0.279633 0)
(0.0139648 0.268828 0)
(-0.00237821 0.281472 0)
(-0.0143281 0.28499 0)
(-0.0301897 0.281647 0)
(-0.0444946 0.277703 0)
(-0.054121 0.276257 0)
(-0.0583301 0.277326 0)
(-0.0542289 0.279224 0)
(-0.0483857 0.27853 0)
(-0.0381033 0.280397 0)
(-0.023178 0.283497 0)
(-0.00194022 0.287167 0)
(0.0178088 0.288434 0)
(0.0244783 0.277951 0)
(0.00923483 0.26814 0)
(0.00273001 0.259955 0)
(-0.00715585 0.247058 0)
(-0.0101494 0.240456 0)
(-0.00152708 0.241764 0)
(0.00544646 0.245588 0)
(0.0033958 0.249731 0)
(0.0156719 0.283421 0)
(0.0289102 0.2867 0)
(0.0255634 0.293613 0)
(0.0221518 0.277285 0)
(0.0211903 0.262002 0)
(-0.0169655 0.250051 0)
(-0.055637 0.249182 0)
(-0.0763338 0.256044 0)
(-0.0842133 0.262034 0)
(-0.0860448 0.265057 0)
(-0.0834331 0.267852 0)
(-0.0755092 0.269408 0)
(-0.0641841 0.271359 0)
(-0.0479372 0.271785 0)
(-0.023673 0.272311 0)
(-0.00814409 0.271649 0)
(0.00522028 0.270503 0)
(0.019268 0.271219 0)
(0.0186503 0.26441 0)
(0.00725829 0.254561 0)
(0.00125388 0.254751 0)
(-0.00414845 0.256853 0)
(-0.000186744 0.260765 0)
(0.00537236 0.259296 0)
(0.00160478 0.261193 0)
(0.0156814 0.237074 0)
(0.00713433 0.240909 0)
(0.0140312 0.271114 0)
(0.0180896 0.272585 0)
(0.0246766 0.258607 0)
(0.0226933 0.239846 0)
(-0.00643714 0.235429 0)
(-0.0363873 0.236497 0)
(-0.0577107 0.240262 0)
(-0.0716843 0.244801 0)
(-0.0765187 0.250233 0)
(-0.0736137 0.257511 0)
(-0.0657165 0.262617 0)
(-0.0539516 0.267934 0)
(-0.0434886 0.262149 0)
(-0.0293197 0.261988 0)
(-0.00699613 0.264799 0)
(0.00249173 0.266127 0)
(0.00637709 0.258759 0)
(0.00140886 0.257776 0)
(-0.0029099 0.260421 0)
(-0.00434668 0.261858 0)
(-0.00135158 0.264515 0)
(0.000983809 0.260584 0)
(-0.00050842 0.26353 0)
(0.00572804 0.227728 0)
(-0.00989402 0.235456 0)
(0.00385368 0.257687 0)
(0.0182796 0.261903 0)
(0.0242507 0.257427 0)
(0.0322598 0.248538 0)
(0.0238322 0.241595 0)
(0.00786163 0.240618 0)
(-0.0106568 0.24114 0)
(-0.0265044 0.240617 0)
(-0.0446345 0.242018 0)
(-0.0548879 0.247617 0)
(-0.0508734 0.252864 0)
(-0.0425233 0.259751 0)
(-0.0355316 0.262131 0)
(-0.0296114 0.253901 0)
(-0.0166556 0.252448 0)
(-0.00425106 0.254812 0)
(-0.000322317 0.259875 0)
(-0.00221627 0.259784 0)
(-0.00328064 0.260969 0)
(-0.001521 0.26673 0)
(0.00033919 0.26497 0)
(3.17747e-06 0.261755 0)
(-0.00150233 0.264262 0)
(-0.00361387 0.238431 0)
(-0.0119262 0.246602 0)
(-0.00841529 0.261264 0)
(0.00523455 0.267311 0)
(0.0151773 0.266559 0)
(0.0282812 0.263693 0)
(0.0331255 0.258843 0)
(0.0336883 0.2513 0)
(0.0318446 0.248478 0)
(0.0235505 0.256589 0)
(0.017279 0.260436 0)
(-0.00215273 0.261097 0)
(-0.0250903 0.258225 0)
(-0.0313529 0.256925 0)
(-0.027405 0.257796 0)
(-0.0252494 0.256454 0)
(-0.0198866 0.256748 0)
(-0.00775817 0.25709 0)
(-0.00327006 0.260525 0)
(-0.000737136 0.258469 0)
(-0.00222507 0.265739 0)
(-0.000143447 0.272718 0)
(0.00221659 0.265085 0)
(-0.000212917 0.261434 0)
(-0.00259084 0.263593 0)
(-0.00451998 0.253417 0)
(-0.00901199 0.258392 0)
(-0.0111678 0.266963 0)
(9.54204e-05 0.276645 0)
(0.0126527 0.281125 0)
(0.0284623 0.280101 0)
(0.0468014 0.278122 0)
(0.0614139 0.27724 0)
(0.063081 0.275573 0)
(0.0595138 0.272898 0)
(0.0506869 0.273201 0)
(0.03096 0.27239 0)
(0.00266321 0.274325 0)
(-0.00727839 0.269431 0)
(-0.0152627 0.266378 0)
(-0.016787 0.264246 0)
(-0.0107797 0.261417 0)
(-0.00442294 0.253929 0)
(-0.00184054 0.255375 0)
(-0.00250091 0.268286 0)
(-7.63087e-05 0.274928 0)
(0.00306102 0.27119 0)
(0.00571816 0.268348 0)
(0.00235226 0.261961 0)
(-0.00291267 0.265523 0)
(-0.00130177 0.261684 0)
(-0.00211683 0.262915 0)
(-0.00100496 0.266275 0)
(0.00794295 0.278359 0)
(0.0223449 0.288151 0)
(0.0382879 0.290435 0)
(0.0541518 0.288247 0)
(0.066338 0.281229 0)
(0.0770161 0.276949 0)
(0.0889182 0.275735 0)
(0.0861901 0.270516 0)
(0.0675111 0.262538 0)
(0.0437317 0.259025 0)
(0.0168771 0.260218 0)
(-0.00212153 0.262061 0)
(-0.00266916 0.256162 0)
(0.0118727 0.25056 0)
(0.00327375 0.259812 0)
(-0.00637805 0.27216 0)
(-0.00323176 0.283688 0)
(0.00875654 0.281911 0)
(0.0139709 0.273815 0)
(0.010571 0.267379 0)
(0.00409002 0.265261 0)
(0.000239036 0.26872 0)
(0.00413594 0.260035 0)
(0.00829792 0.262392 0)
(0.00789039 0.267261 0)
(0.011982 0.279389 0)
(0.0255061 0.278227 0)
(0.0369261 0.275848 0)
(0.0500413 0.269551 0)
(0.074914 0.263312 0)
(0.0966834 0.248656 0)
(0.109951 0.230785 0)
(0.0980977 0.221653 0)
(0.0595732 0.230569 0)
(0.0281998 0.238859 0)
(0.00889903 0.241625 0)
(-0.00270995 0.24648 0)
(-0.00572644 0.257768 0)
(-0.00926144 0.263812 0)
(-0.014888 0.2722 0)
(-0.01539 0.284603 0)
(-0.00117494 0.285054 0)
(0.0133807 0.28153 0)
(0.0160099 0.278813 0)
(0.00755481 0.271221 0)
(-0.00156897 0.272651 0)
(0.000456971 0.27094 0)
(0.00390527 0.260634 0)
(0.00623234 0.259503 0)
(0.00946071 0.267797 0)
(0.0139637 0.26739 0)
(0.0231401 0.264256 0)
(0.0454982 0.258609 0)
(0.0657348 0.249795 0)
(0.0708002 0.240964 0)
(0.0596105 0.237637 0)
(0.0445259 0.234771 0)
(0.0305535 0.232055 0)
(0.0193642 0.234679 0)
(0.00396082 0.239778 0)
(-0.0026521 0.243156 0)
(-0.00583079 0.25251 0)
(-0.00555513 0.261787 0)
(-0.00667558 0.267214 0)
(-0.0147641 0.274099 0)
(-0.0213452 0.27686 0)
(-0.0182228 0.281907 0)
(-0.01361 0.280627 0)
(-0.0111656 0.279637 0)
(-0.00741423 0.280574 0)
(-0.00540748 0.283404 0)
(-0.00225734 0.271573 0)
(0.000300793 0.261312 0)
(0.00387542 0.258618 0)
(0.00995172 0.262616 0)
(0.020037 0.263024 0)
(0.0278149 0.258922 0)
(0.0307409 0.255383 0)
(0.0281774 0.249407 0)
(0.0168522 0.243989 0)
(0.00615635 0.242831 0)
(0.00286277 0.245336 0)
(-0.00256654 0.245897 0)
(-0.00371148 0.246103 0)
(-0.00363167 0.248561 0)
(-0.00290298 0.251584 0)
(-0.00223443 0.25556 0)
(-0.00355597 0.257405 0)
(-0.0053836 0.257935 0)
(-0.0146549 0.258125 0)
(-0.0310882 0.254242 0)
(-0.0539764 0.248369 0)
(-0.0573535 0.254879 0)
(-0.0433549 0.264217 0)
(-0.0176868 0.269229 0)
(-0.00788422 0.267724 0)
(-0.00413122 0.26134 0)
(-0.000569727 0.260218 0)
(0.00306113 0.258914 0)
(0.00959561 0.263032 0)
(0.0209841 0.26243 0)
(0.0215181 0.260416 0)
(0.0138231 0.260262 0)
(0.00699823 0.260707 0)
(-0.000999403 0.26117 0)
(-0.0114092 0.261564 0)
(-0.0211119 0.26045 0)
(-0.0279689 0.265025 0)
(-0.0260818 0.272463 0)
(-0.0160958 0.277255 0)
(-0.00109183 0.273868 0)
(0.00724344 0.26609 0)
(0.00480249 0.262114 0)
(0.00266276 0.260221 0)
(-0.0020839 0.255627 0)
(-0.0119393 0.248675 0)
(-0.02522 0.238059 0)
(-0.0438496 0.232052 0)
(-0.0455037 0.238587 0)
(-0.0227543 0.250998 0)
(-0.00447538 0.256738 0)
(0.000559391 0.256129 0)
(0.00034534 0.267329 0)
(0.000627273 0.257554 0)
(0.00593537 0.265942 0)
(0.00390036 0.271532 0)
(0.00931641 0.270796 0)
(0.0143405 0.26786 0)
(0.00633317 0.269963 0)
(-0.00310497 0.273202 0)
(-0.0113858 0.269915 0)
(-0.0114824 0.270692 0)
(-0.0070741 0.27347 0)
(-0.00234243 0.273899 0)
(0.00359593 0.277065 0)
(0.00719286 0.281848 0)
(0.0116757 0.277727 0)
(0.00806676 0.27021 0)
(0.00337394 0.266859 0)
(0.000357463 0.261584 0)
(-0.00465351 0.253879 0)
(-0.0089197 0.249657 0)
(-0.0112189 0.244696 0)
(-0.00252804 0.239361 0)
(-0.00182986 0.24359 0)
(-0.00311382 0.262861 0)
(0.00252288 0.25711 0)
(0.00163964 0.274486 0)
(0.00471102 0.268301 0)
(-0.00872887 0.251261 0)
(-0.0126266 0.249588 0)
(0.00193803 0.273959 0)
(-0.016146 0.275748 0)
(-0.0171821 0.276123 0)
(-0.00933635 0.276268 0)
(-0.00433937 0.283618 0)
(0.0019395 0.282396 0)
(0.00962265 0.278604 0)
(0.0109366 0.266149 0)
(0.0199797 0.261781 0)
(0.0394804 0.253902 0)
(0.025901 0.262336 0)
(0.0208697 0.266877 0)
(0.0166041 0.267177 0)
(0.0149166 0.260978 0)
(0.0159663 0.255492 0)
(0.0158159 0.251864 0)
(0.0164833 0.249426 0)
(0.00755012 0.253427 0)
(-4.95049e-05 0.254603 0)
(-0.000244354 0.260776 0)
(-0.000401437 0.2554 0)
(-0.00189045 0.275887 0)
(0.0131316 0.294234 0)
(0.0137632 0.266559 0)
(-0.00490525 0.253315 0)
(-0.0707728 0.214629 0)
(-0.0640643 0.224972 0)
(-0.0257131 0.264328 0)
(-0.026436 0.267851 0)
(-0.0271095 0.267006 0)
(-0.0231318 0.265903 0)
(-0.017577 0.26599 0)
(-0.00461695 0.259249 0)
(0.00704691 0.238442 0)
(0.0105368 0.250057 0)
(0.0106592 0.259044 0)
(0.00977713 0.260572 0)
(0.0148992 0.256491 0)
(0.0123682 0.260114 0)
(0.0115167 0.261953 0)
(0.00653126 0.265207 0)
(0.00496714 0.269831 0)
(0.00380651 0.275957 0)
(0.00156261 0.279216 0)
(0.00404706 0.264155 0)
(-0.00093709 0.26131 0)
(-0.00314128 0.272939 0)
(0.00581654 0.281232 0)
(0.0256157 0.294195 0)
(0.0192914 0.276018 0)
(0.00165366 0.263107 0)
(-0.0190422 0.250188 0)
(-0.0825171 0.21041 0)
(-0.0860707 0.208315 0)
(-0.0523886 0.242925 0)
(-0.0454928 0.257734 0)
(-0.0418675 0.264553 0)
(-0.0212125 0.268464 0)
(-0.00747152 0.257852 0)
(-0.00943008 0.247703 0)
(-0.00064783 0.254003 0)
(-0.00112754 0.262896 0)
(-0.00273301 0.266882 0)
(-0.00319292 0.267035 0)
(-0.00615093 0.26814 0)
(-0.0110281 0.273936 0)
(-0.0103068 0.279506 0)
(-0.00614255 0.277338 0)
(0.000771634 0.275447 0)
(0.000567058 0.273358 0)
(0.00147283 0.270999 0)
(-0.00403562 0.280044 0)
(-0.000788082 0.281762 0)
(0.0100989 0.283005 0)
(0.0230644 0.287102 0)
(0.0231447 0.284108 0)
(-0.00161886 0.26606 0)
(-0.015758 0.262065 0)
(-0.0284638 0.247627 0)
(-0.0511776 0.227138 0)
(-0.0613335 0.238773 0)
(-0.0600694 0.25341 0)
(-0.0338183 0.273274 0)
(-0.00467021 0.278174 0)
(-0.00272105 0.259615 0)
(-0.0164614 0.251368 0)
(-0.0155624 0.254381 0)
(-0.0120133 0.263711 0)
(-0.00895375 0.265326 0)
(-0.0134453 0.271291 0)
(-0.0159175 0.272472 0)
(-0.0132538 0.272765 0)
(-0.0103492 0.273399 0)
(-0.00787753 0.274826 0)
(-0.00323708 0.274389 0)
(0.00186806 0.272876 0)
(9.61767e-06 0.288185 0)
(0.00954041 0.286013 0)
(0.0175455 0.282178 0)
(0.0198196 0.277514 0)
(0.0227479 0.275139 0)
(0.0110794 0.2721 0)
(-0.00613352 0.263519 0)
(-0.012128 0.258352 0)
(-0.0132273 0.256544 0)
(-0.004637 0.262726 0)
(-0.00277063 0.267178 0)
(-0.00925117 0.267267 0)
(-0.00206462 0.27175 0)
(-0.00147139 0.267416 0)
(-0.00867912 0.262688 0)
(-0.0125772 0.256636 0)
(-0.00815339 0.257696 0)
(-0.00637243 0.269753 0)
(-0.00885605 0.274262 0)
(-0.00673782 0.276519 0)
(-0.00603917 0.275043 0)
(-0.00610469 0.276911 0)
(-0.00421243 0.27877 0)
(0.00208104 0.27838 0)
(0.00544766 0.277329 0)
(0.00752144 0.266847 0)
(0.0175552 0.264879 0)
(0.025123 0.26161 0)
(0.0203563 0.256781 0)
(0.0116122 0.250096 0)
(0.00725415 0.253682 0)
(0.000529213 0.258764 0)
(-0.000870805 0.261185 0)
(0.012744 0.279483 0)
(0.0234466 0.274205 0)
(0.0291037 0.269479 0)
(0.0302284 0.249716 0)
(0.0110363 0.249425 0)
(-0.00484759 0.26573 0)
(-0.00557657 0.26711 0)
(-0.00137967 0.268543 0)
(-0.00183807 0.277001 0)
(-0.00474128 0.282134 0)
(-0.00553668 0.285973 0)
(-0.00493045 0.283866 0)
(-0.00767419 0.285225 0)
(-0.00938033 0.287018 0)
(-0.00807973 0.288113 0)
(-0.000358469 0.287746 0)
(0.00436612 0.286953 0)
(0.00530331 0.246535 0)
(0.0175622 0.243679 0)
(0.0272421 0.232728 0)
(0.0221454 0.228449 0)
(0.000582001 0.243947 0)
(-0.00401021 0.255454 0)
(-0.00246885 0.271892 0)
(0.0147854 0.290928 0)
(0.0341872 0.277472 0)
(0.0566319 0.259512 0)
(0.0733728 0.227667 0)
(0.0359508 0.231824 0)
(0.0024645 0.255496 0)
(-0.00218043 0.268361 0)
(-0.00198273 0.272329 0)
(-0.000195619 0.276837 0)
(-0.00214251 0.28425 0)
(-0.0088231 0.289147 0)
(-0.0100121 0.285105 0)
(-0.012971 0.284633 0)
(-0.0199702 0.286744 0)
(-0.0214462 0.28761 0)
(-0.0199883 0.287656 0)
(-0.0122659 0.289324 0)
(-0.00605112 0.29015 0)
(0.00441662 0.24222 0)
(0.00790362 0.236647 0)
(0.00756282 0.231642 0)
(0.00296934 0.242098 0)
(-0.00197361 0.252041 0)
(-0.00617447 0.271533 0)