/*--------------------------------*- C++ -*----------------------------------*\
| =========                 |                                                 |
| \\      /  F ield         | OpenFOAM: The Open Source CFD Toolbox           |
|  \\    /   O peration     | Version:  2312                                  |
|   \\  /    A nd           | Website:  www.openfoam.com                      |
|    \\/     M anipulation  |                                                 |
\*---------------------------------------------------------------------------*/
FoamFile
{
    version     2.0;
    format      ascii;
    arch        "LSB;label=32;scalar=64";
    class       volScalarField;
    location    "0.52/water";
    object      Tf.gasAndLiquid;
}
// * * * * * * * * * * * * * * * * * * * * * * * * * * * * * * * * * * * * * //

dimensions      [0 0 0 1 0 0 0];

internalField   nonuniform List<scalar> 
1497
(
300.440662765
300.36884132
300.310131916
300.254248293
300.19703406
300.139958798
300.088948093
300.049035064
300.023028324
300.009396151
300.00348135
300.001228187
300.000428381
321.400842242
308.605647854
303.787150332
301.878345929
301.095575084
300.746120404
300.565612086
300.455677498
300.380326126
300.319849799
300.263691518
300.206887552
300.150166031
300.0990102
300.057849331
300.029430649
300.013242649
300.005487121
300.002182268
300.000858133
320.930559344
307.653566526
303.233908517
301.665485363
301.024039864
300.724156503
300.559645667
300.455345188
300.381383242
300.321355078
300.26589422
300.210163197
300.155144646
300.105686676
300.065132634
300.035762881
300.017716521
300.008172665
300.003611521
300.001560409
320.137470334
307.219416265
302.811765302
301.427224961
300.914959692
300.674069952
300.535515964
300.443108881
300.374187724
300.316486542
300.262499055
300.208452399
300.156501918
300.110290469
300.071734037
300.042478716
300.023091095
300.011723851
300.005650116
300.002619463
318.915750076
307.249235552
302.722784832
301.275338128
300.815636065
300.619964784
300.506292318
300.426323258
300.363203583
300.308233601
300.255687907
300.204330486
300.156722154
300.11475042
300.078913077
300.050215443
300.02966678
300.016317341
300.008401733
300.004083977
317.138439037
307.094568256
302.799462095
301.247335351
300.760019736
300.581209684
300.48292454
300.411555178
300.352500261
300.299219107
300.248603653
300.201182353
300.158498759
300.120883886
300.087787354
300.059525751
300.037687876
300.022009292
300.011819856
300.005901438
315.425373046
306.663809682
302.817082969
301.280478334
300.752306949
300.566715458
300.471923788
300.403457238
300.345735923
300.293617432
300.245665597
300.202284763
300.163952965
300.129958131
300.099150427
300.070782127
300.046956423
300.028475839
300.015625029
300.007868018
314.55458679
306.449061247
302.900203717
301.405453881
300.821662852
300.595792313
300.484147884
300.408931673
300.348499145
300.296325348
300.250368128
300.20992218
300.174287534
300.142208743
300.112116031
300.082900669
300.056573574
300.034970454
300.019258179
300.009610861
315.205398742
307.351823853
303.796059292
302.027926196
301.151259302
300.741642226
300.546061661
300.43750654
300.364771403
300.309268476
300.263586883
300.224166807
300.189005697
300.156377804
300.124767794
300.093601939
300.065000443
300.040288083
300.021899955
300.010638106
320.089106073
310.887531246
305.876757495
303.103525818
301.663520334
300.966551204
300.6419912
300.482800555
300.3921834
300.330938743
300.283270132
300.24218705
300.204536858
300.168789879
300.134309535
300.10124001
300.070226914
300.042958799
300.022657865
300.010531667
334.437200501
314.282645637
306.533034967
303.181933862
301.686255205
300.999447326
300.677583412
300.514926427
300.419315822
300.353335276
300.301396533
300.256104876
300.214545036
300.175589465
300.138701332
300.103609177
300.070694409
300.041945128
300.02109615
300.009258561
345.916428193
314.321284571
305.334331659
302.441167729
301.360948441
300.887983077
300.653740134
300.520409146
300.431437525
300.364680967
300.309851927
300.261169084
300.216673936
300.175423949
300.1368037
300.100361031
300.066448149
300.037481845
300.017709111
300.0073076
344.293092098
311.689354502
303.77631216
301.719731094
301.073270062
300.782617383
300.620690608
300.512890297
300.431443766
300.365897788
300.309178645
300.258398949
300.212174761
300.169689463
300.130209557
300.093106661
300.05883929
300.030947345
300.013673224
300.005407649
340.760601099
310.064802577
302.913062226
301.348288113
300.906736418
300.715545526
300.596067627
300.503094301
300.427223576
300.36185954
300.303881071
300.251781339
300.204566892
300.161430849
300.121428041
300.083702867
300.049484032
300.024194903
300.010204438
300.004108889
338.143584415
310.433070696
302.979098255
301.292004579
300.847783857
300.681330759
300.579996988
300.496191813
300.423238433
300.357532072
300.298309317
300.244985646
300.196808802
300.152854921
300.111847436
300.07316019
300.040413926
300.018820801
300.008021401
300.003603088
330.052304464
310.454753312
303.65817377
301.656248691
300.95583727
300.691400715
300.575827888
300.494244189
300.421777634
300.354944969
300.294134775
300.23932004
300.18976015
300.144251636
300.101645477
300.063216414
300.033502731
300.015657467
300.007268243
300.003826833
323.626958969
309.817644109
304.080198402
302.044154399
301.175797777
300.771244872
300.594757651
300.498819939
300.42316798
300.3542517
300.291259351
300.234318042
300.182658638
300.135334544
300.092396039
300.055938804
300.029723839
300.014802276
300.007774772
300.004731527
320.813741238
309.172129355
304.193266617
302.247500378
301.354603578
300.871497282
300.634172687
300.511343742
300.42703305
300.354356809
300.28819695
300.228716335
300.17545304
300.12774495
300.08602485
300.052333143
300.02916168
300.016002804
300.009546443
300.006410277
319.850914087
308.851030319
304.277759943
302.373167239
301.45179453
300.940871743
300.670315733
300.52551901
300.430839255
300.352865002
300.283668404
300.222790381
300.169352671
300.122648111
300.083133304
300.052376621
300.031507581
300.019250111
300.012560981
300.008816902
319.683060029
308.59401654
304.189518905
302.345337199
301.445881247
300.952350576
300.681343123
300.529508186
300.429255207
300.347906187
300.27756979
300.216927449
300.164695047
300.120148368
300.083593986
300.055789068
300.036495768
300.024409527
300.016744747
300.012005247
319.712872783
308.095737799
303.827726097
302.133652961
301.334619133
300.904355502
300.662066803
300.518836956
300.420195682
300.339291713
300.270163168
300.211392437
300.161661432
300.120401223
300.087436595
300.062107435
300.044041194
300.031307189
300.022188482
300.016201025
319.52095425
307.401024243
303.281336734
301.814083354
301.164895467
300.823044205
300.624272641
300.498445019
300.406173687
300.328710273
300.262753027
300.207244032
300.161371332
300.124251086
300.094624956
300.071415959
300.054006793
300.040023832
300.029197783
300.021638371
319.192160783
307.049764288
302.843116215
301.528671547
301.008256367
300.745196401
300.586526972
300.477841777
300.392395106
300.319726508
300.258203072
300.2073013
300.165722312
300.132352175
300.105389262
300.084167799
300.066362952
300.050901036
300.038181564
300.028584723
318.433167351
307.291205949
302.783842647
301.392884781
300.914210644
300.695580128
300.562549319
300.465210052
300.385602742
300.318014691
300.2611427
300.214104846
300.176123256
300.14564235
300.121110705
300.100336655
300.081540874
300.064465553
300.04952837
300.037397277
316.791127558
307.260263403
302.886503674
301.387880002
300.889722367
300.683370427
300.560626231
300.46859231
300.39257054
300.32825994
300.274332678
300.230145335
300.19488846
300.16639345
300.142423609
300.120729213
300.100351645
300.081148827
300.063588388
300.048464376
315.468838553
307.180623837
303.14298719
301.554492951
300.971406787
300.72972737
300.593020641
300.494966667
300.417450439
300.354096971
300.30195996
300.259534088
300.225296398
300.196529632
300.170572431
300.146486406
300.123511232
300.101317955
300.080463843
300.061891856
316.087484493
308.150058214
304.130358825
302.185806234
301.305816018
300.899332599
300.684744811
300.553996795
300.465188471
300.400285727
300.3490914
300.307053245
300.270666574
300.237222987
300.206357494
300.178018856
300.151160349
300.124995983
300.09987311
300.077113063
321.262315689
311.490051064
306.094513209
303.245309916
301.860623699
301.186632955
300.840499319
300.652584123
300.542599167
300.470978389
300.417449014
300.370936765
300.327331428
300.286106867
300.248305028
300.213829548
300.181616681
300.150686175
300.120803038
300.093264578
332.484090955
314.3780384
307.115098192
303.731504162
302.134235801
301.360971834
300.968496335
300.756213079
300.631079629
300.54914047
300.486861138
300.432386283
300.381629396
300.333941724
300.289797605
300.249154841
300.211372165
300.175549606
300.140998851
300.108642431
338.610939297
315.859554256
307.441772556
303.808353786
302.168709527
301.398573432
301.019568301
300.813786945
300.687112153
300.600495591
300.533649164
300.475277764
300.421119918
300.370020819
300.322021872
300.277171405
300.235069283
300.194915073
300.155987252
300.119266989
341.061023591
316.65084037
307.68875392
303.841441216
302.145963916
301.379851993
301.018061543
300.825828472
300.70603406
300.621690019
300.555241265
300.496613453
300.441980803
300.390047992
300.340579697
300.29351659
300.248459215
300.204647713
300.161778022
300.121518291
341.717810248
316.547876568
307.381407039
303.623651692
302.014706734
301.305775458
300.978709082
300.806766559
300.698710663
300.620415174
300.556448944
300.499102106
300.445390417
300.394018181
300.344494762
300.29640329
300.248979581
300.201658146
300.15557875
300.112946691
344.660635188
313.838036272
305.720467686
302.881059627
301.705817808
301.171223712
300.913080473
300.770194149
300.676033239
300.60403197
300.542790979
300.487214647
300.434778207
300.384284178
300.33489307
300.285323766
300.234785859
300.184412905
300.13632913
300.092815515
338.411599546
310.61651134
304.135501969
302.196315849
301.417167999
301.04422592
300.847931565
300.728678126
300.644331352
300.576879649
300.518209276
300.46421782
300.412765929
300.362473539
300.311678582
300.259196956
300.205956577
300.153721891
300.105178294
300.064839969
330.026012773
308.757131881
303.283961779
301.777125491
301.21705768
300.943853386
300.787590923
300.683885053
300.606280693
300.542208218
300.485287474
300.432084373
300.380366224
300.328289912
300.274773279
300.220100327
300.165339628
300.113137926
300.069298164
300.038521336
323.97555296
307.882368114
302.959624326
301.561540693
301.085979898
300.864195321
300.732557372
300.639310888
300.565379991
300.502685194
300.445893097
300.391634646
300.337719334
300.283279994
300.228021094
300.172704886
300.119188632
300.07257885
300.039175486
300.019952395
319.891804245
307.092737769
302.784046145
301.446810122
301.000075857
300.801726028
300.682577396
300.595198988
300.523420134
300.459960057
300.401101379
300.344426279
300.288636278
300.233134955
300.178345737
300.125617501
300.077655145
300.040893202
300.019463411
300.009572011
317.060643194
306.292979367
302.595862104
301.368083204
300.939893616
300.752927539
300.639098411
300.552660284
300.47985162
300.414774352
300.35417945
300.29637847
300.240463124
300.186311683
300.134364027
300.086355793
300.046356367
300.020463395
300.008950645
300.00494751
300.000156053
300.000060221
300.00002372
300.000008801
300.000002566
300.000000748
300.000000748
300.000002334
300.000004454
300.000005997
300.000006992
300.000007436
300.000007545
300.000008536
300.000011819
300.000021497
300.0000289
300.000033593
300.00003576
300.000035812
300.000347663
300.000147324
300.00006398
300.000027685
300.000011055
300.000003648
300.000001109
300.000001148
300.000002083
300.000002915
300.000003396
300.000003642
300.000003851
300.000004997
300.00000978
300.00001847
300.00002688
300.00003198
300.000034424
300.000034762
300.000681231
300.00030542
300.000139057
300.000063702
300.000028722
300.000012272
300.000005014
300.000002318
300.00000156
300.000001402
300.000001317
300.000001273
300.000001355
300.000002292
300.000009045
300.000016728
300.00002568
300.000030874
300.000033529
300.000034272
300.0012037
300.000559983
300.00026233
300.000123554
300.000058382
300.000027469
300.00001274
300.000005882
300.000002686
300.000001145
300.000000546
300.000000266
300.000000188
300.000001004
300.000009387
300.000016917
300.000025644
300.000030478
300.000033171
300.000034175
300.001938482
300.000923208
300.000440954
300.000211666
300.000102345
300.000049876
300.000024278
300.000011607
300.000005141
300.000001832
300.000000436
300
300
300.00000091
300.000010063
300.000017845
300.000026048
300.000030666
300.000033366
300.000034539
300.002847135
300.001371817
300.00066229
300.000321589
300.000157533
300.000077892
300.000038669
300.000018873
300.000008499
300.000003028
300.000000886
300
300
300.000002412
300.000011501
300.000019996
300.000027228
300.00003147
300.00003438
300.000035473
300.003799665
300.001828097
300.000881923
300.000428934
300.000211148
300.00010538
300.000053106
300.000026479
300.00001241
300.000005039
300.000002465
300.000001345
300.000001233
300.000005458
300.000015331
300.000024273
300.00002947
300.000033761
300.000036673
300.000037177
300.004568462
300.002161245
300.001027741
300.000495265
300.000243596
300.000122849
300.000063404
300.00003303
300.00001696
300.000008748
300.000006284
300.000005261
300.000005876
300.000010152
300.000021613
300.000029208
300.000033967
300.000037512
300.000039465
300.000039941
300.004887081
300.002234128
300.001031923
300.000488276
300.000239753
300.000123402
300.000066773
300.000037908
300.000022265
300.000014726
300.000011915
300.00001091
300.000011735
300.000016867
300.000026447
300.000033305
300.000038118
300.000041202
300.000043185
300.00004374
300.004599286
300.002003659
300.000892791
300.000417024
300.000208991
300.000114112
300.000068115
300.000043893
300.000027148
300.000016874
300.00001273
300.000012212
300.000017085
300.000030415
300.000032309
300.000037917
300.000042113
300.000045493
300.00004776
300.000048268
300.00381495
300.001590103
300.000700678
300.000340422
300.000186964
300.000115814
300.000077128
300.000043144
300.000018412
300.000011077
300.00001211
300.000027016
300.000044994
300.00004432
300.000038915
300.000042652
300.000046805
300.00005077
300.000053453
300.000054398
300.002882893
300.001203615
300.000569872
300.000316151
300.000201892
300.000139258
300.000080854
300.000029492
300.000016944
300.000016752
300.000031522
300.000058249
300.000088759
300.000057111
300.000047803
300.000049122
300.000053074
300.000057485
300.000060617
300.000061854
300.002165898
300.001001685
300.000559338
300.00036373
300.000258424
300.00017498
300.000076859
300.000042156
300.000031608
300.000038571
300.000061732
300.000097191
300.000113609
300.000076344
300.000059128
300.000057044
300.000060815
300.000065847
300.000069537
300.000071085
300.001850721
300.001025966
300.000669944
300.00047929
300.00036699
300.000247133
300.00013036
300.000083522
300.000069135
300.00007897
300.000117146
300.000155115
300.000129203
300.000098625
300.000074359
300.000066914
300.00006987
300.000075902
300.000080411
300.000082264
300.001945418
300.001256322
300.000902192
300.000701535
300.000564301
300.000387386
300.000239141
300.00016658
300.000135914
300.000144025
300.000200569
300.000214124
300.000167945
300.000131379
300.000094969
300.000079523
300.000079683
300.000087789
300.000093538
300.000095635
300.002404376
300.001728952
300.001327277
300.001045686
300.000832134
300.000614796
300.000421856
300.000306251
300.000251189
300.000251522
300.000321441
300.000281797
300.000230302
300.000177113
300.000123111
300.000092366
300.000089899
300.000101675
300.000109431
300.000111328
300.00332177
300.002502525
300.001924194
300.001507765
300.0012048
300.000953716
300.000701724
300.000531161
300.00043262
300.000415623
300.000466608
300.000388535
300.000316258
300.000236007
300.000159625
300.000102619
300.00010051
300.000117272
300.000128244
300.000129071
300.004698312
300.003557273
300.002733517
300.002142449
300.001725623
300.001412492
300.001108119
300.00086335
300.000708954
300.000654686
300.000633287
300.000532561
300.000423005
300.000304581
300.000196667
300.000113006
300.00011236
300.000134098
300.000150632
300.000151384
300.006544493
300.004992135
300.003853154
300.00303071
300.002445077
300.002011365
300.001648606
300.001317898
300.001082653
300.00097828
300.000852322
300.000707025
300.000540756
300.000374117
300.00021223
300.000124123
300.000127662
300.000155443
300.000178688
300.000181456
300.009023508
300.006943331
300.005401084
300.004260609
300.003428637
300.002800793
300.002312375
300.001882599
300.001544064
300.001365023
300.001129551
300.000896552
300.000652227
300.000426475
300.000210695
300.00013451
300.000148003
300.000183875
300.000212873
300.000215918
300.012292296
300.009545051
300.007496538
300.005925887
300.004748303
300.003844131
300.003129256
300.002533293
300.00207781
300.001800295
300.001430295
300.001074098
300.000741253
300.000408193
300.000208196
300.000147636
300.00017655
300.000222051
300.000255203
300.000260076
300.016495492
300.012902796
300.010226584
300.008108996
300.006468752
300.005193432
300.004159893
300.003314232
300.002733598
300.002260682
300.001712392
300.001212479
300.000756076
300.000380225
300.000206417
300.000171342
300.000216613
300.000272185
300.000306615
300.000308356
300.021781219
300.017065704
300.013606017
300.010836977
300.008615324
300.006867479
300.005422504
300.004275988
300.003517951
300.002715566
300.001948762
300.001307255
300.000704036
300.000362711
300.00021728
300.000213829
300.000271611
300.000337587
300.000371238
300.000369559
300.028326802
300.022046523
300.017561999
300.014029823
300.01112415
300.008809499
300.00685927
300.005411112
300.004356185
300.003154441
300.002177259
300.001301506
300.000696345
300.000362578
300.00025159
300.00027988
300.000350694
300.000420115
300.000452801
300.000456222
300.036386239
300.027879015
300.02196788
300.017492734
300.013823472
300.010847253
300.008385692
300.006665553
300.005172059
300.003624116
300.002399507
300.001362248
300.000728293
300.00039422
300.000313922
300.00036777
300.000453221
300.000515137
300.000551
300.000554746
300.046202209
300.034633842
300.026691191
300.021008386
300.016474478
300.012806515
300.009974407
300.007855676
300.005943462
300.004104894
300.002642885
300.001499582
300.000809781
300.000462343
300.000401874
300.000472884
300.000567279
300.000625777
300.000666208
300.000667444
300.057542889
300.042368905
300.031786026
300.02442844
300.01896106
300.01465845
300.011343027
300.008809168
300.006590125
300.004539329
300.00294445
300.001687293
300.000928809
300.000558314
300.000511628
300.000598419
300.000697746
300.000759365
300.000806957
300.000802297
300.069767017
300.050894073
300.03710406
300.027752965
300.021001736
300.015974767
300.012214118
300.009363847
300.006997079
300.004862013
300.003223886
300.001876999
300.001049981
300.000666764
300.000644512
300.000756827
300.000840309
300.00092014
300.000967525
300.000949933
300.080827067
300.058243273
300.041367069
300.030014092
300.022069933
300.016448166
300.012380756
300.009373322
300.007033489
300.004982317
300.003333288
300.002003724
300.001127513
300.000778776
300.000821443
300.0009362
300.001033675
300.001104536
300.001143361
300.00111912
300.087534291
300.061737442
300.042664633
300.03003473
300.021500136
300.015701227
300.011697519
300.008827547
300.006654009
300.00483039
300.003259235
300.001995282
300.001129407
300.000925813
300.001059658
300.001178402
300.001278519
300.001333299
300.001354114
300.001323296
300.086814656
300.059092534
300.039520784
300.027011494
300.018925651
300.013706456
300.010228931
300.007774054
300.00592863
300.004414894
300.003013772
300.00180587
300.001114782
300.001168275
300.001355419
300.001494079
300.001565619
300.001601429
300.001608053
300.001568831
300.07679385
300.049593136
300.032030011
300.021373718
300.014907247
300.010887393
300.008229748
300.006340736
300.004894298
300.003713101
300.002612981
300.001596725
300.001249931
300.001528377
300.001718332
300.001827673
300.001884331
300.00190901
300.001914141
300.001851163
300.05832878
300.0356804
300.022468082
300.014965208
300.010573957
300.007834222
300.005978424
300.004608087
300.003562919
300.002755355
300.002161526
300.001602147
300.001578874
300.00196639
300.002091788
300.002185474
300.00224261
300.002271624
300.002268981
300.002179202
300.037621538
300.022217033
300.013958166
300.009495704
300.006865205
300.005032103
300.003650135
300.002803903
300.002396395
300.002214805
300.002143237
300.002056893
300.002226497
300.002403921
300.002500126
300.002590313
300.002653431
300.002684266
300.002678538
300.002561939
300.021093914
300.012424422
300.008154219
300.005729284
300.003923677
300.002746762
300.002364547
300.002337503
300.002422887
300.002531039
300.002629882
300.002740893
300.002820495
300.002893189
300.002996922
300.003082749
300.003142188
300.003169819
300.003159271
300.00301534
300.010876642
300.00686602
300.004614651
300.003085224
300.002485548
300.00244539
300.002557282
300.002702146
300.002856771
300.003018866
300.003180979
300.003348674
300.003410195
300.00353108
300.003628488
300.003690586
300.003730742
300.003744041
300.003722813
300.003552567
300.005768216
300.003757832
300.002748959
300.002534119
300.002637492
300.002803105
300.002989608
300.003197054
300.003421391
300.003649815
300.003869177
300.004086556
300.004147415
300.004330724
300.004402394
300.004424851
300.004427668
300.004412307
300.004371952
300.004176293
300.003327868
300.002689887
300.002667054
300.002841182
)
;

boundaryField
{
    emptyPatch
    {
        type            empty;
    }
    minY
    {
        type            calculated;
        value           nonuniform List<scalar> 0();
    }
    maxY
    {
        type            calculated;
        value           nonuniform List<scalar> 0();
    }
    maxX
    {
        type            calculated;
        value           nonuniform List<scalar> 
37
(
300
300
300
300
300
300
300
300
300
300
300
300
300
300
300
300
300
300
300
300
300
300
300
300
300
300
300
300
300
300
300
300
300
300
300
300
300
)
;
    }
    water_to_heater
    {
        type            calculated;
        value           nonuniform List<scalar> 
60
(
792.755898409
792.825918164
792.825362191
792.883440974
792.883120388
792.921178059
792.919135895
792.940674604
792.944469522
792.949461094
792.95079248
792.953613484
792.950738282
792.958575634
792.957966924
793.019281
793.114554636
793.091607788
793.094501618
793.09340235
793.090171416
793.093299272
793.070747573
793.000499009
792.964472387
793.031916481
793.026711746
793.091247742
793.089863277
793.142298297
793.14162664
793.181821313
793.181493863
793.206047097
793.205961018
793.216765079
793.215137966
793.222086739
793.22221201
793.238996028
793.236575155
793.246077641
793.247373088
793.235748172
793.282570869
793.237283215
793.255563326
793.190910115
793.167617247
793.109265101
793.09750074
793.049448688
793.045827231
793.009290396
792.999171133
792.968423566
792.963592934
792.963925104
792.96721136
792.967003612
)
;
    }
    procBoundary1to0
    {
        type            processor;
        value           nonuniform List<scalar> 
41
(
315.031127311
305.877093466
302.52104402
301.321996788
300.894911656
300.717715748
300.605696526
300.516525903
300.440586733
300.373341834
300.311635227
300.253705545
300.198790898
300.146789564
300.098421476
300.056265233
300.025564806
300.01004352
300.004933197
300.003322165
300.00305493
300.003271223
300.003518609
300.003795239
300.004095984
300.004416901
300.004709148
300.004918972
300.004922313
300.005261666
300.005309579
300.005273638
300.005218071
300.00515747
300.005088892
300.004874455
300.002850355
300.002849743
300.003044462
300.00305493
300.003307068
)
;
    }
    procBoundary1to3
    {
        type            processor;
        value           nonuniform List<scalar> 
41
(
300.412430416
300.348169712
300.292598362
300.237481684
300.18045265
300.124398477
300.075443793
300.038760013
300.016628211
300.006122042
300.00202301
300.000625947
300.000188185
321.015281151
309.029929937
304.018436842
301.940564277
301.092515306
300.727547375
300.546739601
300.546739601
300.000058544
300.000018924
300.000005833
300.000001354
300.000000763
300.000000782
300.000002106
300.000005436
300.000008545
300.000010752
300.00001206
300.000012405
300.000012164
300.000012787
300.000016218
300.000024711
300.000031554
300.000035537
300.000037459
300.000037273
)
;
    }
}


// ************************************************************************* //
