/*--------------------------------*- C++ -*----------------------------------*\
| =========                 |                                                 |
| \\      /  F ield         | OpenFOAM: The Open Source CFD Toolbox           |
|  \\    /   O peration     | Version:  2312                                  |
|   \\  /    A nd           | Website:  www.openfoam.com                      |
|    \\/     M anipulation  |                                                 |
\*---------------------------------------------------------------------------*/
FoamFile
{
    version     2.0;
    format      ascii;
    arch        "LSB;label=32;scalar=64";
    class       volScalarField;
    location    "0.345/water";
    object      d.gas;
}
// * * * * * * * * * * * * * * * * * * * * * * * * * * * * * * * * * * * * * //

dimensions      [0 1 0 0 0 0 0];

internalField   nonuniform List<scalar> 
1497
(
0.00499147204417
0.00499147133988
0.00499147180115
0.00499147101412
0.00499146900452
0.0049914698039
0.00499147504922
0.00499147785736
0.00499147364667
0.00499146912065
0.00499146368815
0.00499145694683
0.00499145080867
0.00499148792182
0.00499148686971
0.00499148598764
0.00499148534598
0.00499148491422
0.00499148464473
0.00499148460855
0.00499148460832
0.00499148467203
0.00499148557166
0.00499148636463
0.00499148797944
0.00499149704662
0.00499151417111
0.00499152460266
0.004991529653
0.00499153187235
0.00499153265815
0.00499153365978
0.00499153181009
0.00499154395612
0.00499151702094
0.00499151197291
0.00499151167519
0.00499151208227
0.00499151280133
0.00499151385464
0.00499151457582
0.00499151495196
0.00499151586372
0.00499151774991
0.00499152551711
0.00499154934131
0.00499157681735
0.00499159420314
0.00499160453964
0.00499161356216
0.00499162098239
0.00499162710309
0.00499162691376
0.00499160610496
0.00499157366733
0.00499155736812
0.00499155900454
0.00499156416906
0.00499156823968
0.00499157051719
0.00499157229532
0.00499157341775
0.0049915754368
0.00499158309908
0.0049916100814
0.00499165024303
0.00499168144757
0.00499169922667
0.0049917151893
0.00499172896684
0.00499174253453
0.00499174903443
0.00499174124822
0.00499166554038
0.00499163759841
0.00499161052126
0.00499161629896
0.00499162852905
0.00499163950735
0.004991648496
0.00499165619156
0.00499166461633
0.0049916806807
0.00499171722365
0.00499176802736
0.00499181035858
0.00499183400686
0.00499185526166
0.00499187451226
0.004991893482
0.00499190471922
0.00499189918217
0.00499188958573
0.00499176850475
0.00499175682436
0.00499172441953
0.00499173750084
0.00499175934093
0.00499177896286
0.00499179813537
0.00499182123988
0.0049918566962
0.00499190904586
0.00499196360787
0.00499200689505
0.0049920316575
0.00499205450128
0.00499207915261
0.00499210084657
0.00499211416868
0.00499210946566
0.00499210051307
0.00499208272323
0.00499205061654
0.00499208274294
0.00499205610268
0.00499206908121
0.00499209211451
0.00499211558637
0.00499214588192
0.00499218818019
0.00499223877764
0.00499227657515
0.00499230204873
0.00499232301219
0.00499234279302
0.00499237148477
0.00499239257935
0.00499240023601
0.00499239059037
0.0049923760586
0.00499235407737
0.00499232085537
0.00499261394548
0.00499268777463
0.00499266815822
0.00499266578872
0.00499267243504
0.00499268109212
0.00499269567259
0.00499271614496
0.00499273214469
0.00499273947987
0.00499275691929
0.00499278066078
0.00499280269367
0.00499280914862
0.00499279664231
0.00499276892951
0.00499273708271
0.00499270111756
0.00499265748398
0.00499260427604
0.00499345127293
0.00499351134582
0.00499346269256
0.0049934454375
0.00499343874006
0.0049934327942
0.00499343186625
0.00499343920627
0.00499344838415
0.00499346046553
0.0049934676562
0.00499345166335
0.00499340865598
0.0049933468427
0.00499327733648
0.00499320881439
0.00499314254065
0.00499307477374
0.00499300320622
0.00499292672559
0.00499399214229
0.00499402725168
0.00499399979982
0.00499399377846
0.00499399957296
0.00499401107051
0.00499402361853
0.00499402918724
0.00499402138258
0.00499399865247
0.00499395954421
0.00499390562311
0.00499384101548
0.00499376997051
0.00499369439278
0.00499361370535
0.00499352792476
0.00499343972753
0.00499334956012
0.00499325931031
0.00499397782044
0.00499397895145
0.00499397969134
0.00499398040192
0.00499398119112
0.00499398305255
0.00499398525059
0.0049939856751
0.00499398552869
0.00499398572197
0.00499398578292
0.0049939807804
0.0049939624591
0.00499393311278
0.00499389446869
0.00499384442123
0.00499378068644
0.00499370733494
0.00499362987559
0.00499355337367
0.00499398912274
0.00499398924342
0.00499398925602
0.00499398938562
0.00499398961862
0.00499398991938
0.00499399023982
0.00499399053387
0.00499399078961
0.00499399099843
0.00499399117616
0.00499399133999
0.00499398621112
0.00499397386872
0.00499395570142
0.00499393005549
0.00499389538328
0.00499385560061
0.00499381496286
0.00499377745999
0.00499399683582
0.00499399681679
0.00499399671592
0.00499399662171
0.00499399657513
0.00499399658463
0.00499399662682
0.00499399669177
0.00499399678615
0.00499399691715
0.00499399709883
0.00499399735665
0.00499399469243
0.00499398902151
0.00499398069845
0.00499396935719
0.004993955642
0.00499394444495
0.0049939399875
0.00499394300722
0.00499400527124
0.00499400512071
0.00499400471341
0.00499400396305
0.00499400345984
0.0049940031701
0.00499400297254
0.00499400284954
0.00499400279382
0.00499400280783
0.00499400290096
0.00499400307468
0.00499400109797
0.00499399896787
0.0049939965498
0.00499399446483
0.00499399459248
0.00499400511624
0.00499403314257
0.00499407046789
0.00499402175725
0.00499402149787
0.00499402077485
0.00499401641568
0.00499401124417
0.00499400885646
0.00499400855548
0.00499400836125
0.00499400825852
0.0049940082771
0.00499400847999
0.00499400833832
0.00499400749652
0.00499400661304
0.00499400715709
0.00499401121108
0.00499402575781
0.00499406382897
0.0049941216528
0.00499418068038
0.00499405071146
0.00499405075318
0.00499404548943
0.00499404157815
0.00499403714702
0.00499403392169
0.00499403191409
0.00499403096748
0.00499403073445
0.00499403085377
0.0049940304232
0.00499402845872
0.00499402634128
0.00499402573853
0.00499402918501
0.0049940434206
0.00499408244402
0.00499414656636
0.0049942153959
0.00499428952304
0.00499408150125
0.00499408159147
0.00499407578869
0.00499407463857
0.00499407282399
0.00499407019813
0.00499406861959
0.00499406834706
0.00499406796092
0.00499406645625
0.00499406411048
0.00499406179638
0.00499406028367
0.00499406279511
0.00499407646802
0.00499411428468
0.0049941764091
0.00499424389601
0.00499431803968
0.00499439713955
0.00499411047362
0.00499411058669
0.00499410598066
0.00499410700155
0.00499410834695
0.00499410772569
0.00499410620966
0.00499410539871
0.00499410515174
0.00499410490792
0.00499410482291
0.00499410575535
0.00499411110626
0.00499412858293
0.00499416681874
0.00499422155324
0.00499427768803
0.00499434590403
0.00499442094551
0.00499448709716
0.00499413726709
0.00499413733742
0.0049941293263
0.00499413238034
0.00499413776905
0.00499414189079
0.00499414381681
0.00499414494292
0.00499414713945
0.0049941520536
0.0049941607424
0.00499417554773
0.00499420071403
0.00499423888608
0.00499428036054
0.00499432372074
0.00499437872193
0.00499444639085
0.00499450568764
0.00499456971472
0.00499416304932
0.00499416254572
0.00499415395771
0.00499416035374
0.00499416904749
0.0049941778541
0.00499418563461
0.0049941951409
0.0049942110924
0.00499423187245
0.00499425664314
0.00499428258389
0.00499431226929
0.00499433814947
0.00499437131857
0.00499440934515
0.00499446538343
0.00499452853556
0.00499458297979
0.00499465379817
0.00499420162113
0.0049941932915
0.00499418861488
0.00499419684268
0.00499420792497
0.00499421959332
0.00499423314807
0.00499425551408
0.00499428439272
0.00499430993886
0.00499432938615
0.00499435249133
0.00499437313584
0.00499440248644
0.00499443451502
0.00499447463068
0.00499454276372
0.0049946006145
0.00499465898875
0.00499473360987
0.0049942346723
0.00499423604341
0.00499423235283
0.00499424117306
0.00499425268145
0.00499426420773
0.00499427995689
0.00499430621456
0.00499433380217
0.00499435277078
0.00499437579649
0.00499439649163
0.00499442486523
0.00499445450935
0.00499449087342
0.00499455491221
0.00499461644895
0.00499466901152
0.00499473077035
0.0049947983083
0.00499426218741
0.00499429783512
0.00499429567845
0.00499430086148
0.00499430990945
0.00499431940289
0.00499433607699
0.00499436229363
0.00499438321837
0.00499440590532
0.00499442554183
0.00499445340003
0.00499448225116
0.00499451803063
0.00499456207178
0.004994619639
0.00499468583867
0.00499473531945
0.00499478787769
0.00499484365775
0.00499428491201
0.004994353686
0.00499434902558
0.0049943521959
0.00499436119519
0.0049943711084
0.00499438824408
0.00499441170329
0.0049944364419
0.00499445554041
0.00499448226934
0.00499450800723
0.00499453924553
0.00499458347102
0.00499463650506
0.00499470918649
0.00499474788241
0.00499478994168
0.00499483032045
0.00499488605561
0.00499430186021
0.00499438741503
0.00499438516892
0.00499438972881
0.00499440134324
0.00499441263447
0.00499443081605
0.00499445908658
0.00499448385375
0.0049945125942
0.00499454263931
0.00499457590581
0.00499463866239
0.00499469114051
0.00499474307965
0.00499477554679
0.0049948111042
0.00499484015371
0.00499487392759
0.00499493465857
0.00499431371831
0.00499441278427
0.00499442194484
0.00499443112265
0.00499444897191
0.00499446676467
0.00499449319764
0.00499453125831
0.00499457460233
0.00499462046892
0.00499466616997
0.00499471804823
0.00499475693194
0.004994790235
0.00499481955326
0.00499485248647
0.00499488140009
0.00499490234342
0.00499493728519
0.00499499979259
0.00499431103473
0.00499444152636
0.00499446965464
0.00499448551849
0.00499451589709
0.00499454972664
0.00499459359462
0.00499464651113
0.00499469750668
0.0049947419896
0.00499478303349
0.00499482058845
0.004994858386
0.00499489573396
0.0049949335424
0.00499496917412
0.00499499141289
0.00499500760831
0.00499504066831
0.00499510132886
0.00499422636548
0.00499442918352
0.00499448014322
0.00499451419897
0.00499456807247
0.00499462716092
0.00499469160621
0.00499475614187
0.00499481601695
0.00499487405988
0.00499493198289
0.00499498948861
0.00499504457819
0.00499509566281
0.00499514124086
0.0049951725514
0.0049951847701
0.00499519298496
0.00499522052262
0.00499527004337
0.00499439710694
0.00499466095558
0.00499471669117
0.00499476397976
0.00499481840661
0.00499488564376
0.00499496448604
0.00499504381866
0.00499512090955
0.00499519807185
0.00499527539723
0.00499534973
0.0049954170134
0.00499547586032
0.00499552074126
0.00499553868023
0.00499553316182
0.00499551704036
0.0049955197324
0.00499554396785
0.0049957952959
0.00499611344648
0.0049960666632
0.00499598550249
0.00499591639211
0.00499587045148
0.00499584007291
0.00499582552864
0.00499583642941
0.00499587401333
0.00499592539196
0.00499598062849
0.00499603893645
0.00499609570883
0.00499613657032
0.00499614739651
0.00499612606529
0.00499607192069
0.00499600458848
0.00499596116985
0.00499732035694
0.00499739622029
0.00499734310771
0.00499729009805
0.00499723333112
0.00499716858585
0.00499708310412
0.00499697039475
0.00499684547674
0.00499675806676
0.00499672191221
0.00499671856448
0.00499674303528
0.00499677562899
0.00499679505505
0.00499679345154
0.004996773055
0.0049967300909
0.00499663762103
0.00499650642113
0.00499744914288
0.0049974496603
0.00499744987917
0.00499745015078
0.00499745042552
0.00499745062363
0.00499745056545
0.00499744662914
0.00499741016294
0.00499731949795
0.00499723744642
0.00499718840259
0.00499716655523
0.00499715453476
0.0049971358667
0.00499711409563
0.00499709480912
0.00499707847876
0.00499704154709
0.00499695086539
0.00499746174917
0.00499746176087
0.00499746173164
0.00499746171589
0.00499746170785
0.00499746169693
0.00499746167544
0.00499746158337
0.00499746123201
0.00499744841986
0.00499739437575
0.00499733859097
0.00499729804244
0.00499727127539
0.00499724906104
0.00499722990179
0.004997214207
0.00499720307771
0.00499718753077
0.00499714447842
0.00499747232577
0.00499747234388
0.00499747229332
0.0049974721727
0.00499747199848
0.0049974717684
0.00499747148752
0.00499747115776
0.00499747068863
0.00499746364265
0.00499743016057
0.00499738387904
0.0049973483746
0.00499732714462
0.0049973122076
0.00499729884274
0.00499728713168
0.00499727793111
0.00499726514603
0.00499723453542
0.00499748442156
0.0049974844155
0.00499748435656
0.00499748424308
0.00499748408297
0.00499748387122
0.0049974835963
0.00499748325626
0.00499748278504
0.00499747951455
0.00499745591508
0.00499741572765
0.00499738457284
0.00499736858164
0.00499735851952
0.00499734977173
0.00499734168978
0.00499733445523
0.00499732240236
0.00499729624504
0.0049974977398
0.00499749775628
0.00499749774831
0.00499749771011
0.00499749764246
0.00499749754668
0.00499749739414
0.00499749716161
0.00499749679932
0.00499749519514
0.00499747782313
0.00499744362553
0.00499741552388
0.00499740164307
0.00499739455981
0.00499738773392
0.00499738161663
0.00499737596192
0.00499736363199
0.00499734001047
0.00499751232171
0.00499751232532
0.00499751232568
0.00499751231997
0.00499751230703
0.00499751228452
0.00499751223555
0.00499751210493
0.00499751183495
0.00499751036442
0.00499749682071
0.00499746791897
0.00499744111517
0.0049974275162
0.00499742202852
0.0049974175186
0.00499741261335
0.0049974074459
0.00499739532456
0.00499737376425
0.00499752738079
0.00499752740997
0.00499752745563
0.0049975275075
0.00499752756544
0.00499752763082
0.00499752769307
0.00499752770743
0.0049975275901
0.00499752558683
0.00499751330812
0.00499748857254
0.00499746356308
0.00499744947644
0.00499744517742
0.00499744215009
0.00499743890626
0.00499743345456
0.00499742270201
0.00499740417838
0.0049914426173
0.00499143339342
0.00499142578407
0.00499142316722
0.00499142281011
0.00499141505321
0.00499140130547
0.00499138771729
0.0049913755781
0.00499136422888
0.00499135331257
0.00499134219059
0.00499133248692
0.00499132436544
0.00499132047661
0.00499133176903
0.00499133512634
0.00499131822148
0.0049913127457
0.00499130872338
0.00499152504012
0.00499151509837
0.00499150576904
0.00499149917627
0.00499149376593
0.00499148324739
0.0049914674857
0.00499145148175
0.00499143713232
0.00499142413169
0.00499141138555
0.00499139976786
0.00499138882036
0.00499138054136
0.00499138147924
0.00499141061002
0.00499140649806
0.00499138075172
0.00499137407063
0.00499136980746
0.00499161715187
0.00499160472228
0.00499159193206
0.00499157910287
0.00499156553277
0.00499154863475
0.00499152866231
0.00499150929467
0.00499149244151
0.00499147816352
0.00499146564281
0.00499145315401
0.00499144299263
0.00499144088949
0.00499147278496
0.00499149867674
0.00499142250392
0.00499140606876
0.00499140645781
0.00499140301315
0.00499172886242
0.00499171294621
0.00499169434979
0.0049916730359
0.00499164881916
0.00499162193167
0.0049915937368
0.00499156690348
0.00499154372839
0.00499152531349
0.0049915105398
0.00499149765358
0.00499148615181
0.00499149211156
0.00499156165819
0.00499150098857
0.0049914450262
0.00499143040534
0.004991432968
0.00499142808021
0.0049918726979
0.00499185017292
0.00499182268049
0.00499179031668
0.00499175393206
0.00499171428885
0.00499167318557
0.00499163303375
0.0049915962569
0.00499156542451
0.00499154249455
0.00499152604085
0.00499151777849
0.00499154501169
0.0049916159829
0.00499147561209
0.00499142821044
0.00499141568516
0.0049914188022
0.00499141405062
0.00499205536797
0.00499202119308
0.00499198070592
0.00499193406177
0.00499188266227
0.00499182704583
0.00499176863433
0.00499170939472
0.00499165146953
0.00499159849033
0.0049915564175
0.00499152840723
0.00499151598356
0.00499157125775
0.00499161706522
0.00499138284843
0.00499133185647
0.00499131947552
0.00499132300235
0.00499131890302
0.00499227805045
0.00499222734988
0.00499216915536
0.00499210339604
0.00499203079714
0.00499195273264
0.00499187026339
0.00499178485284
0.00499169818582
0.00499161310347
0.00499153539304
0.00499147114236
0.00499143318056
0.00499148970614
0.00499153433281
0.0049912407566
0.00499115589129
0.00499113257896
0.0049911329394
0.00499112822404
0.00499254184807
0.00499247144163
0.00499239302302
0.00499230558431
0.00499220865115
0.00499210291743
0.0049919890345
0.00499186810447
0.00499174189599
0.00499161260679
0.00499148367614
0.00499136030745
0.00499125728787
0.00499124981037
0.00499132450009
0.00499100153316
0.0049908064497
0.00499076125224
0.00499075618828
0.00499074916623
0.00499284435694
0.00499275702082
0.00499266370862
0.00499256138094
0.00499244750576
0.00499232024996
0.00499217829776
0.00499202076275
0.00499184776527
0.00499166055435
0.00499146140406
0.00499125409701
0.00499104482348
0.00499086851453
0.00499085847751
0.00499067637306
0.00499020484612
0.0049900973725
0.00499008299099
0.00499007385322
0.00499316938693
0.00499308045921
0.00499299079261
0.00499289648162
0.00499279356925
0.00499267728802
0.00499254344786
0.00499238778112
0.00499220543301
0.00499199228171
0.00499174335975
0.00499145601641
0.00499112685521
0.00499076659463
0.00499044842254
0.00499035772461
0.00498993399334
0.00498943279525
0.00498946850673
0.00498952972831
0.00499348167551
0.00499341667102
0.00499335784105
0.00499330357221
0.00499325166575
0.00499319880285
0.00499314389481
0.00499308496271
0.00499302201402
0.00499295176691
0.00499287530993
0.00499278566898
0.00499269235971
0.00499261206259
0.00499264527841
0.0049927461712
0.00499294059355
0.00499286972428
0.00499251350482
0.00499239715796
0.00499374462283
0.00499371890412
0.00499370341399
0.00499370095001
0.0049937098414
0.00499372823722
0.00499375877002
0.00499380788124
0.00499388008511
0.00499398514353
0.0049941251442
0.00499432458169
0.00499462191183
0.00499517071434
0.0049953458957
0.00499536796073
0.00499536847313
0.00499536918978
0.00499529283827
0.00499506052148
0.00499394877875
0.0049939618694
0.00499398815047
0.00499402821718
0.00499407454754
0.00499412923438
0.00499420016763
0.00499429365532
0.0049944122393
0.00499454854995
0.00499471795197
0.00499494079995
0.00499534797688
0.00499539024047
0.00499539012358
0.00499538910159
0.00499538832314
0.0049953880722
0.00499551877347
0.00499535091817
0.00499410935189
0.00499415673171
0.00499421453994
0.00499427391753
0.00499433589286
0.00499441003024
0.0049945041967
0.00499461753411
0.00499473857384
0.0049948800629
0.00499505237708
0.00499537083268
0.00499541295208
0.00499539990931
0.00499539962653
0.00499539929456
0.00499539902241
0.0049953991721
0.00499560876119
0.00499544510349
0.00499424572293
0.00499431714721
0.00499438463486
0.00499445166193
0.00499452759822
0.00499462010475
0.00499472913804
0.004994841813
0.00499496861297
0.00499511254384
0.00499537646988
0.00499543384297
0.00499541056769
0.00499541017566
0.00499540983145
0.004995409513
0.00499540928523
0.00499540938781
0.00499562506134
0.0049954740924
0.00499436926174
0.00499444194556
0.0049945139189
0.00499459293744
0.00499468420085
0.00499479066848
0.00499490080677
0.00499502060412
0.00499514858208
0.00499537903049
0.00499544603729
0.0049954194529
0.00499541916057
0.00499541884881
0.00499541854199
0.00499541823616
0.00499541801785
0.00499541810796
0.00499562040507
0.0049954888217
0.00499447002318
0.00499454471589
0.00499462737847
0.00499471861809
0.00499482083599
0.004994930493
0.00499504794228
0.0049951677211
0.00499536882833
0.00499545735083
0.00499542744574
0.00499542715815
0.00499542684182
0.00499542649244
0.00499542607393
0.00499542554259
0.00499542507651
0.00499542512012
0.00499558420061
0.00499549524455
0.00499455950727
0.00499464332488
0.00499473508895
0.00499483402329
0.00499493822228
0.0049950487092
0.00499516466302
0.00499533662053
0.00499546727715
0.00499543540824
0.00499543508978
0.00499543476836
0.0049954344402
0.00499543408717
0.00499543368511
0.00499543313506
0.00499543221958
0.00499543113304
0.0049954673017
0.00499544624009
0.00499465005775
0.00499474060818
0.00499483592673
0.00499493344553
0.00499503683635
0.00499515115687
0.00499529892588
0.00499546256018
0.00499544374475
0.0049954435049
0.00499544333817
0.00499544331291
0.00499544339857
0.00499544367479
0.00499544418425
0.004995444848
0.00499544561158
0.00499554844363
0.00499550016193
0.00499546970526
0.0049947388326
0.0049948282157
0.00499491889701
0.00499501670876
0.0049951295321
0.00499525987126
0.00499542462353
0.00499545063326
0.0049954507838
0.00499545072968
0.00499545076446
0.00499545083986
0.00499545094701
0.00499545109996
0.0049954512781
0.00499545143629
0.00499545159209
0.00499553368345
0.00499549462355
0.00499546565782
0.00499481420155
0.00499489811514
0.00499499162059
0.00499510211985
0.00499522825549
0.00499537399531
0.00499545969474
0.00499545672856
0.00499545691765
0.00499545706186
0.00499545718173
0.0049954572731
0.00499545733347
0.00499545736831
0.0049954573875
0.00499545738905
0.00499545747224
0.0049955290581
0.004995497664
0.00499547208568
0.00499487160693
0.00499495947087
0.00499506603971
0.00499518826418
0.00499532539386
0.00499544210412
0.00499546284018
0.00499546300855
0.00499546310139
0.00499546316784
0.00499546322841
0.00499546327315
0.00499546329319
0.00499546328464
0.00499546326764
0.00499546326713
0.00499546331624
0.0049955117066
0.00499549882054
0.00499547904656
0.00499491965602
0.0049950196656
0.00499513791163
0.00499526927288
0.00499539517513
0.00499546087217
0.00499546872221
0.00499546880876
0.00499546881105
0.00499546880783
0.00499546880578
0.00499546879447
0.00499546876188
0.00499546870107
0.0049954686341
0.00499546858888
0.00499546863435
0.00499549904408
0.00499549574632
0.00499548316868
0.00499497010103
0.00499507893354
0.00499520199748
0.00499532854353
0.00499542601196
0.00499546806576
0.00499547360022
0.00499547374735
0.00499547379239
0.00499547379679
0.00499547377719
0.00499547373157
0.00499547364777
0.00499547352211
0.0049954733694
0.00499547323069
0.00499547317998
0.00499548658963
0.00499549130079
0.00499548497697
0.00499502398132
0.00499513160666
0.0049952487234
0.00499536115208
0.00499543887265
0.00499547200972
0.00499547856733
0.00499547862984
0.00499547862635
0.00499547858766
0.00499547852504
0.00499547843951
0.00499547832251
0.00499547817589
0.00499547800795
0.00499547781798
0.00499547758707
0.0049954768828
0.0049954833291
0.00499548127796
0.00499508585794
0.00499518285069
0.00499528437832
0.00499537788977
0.00499544230661
0.00499547280104
0.00499548228404
0.00499548372175
0.004995483672
0.00499548359723
0.00499548351174
0.00499548342381
0.00499548333806
0.0049954832655
0.00499548322043
0.00499548321593
0.00499548319571
0.00499547865944
0.0049954798911
0.00499547934137
0.00499517583477
0.00499525462806
0.00499533042044
0.0049953964043
0.00499544439273
0.00499547145265
0.00499548387752
0.00499548915036
0.00499548929876
0.00499548916841
0.00499548904357
0.00499548892986
0.00499548883258
0.004995488748
0.00499548868512
0.00499548867827
0.00499549626701
0.00499549236244
0.00499548937615
0.00499548909066
0.00499532710014
0.0049953814419
0.00499542483141
0.00499545386471
0.00499547132372
0.00499548227647
0.00499548887495
0.00499549305836
0.00499549502227
0.00499549573219
0.00499549544877
0.00499549530023
0.00499549514656
0.00499549496933
0.00499549476622
0.00499549450935
0.00499550214464
0.00499549475404
0.00499549130373
0.00499548960692
0.00499557463314
0.00499559915509
0.00499560887474
0.00499560024819
0.00499557707033
0.00499554939629
0.0049955284069
0.00499551545869
0.00499550847202
0.00499550480722
0.00499550382003
0.00499550374293
0.00499550346524
0.00499550330903
0.00499550317686
0.00499551017444
0.00499551647617
0.00499550286147
0.00499549747287
0.00499549386927
0.00499594108617
0.00499592227949
0.00499589402715
0.00499585152116
0.00499579745679
0.00499573588041
0.00499567433485
0.00499562352209
0.00499558652438
0.00499556176765
0.00499554728447
0.00499553952936
0.00499553616433
0.00499553764642
0.00499554485051
0.0049955675672
0.00499555398538
0.00499553453984
0.0049955307834
0.00499553457626
0.00499639861231
0.00499631906397
0.00499624748555
0.00499617282464
0.00499609783952
0.00499602621161
0.00499595526427
0.00499588441526
0.00499581940484
0.00499576530644
0.0049957246072
0.00499569611707
0.004995682776
0.0049956958009
0.00499573485279
0.00499575706905
0.00499567429618
0.00499563622769
0.00499563329007
0.00499565697442
0.0049968153579
0.00499669080574
0.00499658924051
0.00499649984519
0.00499642089021
0.0049963550615
0.00499629849164
0.00499624537333
0.00499619596627
0.00499615428281
0.00499612148188
0.00499610484095
0.00499612011547
0.00499618693089
0.00499627546421
0.004996345607
0.00499625666023
0.00499615031124
0.00499615530436
0.0049961127328
0.00499705752047
0.00499694726938
0.00499684827795
0.00499676826878
0.00499670612392
0.00499665869482
0.00499662132399
0.00499659267034
0.00499658002274
0.00499658862784
0.00499662327943
0.00499669771927
0.00499684638188
0.00499693746093
0.00499698290797
0.00499701411481
0.00499705840714
0.00499704521779
0.0049969854309
0.00499692113236
0.00499717554385
0.0049970951835
0.00499701745272
0.00499695731085
0.00499691282192
0.00499687805251
0.00499685016135
0.00499683329506
0.00499683480291
0.0049968617792
0.00499691971965
0.00499702197729
0.00499704544932
0.00499704536117
0.0049970451533
0.00499704503039
0.00499704500322
0.00499704498333
0.00499704495685
0.00499702622739
0.00499724863627
0.00499718654458
0.00499712882401
0.0049970829225
0.00499704607269
0.00499701633188
0.00499699094387
0.00499697536744
0.00499697707692
0.00499700259969
0.00499704176262
0.00499705121519
0.0049970487748
0.00499704867322
0.00499704857492
0.00499704848977
0.00499704842753
0.00499704840188
0.00499704840824
0.00499705909774
0.0049972992062
0.00499724911335
0.00499720480975
0.00499716680652
0.00499713541135
0.00499710871542
0.00499708383817
0.00499706546266
0.00499705736994
0.00499706101523
0.00499706242521
0.00499705352202
0.00499705125004
0.00499705122044
0.00499705121725
0.0049970512314
0.00499705124976
0.00499705126838
0.00499705129348
0.00499707548306
0.00499733851161
0.0049972980074
0.00499726103358
0.00499722835019
0.00499720062753
0.00499717637608
0.00499715061136
0.00499712465878
0.00499710301456
0.00499708644269
0.00499707046151
0.00499705670182
0.00499705365318
0.00499705364456
0.00499705367291
0.00499705372554
0.00499705378657
0.00499705384769
0.0049970538822
0.00499707693345
0.00499737424518
0.00499734050335
0.0049973081403
0.00499727903088
)
;

boundaryField
{
    emptyPatch
    {
        type            empty;
    }
    minY
    {
        type            calculated;
        value           nonuniform List<scalar> 0();
    }
    maxY
    {
        type            calculated;
        value           nonuniform List<scalar> 0();
    }
    water_to_cooler
    {
        type            calculated;
        value           nonuniform List<scalar> 
37
(
0.00499130872338
0.00499136980746
0.00499140301315
0.00499142808021
0.00499141405062
0.00499131890302
0.00499112822404
0.00499074916623
0.00499007385322
0.00498952972831
0.00499239715796
0.00499506052148
0.00499535091817
0.00499544510349
0.0049954740924
0.0049954888217
0.00499549524455
0.00499544624009
0.00499546970526
0.00499546565782
0.00499547208568
0.00499547904656
0.00499548316868
0.00499548497697
0.00499548127796
0.00499547934137
0.00499548909066
0.00499548960692
0.00499549386927
0.00499553457626
0.00499565697442
0.0049961127328
0.00499692113236
0.00499702622739
0.00499705909774
0.00499707548306
0.00499707693345
)
;
    }
    water_to_heater
    {
        type            calculated;
        value           nonuniform List<scalar> 
60
(
0.00499146917583
0.00499149116167
0.00499153043291
0.00499155294415
0.00499159749352
0.00499162226927
0.0049916629036
0.00499176568582
0.00499201713152
0.00499205794306
0.00499258806182
0.00499263407379
0.00499343666129
0.00499348327244
0.00499398903358
0.00499397487628
0.00499397286036
0.00499399189775
0.0049939875589
0.00499400287378
0.00499399969866
0.00499401468201
0.00499401988432
0.00499404896267
0.00499406822416
0.00499408362167
0.00499410030719
0.00499411699421
0.00499413113416
0.00499414788256
0.00499416101048
0.00499419956016
0.00499421999583
0.00499423679591
0.00499425163034
0.00499426858691
0.00499427855612
0.0049942955694
0.00499429947568
0.00499431052963
0.004994281848
0.00499431588246
0.00499419879122
0.00499424698997
0.00499437868188
0.00499444055922
0.00499579225636
0.00499731673656
0.00499743009568
0.00499745157285
0.00499745319537
0.00499746600491
0.00499746728366
0.00499747975036
0.00499748251141
0.00499749580263
0.00499750090227
0.00499751353039
0.00499751924734
0.0049975315892
)
;
    }
    procBoundary1to0
    {
        type            processor;
        value           nonuniform List<scalar> 
41
(
0.00499754263808
0.00499754264864
0.00499754268763
0.00499754275266
0.00499754284503
0.00499754296889
0.00499754311867
0.00499754327572
0.00499754337685
0.00499754336735
0.00499753113578
0.00499750829918
0.00499748594099
0.00499747121133
0.00499746633387
0.00499746441257
0.00499746161764
0.00499745631114
0.00499744753895
0.00499743250547
0.00499725334747
0.00499723156223
0.00499720503023
0.00499717150029
0.00499713963367
0.00499710927424
0.00499708201674
0.00499706282914
0.00499705690398
0.00499705619371
0.00499705616319
0.0049970561838
0.00499705623586
0.00499705629511
0.00499705633291
0.00499707758264
0.00499740829346
0.00499738014048
0.0049973522367
0.00499725334747
0.00499732631224
)
;
    }
    procBoundary1to3
    {
        type            processor;
        value           nonuniform List<scalar> 
41
(
0.00499146063755
0.00499146005955
0.00499145950375
0.00499145679526
0.00499145095425
0.00499144504379
0.00499144069903
0.00499143321035
0.00499142219136
0.00499140981873
0.0049913974182
0.00499138508454
0.00499137265736
0.00499147134851
0.00499147153199
0.00499147170265
0.00499147182551
0.00499147191863
0.00499147198092
0.00499147202453
0.00499147202453
0.00499136129673
0.00499135111511
0.00499134473096
0.00499134538281
0.00499134713187
0.00499133954484
0.00499132742192
0.00499131594203
0.00499130721448
0.00499129810292
0.00499128962275
0.00499128201383
0.00499127423008
0.00499126819727
0.00499126645165
0.00499126902667
0.00499126442861
0.00499125464762
0.00499125258208