/*--------------------------------*- C++ -*----------------------------------*\
| =========                 |                                                 |
| \\      /  F ield         | OpenFOAM: The Open Source CFD Toolbox           |
|  \\    /   O peration     | Version:  2312                                  |
|   \\  /    A nd           | Website:  www.openfoam.com                      |
|    \\/     M anipulation  |                                                 |
\*---------------------------------------------------------------------------*/
FoamFile
{
    version     2.0;
    format      ascii;
    arch        "LSB;label=32;scalar=64";
    class       surfaceScalarField;
    location    "0.255/water";
    object      phi.gas;
}
// * * * * * * * * * * * * * * * * * * * * * * * * * * * * * * * * * * * * * //

dimensions      [0 3 -1 0 0 0 0];

oriented        oriented;

internalField   nonuniform List<scalar> 
11810
(
3.38458151581e-07
3.1772718602e-07
2.36000228419e-07
2.11590863608e-07
3.10729408777e-07
1.93745482495e-07
2.88091434719e-07
1.82904165587e-07
3.00853910888e-07
1.84908669409e-07
2.92151888115e-07
1.88826588213e-07
2.41986054309e-07
1.95030689709e-07
2.04283187262e-07
2.16635767794e-07
2.15375041926e-07
3.53531210778e-07
1.84353544558e-07
4.23626539676e-07
1.65489483005e-07
4.48748183248e-07
1.46635873939e-07
4.72648516792e-07
1.28952388482e-07
4.97811197989e-07
1.12204835114e-07
5.24205966183e-07
9.61707548877e-08
5.51878636971e-07
8.08393635113e-08
5.80847060417e-07
6.60070875852e-08
6.11123419805e-07
5.16700147525e-08
6.42720977753e-07
3.77293780751e-08
6.75650716709e-07
7.09926446807e-07
2.43727547097e-08
1.42101036442e-07
3.372471881e-07
2.42194610776e-07
2.6511431419e-07
2.3948309828e-07
2.4264103109e-07
2.72822849923e-07
2.35531042174e-07
2.7397697628e-07
2.36166769928e-07
2.77679104318e-07
2.42104866319e-07
2.64335418685e-07
2.50952705883e-07
2.31326984038e-07
2.65128089391e-07
1.1131557703e-07
3.21652516068e-07
5.11920546174e-08
3.61654859272e-07
4.35109844847e-08
3.76056673499e-07
3.76276678221e-08
3.92786590915e-07
3.24236651787e-08
4.10507580835e-07
2.76879628597e-08
4.29216864433e-07
2.32652571665e-08
4.48968154176e-07
1.91325375838e-08
4.69836073167e-07
1.52548806911e-08
4.91895947202e-07
1.16325460833e-08
5.15218725003e-07
8.22998380848e-09
5.39872896319e-07
5.65930602052e-07
5.06969704885e-09
1.63113867258e-07
4.09046046302e-07
2.06002603819e-07
3.2348874269e-07
2.17920993008e-07
2.8852138089e-07
2.34564265114e-07
2.76198150762e-07
2.41491982566e-07
2.7456975167e-07
2.43621625131e-07
2.78411912649e-07
2.40259052697e-07
2.85891944355e-07
2.24142820436e-07
2.97849013067e-07
1.61600936268e-07
3.30909543673e-07
4.34823774839e-08
3.69129731987e-07
3.08773309911e-08
3.90686604638e-07
2.82683561965e-08
4.08878002436e-07
2.55230856746e-08
4.28044354018e-07
2.28554945126e-08
4.48207766359e-07
2.01325062086e-08
4.69377916745e-07
1.7296612423e-08
4.91610175415e-07
1.43050909459e-08
5.1498328492e-07
1.11984190759e-08
5.39585085336e-07
8.01087690844e-09
5.65506144555e-07
5.92840083279e-07
4.89253173394e-09
2.22084502146e-07
4.42565035086e-07
2.37453931261e-07
3.71138113422e-07
2.40669765417e-07
3.23957164452e-07
2.4345910255e-07
3.05571618375e-07
2.39736557714e-07
3.00455689283e-07
2.33287142852e-07
3.02281690925e-07
2.24781148888e-07
3.0818875028e-07
2.11324658113e-07
3.17845821982e-07
1.83241955347e-07
3.38690208258e-07
7.82199362469e-08
3.66079441909e-07
1.7798803065e-08
3.88604083385e-07
1.70582417007e-08
4.06987357901e-07
1.59684364157e-08
4.26254314334e-07
1.46607443509e-08
4.46534214112e-07
1.3217760043e-08
4.67810739585e-07
1.16148055071e-08
4.90114773571e-07
9.77621562699e-09
5.13509906168e-07
7.70698144678e-09
5.38080093162e-07
5.4291937373e-09
5.63921650845e-07
5.91139341867e-07
3.11414380114e-09
2.60482474381e-07
4.60173467022e-07
2.74030421639e-07
4.05231958009e-07
2.68110680433e-07
3.56322239678e-07
2.64988358596e-07
3.29926001068e-07
2.55656628781e-07
3.21013810178e-07
2.42484741411e-07
3.20381852646e-07
2.26598691122e-07
3.24520043685e-07
2.09139994019e-07
3.32298199042e-07
1.8612769788e-07
3.46919707064e-07
1.31312831917e-07
3.67674078055e-07
1.94673061808e-08
3.88448753781e-07
1.140032601e-08
4.07559265215e-07
1.09109190289e-08
4.27100500086e-07
1.00097184094e-08
4.47688797514e-07
8.93716264772e-09
4.69286315178e-07
7.75493384368e-09
4.91907687249e-07
6.3968772e-09
5.15601130858e-07
4.84949120171e-09
5.40439370157e-07
3.1118141539e-09
5.6651287652e-07
5.93924633995e-07
1.34728620487e-09
2.86127750221e-07
4.6469546565e-07
2.99944636158e-07
4.25934177984e-07
2.89926652204e-07
3.84445831719e-07
2.84019073374e-07
3.52863271145e-07
2.75468726896e-07
3.39355175009e-07
2.61841068071e-07
3.35886788973e-07
2.4256296948e-07
3.37951000382e-07
2.1979580217e-07
3.43853523914e-07
1.94692813662e-07
3.54740546336e-07
1.60460123064e-07
3.70877160406e-07
5.73702726459e-08
3.89647154546e-07
1.07547741353e-08
4.07723553216e-07
9.93501526803e-09
4.27644356283e-07
8.73628408593e-09
4.48419659254e-07
7.37453485976e-09
4.70215321508e-07
5.98459098428e-09
4.93035745516e-07
4.52898146498e-09
5.1691825275e-07
2.99551725874e-09
5.41926101116e-07
1.37090843394e-09
5.68143228003e-07
5.95669420136e-07
-1.88898900952e-10
2.92172478151e-07
4.64175698867e-07
3.08470723739e-07
4.36399681779e-07
3.0132987628e-07
4.04662608561e-07
2.93303338062e-07
3.76049306363e-07
2.86824255449e-07
3.57540005353e-07
2.77438380446e-07
3.50907167379e-07
2.60949180746e-07
3.5062498551e-07
2.37387034459e-07
3.54508453821e-07
2.10047765519e-07
3.62685923239e-07
1.78520590039e-07
3.75586138665e-07
1.17133398862e-07
3.92207233979e-07
1.68773876827e-08
4.09279495834e-07
1.17963113432e-08
4.29028648194e-07
9.72587453194e-09
4.49866256721e-07
7.58091919676e-09
4.71744594846e-07
5.54076351928e-09
4.94649241426e-07
3.58863268793e-09
5.18610338318e-07
1.71632860826e-09
5.43685626046e-07
-9.62053279468e-11
5.6995563934e-07
5.97518334346e-07
-1.71617765325e-09
2.82798154955e-07
4.65267744099e-07
3.03752190759e-07
4.43554932176e-07
3.01353579323e-07
4.20176476252e-07
2.93618856743e-07
3.97175307767e-07
2.87464611346e-07
3.77204314581e-07
2.81823264482e-07
3.66485312408e-07
2.71068188188e-07
3.63684790396e-07
2.51492274793e-07
3.65443477207e-07
2.24634588455e-07
3.71185314289e-07
1.93916095138e-07
3.81384512085e-07
1.52796866642e-07
3.95718925491e-07
4.65080697098e-08
4.13099487035e-07
1.41871421093e-08
4.31157313602e-07
1.08240643987e-08
4.52156547924e-07
7.62773001852e-09
4.73946281407e-07
4.75528977056e-09
4.96763043423e-07
2.18412002001e-09
5.20640196724e-07
-1.0491905563e-10
5.45635993347e-07
-2.15102604108e-09
5.71829544995e-07
5.99315568766e-07
-3.8791628717e-09
2.8684999142e-07
4.67144982156e-07
3.14853331001e-07
4.50223044724e-07
3.04549243559e-07
4.34893581544e-07
2.9336183419e-07
4.17650885164e-07
2.8286857983e-07
3.99275480877e-07
2.77658956349e-07
3.83975271934e-07
2.71452060396e-07
3.77850789464e-07
2.57043893566e-07
3.77162121878e-07
2.32904891405e-07
3.80412684486e-07
2.03313492057e-07
3.87880487788e-07
1.67945148595e-07
3.99839272639e-07
9.64904992923e-08
4.15865125354e-07
1.40101882253e-08
4.35245282672e-07
8.74627965024e-09
4.55293157145e-07
4.71728496735e-09
4.76711459473e-07
1.31543310025e-09
4.99208014437e-07
-1.53784638663e-09
5.22809708578e-07
-3.90753511325e-09
5.47571266684e-07
-5.88426917253e-09
5.73567739603e-07
6.00891283222e-07
-7.43815717381e-09
2.94091897278e-07
4.72653116462e-07
3.19382553679e-07
4.59011502923e-07
3.00357982084e-07
4.49512611347e-07
2.83920755562e-07
4.37216884035e-07
2.70889571958e-07
4.20707574793e-07
2.64824661341e-07
4.0296886591e-07
2.61119515477e-07
3.92197837491e-07
2.51611690593e-07
3.88962492553e-07
2.31175499029e-07
3.89623046383e-07
2.02719248683e-07
3.94188034832e-07
1.70487442572e-07
4.03527184214e-07
1.2435191656e-07
4.17432143044e-07
1.56929973768e-08
4.3726937598e-07
-9.89222135787e-10
4.58272895713e-07
-4.50679244346e-09
4.79203162581e-07
-7.22506336644e-09
5.01218714482e-07
-9.32225207533e-09
5.24438477252e-07
-1.08992807958e-08
5.4890215865e-07
-1.20705770623e-08
5.74674509958e-07
6.01835957288e-07
-1.28468560998e-08
2.9675138888e-07
4.83702475533e-07
3.06147030277e-07
4.70366329982e-07
2.81546399846e-07
4.62989240312e-07
2.62765006578e-07
4.53848675608e-07
2.50894351358e-07
4.39120378839e-07
2.44790968073e-07
4.20915382702e-07
2.42085821476e-07
4.05627576703e-07
2.3628564998e-07
3.98934577422e-07
2.20013410387e-07
3.96944937025e-07
1.9353804537e-07
3.98741236064e-07
1.63212955742e-07
4.05400694642e-07
1.27129472684e-07
4.17203153e-07
4.66781811687e-08
4.34289360365e-07
-2.12873814556e-08
4.59623727819e-07
-2.1814920119e-08
4.79669106142e-07
-2.18226072968e-08
5.01397448895e-07
-2.1559531251e-08
5.24415121968e-07
-2.10850540125e-08
5.48766755655e-07
-2.04804181581e-08
5.74495697365e-07
6.01666229144e-07
-1.97452796724e-08
2.8487202242e-07
4.98468141564e-07
2.73313311935e-07
4.81130039498e-07
2.51478395974e-07
4.71896921368e-07
2.37147741335e-07
4.64009728998e-07
2.30238879266e-07
4.51393728221e-07
2.27119453689e-07
4.34412569694e-07
2.24958262993e-07
4.17399953648e-07
2.21007158333e-07
4.06055027319e-07
2.08941790668e-07
4.01437030236e-07
1.85145104875e-07
4.00784875924e-07
1.54970868882e-07
4.05032079928e-07
1.23908296246e-07
4.14963201346e-07
7.83676347014e-08
4.30086319067e-07
-3.93160378654e-08
4.51778379302e-07
-4.40868739536e-08
4.76720906082e-07
-3.95631769308e-08
4.98497175702e-07
-3.56242153965e-08
5.21894769237e-07
-3.21832265783e-08
5.4660153884e-07
-2.91801062739e-08
5.72674262533e-07
6.00173618313e-07
-2.65234302392e-08
2.594924095e-07
5.12157948056e-07
2.44665949482e-07
4.89844901659e-07
2.31653131466e-07
4.76777778449e-07
2.24191445093e-07
4.68653062095e-07
2.22523257506e-07
4.58294072708e-07
2.2305105258e-07
4.43853673305e-07
2.22062916334e-07
4.27782392261e-07
2.19157984076e-07
4.13489508876e-07
2.10500432923e-07
4.05531403072e-07
1.90079921699e-07
4.02630687145e-07
1.59948595215e-07
4.04515664649e-07
1.28680802052e-07
4.1248919006e-07
9.50457846426e-08
4.26140537529e-07
2.14463571784e-08
4.45066374411e-07
-6.18497330828e-08
4.69613370359e-07
-5.30268456502e-08
4.93204025707e-07
-4.58032948258e-08
5.17411478031e-07
-3.98106026608e-08
5.42912236781e-07
-3.48290288973e-08
5.69676305527e-07
5.97779838534e-07
-3.06473999338e-08
2.66137036322e-07
5.19743142439e-07
2.61360936905e-07
4.96336648982e-07
2.42947479686e-07
4.82687548292e-07
2.33592580283e-07
4.73998983084e-07
2.3182765874e-07
4.64801901855e-07
2.34478712462e-07
4.52460491726e-07
2.36432112148e-07
4.38171623458e-07
2.34590694648e-07
4.2403450135e-07
2.27543021225e-07
4.13113273583e-07
2.10333211536e-07
4.07788401855e-07
1.81270942321e-07
4.07024593768e-07
1.47725449763e-07
4.12428832358e-07
1.18039772352e-07
4.24267994205e-07
7.74034471659e-08
4.41469844777e-07
-4.27265579652e-08
4.6353666178e-07
-5.45916100673e-08
4.87754338014e-07
-4.65025251926e-08
5.12855872491e-07
-3.98632445914e-08
5.39188326864e-07
-3.44183275292e-08
5.66681952883e-07
5.95425725666e-07
-2.99233920286e-08
2.71783794026e-07
5.21607606277e-07
2.71452498392e-07
4.98706578971e-07
2.50773634418e-07
4.86802286013e-07
2.4111196391e-07
4.78880244926e-07
2.41194141237e-07
4.70837877716e-07
2.47790226156e-07
4.60278169185e-07
2.5386636364e-07
4.47966371927e-07
2.55575351944e-07
4.35429136867e-07
2.50431288487e-07
4.24267353591e-07
2.35185099528e-07
4.16890731617e-07
2.08263845217e-07
4.13622112763e-07
1.75061816661e-07
4.16008093029e-07
1.44261957272e-07
4.25419189271e-07
1.13930093319e-07
4.41216434346e-07
4.83307179624e-08
4.61842862441e-07
-4.21529655662e-08
4.83577141417e-07
-3.61999722268e-08
5.09879073765e-07
-3.1177551704e-08
5.36763454996e-07
-2.70868677961e-08
5.6479986714e-07
5.94029376176e-07
-2.37449748569e-08
2.67422185331e-07
5.20747021962e-07
2.71403821886e-07
4.98591127009e-07
2.51756212153e-07
4.88843962671e-07
2.44567629845e-07
4.82478535543e-07
2.47326176543e-07
4.75804911324e-07
2.57714304434e-07
4.66984937096e-07
2.69076424178e-07
4.56857529147e-07
2.75204121225e-07
4.46621177932e-07
2.71804542705e-07
4.3729442338e-07
2.56755982487e-07
4.29444361956e-07
2.31106249413e-07
4.23983062097e-07
2.00276914278e-07
4.23474065656e-07
1.70513994366e-07
4.30110253562e-07
1.46527808645e-07
4.44093744653e-07
1.08856087379e-07
4.63459598304e-07
-3.77457551334e-09
4.84444453852e-07
-1.69477071553e-08
5.0898701365e-07
-1.5361071278e-08
5.36342847322e-07
-1.41312879163e-08
5.64695016306e-07
5.94186696722e-07
-1.31968599785e-08
2.54285745192e-07
5.20222248756e-07
2.6156579468e-07
4.9790014657e-07
2.45517439812e-07
4.89557603408e-07
2.43036431957e-07
4.84768572406e-07
2.5011240816e-07
4.7973251309e-07
2.65350664774e-07
4.7293914762e-07
2.81809914304e-07
4.65429246486e-07
2.92383246691e-07
4.58321548911e-07
2.90781957819e-07
4.51936304037e-07
2.74216197025e-07
4.45234349204e-07
2.47558491291e-07
4.38184204063e-07
2.18944817335e-07
4.35146323138e-07
1.92356137018e-07
4.38948167858e-07
1.71011519459e-07
4.50563406969e-07
1.44354800094e-07
4.68664548429e-07
6.47103343868e-08
4.90213351522e-07
7.74407154092e-09
5.10496864295e-07
4.46844751735e-09
5.38437635079e-07
1.73392248357e-09
5.66787786566e-07
5.96233779655e-07
-6.08106792937e-10
2.32448642774e-07
5.29302080906e-07
2.42261259051e-07
5.01534015689e-07
2.30590031566e-07
4.91482030132e-07
2.34948745506e-07
4.86941638086e-07
2.48871481504e-07
4.8354175013e-07
2.70444430699e-07
4.79242162928e-07
2.92307930706e-07
4.74914433566e-07
3.05970371713e-07
4.71633471615e-07
3.03847491232e-07
4.68676349536e-07
2.85324616214e-07
4.63786888457e-07
2.56932070886e-07
4.56269807645e-07
2.29407634232e-07
4.50916897049e-07
2.05931813408e-07
4.51867559735e-07
1.86079362875e-07
4.60618329098e-07
1.64282232029e-07
4.76779743751e-07
1.13442629265e-07
4.9757259708e-07
3.23633869743e-08
5.15708114256e-07
2.33215330512e-08
5.43302144367e-07
1.63681518976e-08
5.71173454516e-07
6.00156059353e-07
1.06102526341e-08
2.23488723609e-07
5.43201152901e-07
2.38620584243e-07
5.08965120711e-07
2.23401173432e-07
4.96727268171e-07
2.30540307667e-07
4.91375580095e-07
2.48904550194e-07
4.89111746149e-07
2.75483430978e-07
4.87304009402e-07
3.00543110311e-07
4.86350736028e-07
3.12253738868e-07
4.86926137409e-07
3.07842780916e-07
4.86905338647e-07
2.88041723897e-07
4.84324780214e-07
2.5799106237e-07
4.77268075917e-07
2.30409124112e-07
4.69601034731e-07
2.08960024227e-07
4.6777035905e-07
1.90107006367e-07
4.73275252836e-07
1.69911115742e-07
4.86685593418e-07
1.31398946551e-07
5.05859189858e-07
4.90998358306e-08
5.2443332059e-07
3.45782428888e-08
5.50281843409e-07
2.46602416504e-08
5.77215345661e-07
6.05337498509e-07
1.64964239155e-08
2.22256438835e-07
5.59906500714e-07
2.43881578534e-07
5.19002654375e-07
2.26501714099e-07
5.04668829724e-07
2.33305420336e-07
4.9869614714e-07
2.5248716714e-07
4.97234665061e-07
2.79768460042e-07
4.97380782676e-07
3.00140444533e-07
4.99203295114e-07
3.08029252603e-07
5.02987890167e-07
3.04390705034e-07
5.05829696786e-07
2.83354882204e-07
5.0582808375e-07
2.50757662576e-07
4.99645485215e-07
2.22174093164e-07
4.89547705612e-07
2.01528077423e-07
4.84831703046e-07
1.82670088237e-07
4.86822280932e-07
1.61601037403e-07
4.96527671655e-07
1.27506025486e-07
5.13053044665e-07
5.07164022586e-08
5.34980186293e-07
3.28376436897e-08
5.57807790448e-07
2.25020166363e-08
5.83527223607e-07
6.10574205985e-07
1.39453825338e-08
2.26281940609e-07
5.74416581309e-07
2.54676928373e-07
5.29310937181e-07
2.37782561772e-07
5.14518529997e-07
2.4233892336e-07
5.09245041234e-07
2.57918809997e-07
5.08692333134e-07
2.79582691915e-07
5.10118895119e-07
2.95638842998e-07
5.13898185692e-07
3.04267757961e-07
5.1982868099e-07
2.98540870072e-07
5.24785269742e-07
2.72783014198e-07
5.26122875471e-07
2.38089441058e-07
5.20627313316e-07
2.08333653441e-07
5.09436966475e-07
1.86361932921e-07
5.00566788649e-07
1.65482722385e-07
4.98918029377e-07
1.40716691048e-07
5.04011999635e-07
1.06454629296e-07
5.16888520774e-07
3.80818493454e-08
5.38621987956e-07
1.63250101343e-08
5.63520572891e-07
8.46626678398e-09
5.8833620939e-07
6.14379915432e-07
1.92623356946e-09
2.31286404313e-07
5.84566489192e-07
2.66265415155e-07
5.40253279913e-07
2.50550276462e-07
5.27413925836e-07
2.51830979609e-07
5.24451148718e-07
2.63158559018e-07
5.25051795897e-07
2.80792624162e-07
5.26803671852e-07
2.9448444001e-07
5.30763800304e-07
2.97355348236e-07
5.36632097338e-07
2.81594350223e-07
5.41182224508e-07
2.53641494301e-07
5.41317444287e-07
2.23856234057e-07
5.3583993459e-07
1.94434783539e-07
5.26180770515e-07
1.68946826956e-07
5.145033392e-07
1.43233657877e-07
5.0660166309e-07
1.13247553619e-07
5.07188261668e-07
7.73111988012e-08
5.15998971268e-07
2.52180778515e-08
5.34618405767e-07
-1.29318706467e-08
5.6589024361e-07
-1.5742863889e-08
5.89885795846e-07
6.15384842655e-07
-1.81486735735e-08
2.38130074226e-07
5.96263615582e-07
2.72452896265e-07
5.5620266523e-07
2.5590673724e-07
5.46498020455e-07
2.52712428862e-07
5.46483176512e-07
2.5902033454e-07
5.47009510889e-07
2.69658708963e-07
5.46472081502e-07
2.73222005232e-07
5.48010530231e-07
2.63555929998e-07
5.512808091e-07
2.4465454553e-07
5.52758771409e-07
2.26084525654e-07
5.49643544969e-07
2.05735245399e-07
5.43023538747e-07
1.81594220541e-07
5.3510507404e-07
1.54263920718e-07
5.25443776015e-07
1.25072227682e-07
5.12059141238e-07
8.9402669028e-08
5.06380435923e-07
5.23942695027e-08
5.11266886088e-07
1.05580771107e-08
5.2685069056e-07
-5.0066105611e-08
5.58174193054e-07
-4.54768949716e-08
5.87487632658e-07
6.13049330049e-07
-4.27410909339e-08
2.66367372013e-07
6.05197987439e-07
2.89743669571e-07
5.75162159006e-07
2.53364988111e-07
5.72008499322e-07
2.31372992589e-07
5.75391549063e-07
2.22736864327e-07
5.72945123021e-07
2.21106847494e-07
5.66339317569e-07
2.14832699228e-07
5.62762913146e-07
2.03867092565e-07
5.61363596123e-07
1.95515802385e-07
5.57740795226e-07
1.89689158473e-07
5.50514557282e-07
1.81013920103e-07
5.42351241104e-07
1.64896381484e-07
5.35633887571e-07
1.43365506666e-07
5.29350201642e-07
1.15295787729e-07
5.17497464856e-07
7.8328636078e-08
5.03162273526e-07
3.84721411606e-08
5.04496679493e-07
9.54711736725e-10
5.17780357537e-07
-5.92880643744e-08
5.42527734294e-07
-7.539818056e-08
5.82058483138e-07
6.0769670619e-07
-6.77015120729e-08
2.89933643161e-07
6.08666841174e-07
2.76567678985e-07
5.92481486518e-07
2.17368489715e-07
5.98448761204e-07
1.74177671107e-07
6.05911686179e-07
1.52321082945e-07
5.98044372992e-07
1.45224440573e-07
5.82462981085e-07
1.41703978089e-07
5.71604865346e-07
1.41533710907e-07
5.64131852401e-07
1.45933427488e-07
5.55033328679e-07
1.51658378688e-07
5.44136931765e-07
1.54183417829e-07
5.35292696019e-07
1.48647271442e-07
5.30130019891e-07
1.33849451306e-07
5.2690111447e-07
1.11083071145e-07
5.19727023003e-07
8.13120160689e-08
5.01700741225e-07
4.16886738186e-08
4.98196806149e-07
7.51899113609e-09
5.09172791692e-07
-3.05157371257e-08
5.30709617969e-07
-1.03155078613e-07
5.6890114474e-07
6.00223733044e-07
-8.9617557439e-08
2.82176556221e-07
6.13685238882e-07
2.27845977766e-07
6.08411670441e-07
1.66417791322e-07
6.22007289956e-07
1.2064386422e-07
6.32862909008e-07
9.55444618659e-08
6.19591546633e-07
8.90412019157e-08
5.94688290306e-07
9.2448784904e-08
5.75466457885e-07
1.01816214512e-07
5.61561286119e-07
1.15257693247e-07
5.48047175623e-07
1.30570974798e-07
5.35061854347e-07
1.40810711586e-07
5.26950614284e-07
1.40993421767e-07
5.2256055766e-07
1.30723102727e-07
5.2151174057e-07
1.15021651151e-07
5.18113207898e-07
9.28113535897e-08
5.0262837745e-07
5.94545993245e-08
4.94472893859e-07
2.6457306004e-08
5.02664249747e-07
-2.46077676473e-09
5.22288537349e-07
-9.54693420483e-08
5.5164754245e-07
5.92048583321e-07
-1.05648384416e-07
2.46205224265e-07
6.28205308261e-07
1.83169240511e-07
6.24190486775e-07
1.41098611403e-07
6.38758029331e-07
1.08273558748e-07
6.52040175995e-07
8.65400298563e-08
6.37419965548e-07
8.05930357299e-08
6.05812607649e-07
8.6813933365e-08
5.78852172765e-07
1.00096886808e-07
5.58903333074e-07
1.17998280604e-07
5.42028960662e-07
1.3692885806e-07
5.28641623621e-07
1.48623155411e-07
5.2200864189e-07
1.4889646418e-07
5.17659998497e-07
1.40904367216e-07
5.16442481162e-07
1.26918612455e-07
5.15768240673e-07
1.10113356033e-07
5.04842977268e-07
8.44815784692e-08
4.94754185476e-07
5.25718734605e-08
4.99594628496e-07
2.66017254031e-08
5.17052774253e-07
-2.14894432351e-08
5.42855691394e-07
5.81965229154e-07
-1.13612817701e-07
2.18397081082e-07
6.53671565322e-07
1.71949789368e-07
6.40421880367e-07
1.46700008598e-07
6.48815697656e-07
1.26352687468e-07
6.63539588958e-07
1.10872958364e-07
6.51254339751e-07
1.06886420787e-07
6.16644734922e-07
1.14161580457e-07
5.84059146359e-07
1.28495683583e-07
5.59291658575e-07
1.46930552833e-07
5.40047566577e-07
1.64198259191e-07
5.27448747013e-07
1.73867448159e-07
5.22241073338e-07
1.73008458515e-07
5.18116588042e-07
1.63906444481e-07
5.15750029193e-07
1.50727518653e-07
5.1567426552e-07
1.34171166239e-07
5.09636024532e-07
1.11465498442e-07
4.99407399382e-07
8.1838124148e-08
5.00632875557e-07
5.85173594239e-08
5.14913572384e-07
2.85214922633e-08
5.38215956813e-07
5.70773491317e-07
-1.07102510197e-07
2.38108715786e-07
6.68630046411e-07
2.01713217708e-07
6.52660294888e-07
1.76804998616e-07
6.57040680458e-07
1.58268217592e-07
6.72828485134e-07
1.45489372273e-07
6.62993392389e-07
1.4412294623e-07
6.26908502764e-07
1.53135960765e-07
5.90768487787e-07
1.68295270545e-07
5.62767869718e-07
1.86129192077e-07
5.42272136741e-07
2.00853991117e-07
5.31298404208e-07
2.08987036153e-07
5.27294974044e-07
2.08314739957e-07
5.23800329754e-07
1.98537645361e-07
5.20585610507e-07
1.84283072212e-07
5.19943843737e-07
1.63167317539e-07
5.18052429557e-07
1.38409876475e-07
5.08546001453e-07
1.10332385531e-07
5.05568537902e-07
8.68763670655e-08
5.15612239142e-07
6.28598709672e-08
5.3671646087e-07
5.63379727849e-07
-6.28151640238e-08
2.45684427759e-07
6.73758967072e-07
2.16712574438e-07
6.56859715272e-07
1.94015867231e-07
6.60256221709e-07
1.78906790325e-07
6.76561893593e-07
1.70905332431e-07
6.69049200508e-07
1.74596538785e-07
6.33179661398e-07
1.87329113143e-07
5.96013677449e-07
2.05583362146e-07
5.66928703682e-07
2.24498985337e-07
5.46958439487e-07
2.38004782984e-07
5.38323976915e-07
2.46148314994e-07
5.35598888754e-07
2.4693388479e-07
5.33060307631e-07
2.3827907608e-07
5.2973228522e-07
2.22575902621e-07
5.28684006452e-07
1.95752658699e-07
5.30187749494e-07
1.65445920003e-07
5.22623305739e-07
1.36289839758e-07
5.13777206054e-07
1.11171583719e-07
5.18642863991e-07
8.8575859223e-08
5.37178096191e-07
5.61728685805e-07
7.54645706177e-09
2.4797476005e-07
6.74587853077e-07
2.25707678247e-07
6.55883920656e-07
2.03298441782e-07
6.6036999496e-07
1.89982797755e-07
6.76258447516e-07
1.88028772254e-07
6.68583042575e-07
1.97718085375e-07
6.3425013509e-07
2.15704799304e-07
5.98511458897e-07
2.38925817319e-07
5.70650010932e-07
2.59266772216e-07
5.53111928007e-07
2.71995760683e-07
5.47197143092e-07
2.80741916126e-07
5.45877668751e-07
2.83447482363e-07
5.44417542403e-07
2.77122724035e-07
5.41771184793e-07
2.61306635838e-07
5.40913963856e-07
2.29646770901e-07
5.45321701903e-07
1.89872293273e-07
5.40880033014e-07
1.58916969027e-07
5.24488548212e-07
1.33201441634e-07
5.23825713914e-07
1.1103166393e-07
5.3925378522e-07
5.62754561707e-07
6.64029340152e-08
2.41048116023e-07
6.74693462097e-07
2.21874052378e-07
6.5243460447e-07
2.01214149931e-07
6.57734651318e-07
1.93152807514e-07
6.71366358648e-07
1.99622354622e-07
6.62148491266e-07
2.17066385973e-07
6.3104129426e-07
2.41990644087e-07
5.98933520074e-07
2.69904929429e-07
5.74323551053e-07
2.90393150777e-07
5.60694426183e-07
3.0207289329e-07
5.57531750897e-07
3.1123128672e-07
5.57696710489e-07
3.15436888781e-07
5.57329761535e-07
3.1157988277e-07
5.55763757643e-07
2.95848703067e-07
5.55670006942e-07
2.56706925779e-07
5.62660515729e-07
2.09081123685e-07
5.6117179937e-07
1.78137459909e-07
5.39052998001e-07
1.53460842075e-07
5.31845587353e-07
1.33054742504e-07
5.43467447755e-07
5.66038076107e-07
1.01234110428e-07
2.24119347196e-07
6.86959511529e-07
2.05722122749e-07
6.52935201726e-07
1.89803155175e-07
6.53094755167e-07
1.91731873066e-07
6.61496036818e-07
2.08337315698e-07
6.51350842845e-07
2.3449912622e-07
6.24990132174e-07
2.66138421885e-07
5.98148304425e-07
2.96869956068e-07
5.78346293836e-07
3.16105094333e-07
5.6959206082e-07
3.26869923607e-07
5.69054172648e-07
3.36089886408e-07
5.70745518315e-07
3.40776060776e-07
5.71532693192e-07
3.38203030197e-07
5.71224828198e-07
3.2016496524e-07
5.72698300161e-07
2.73429339091e-07
5.82606256686e-07
2.24909363286e-07
5.82629615259e-07
1.93826974808e-07
5.58177583117e-07
1.71043056673e-07
5.43607310169e-07
1.51888442631e-07
5.50723038886e-07
5.71957786721e-07
1.24694721029e-07
2.19613418551e-07
6.99939824102e-07
2.04864773038e-07
6.5406552271e-07
1.89804885572e-07
6.4791719065e-07
1.97258688571e-07
6.5003240572e-07
2.19663020153e-07
6.39411974337e-07
2.51864945582e-07
6.18115628546e-07
2.88177313288e-07
5.97289000823e-07
3.19127694588e-07
5.83382027069e-07
3.3599015425e-07
5.79700538847e-07
3.46219101785e-07
5.8163759217e-07
3.55050751361e-07
5.84854451816e-07
3.59105458727e-07
5.86843012543e-07
3.56440756895e-07
5.87980882612e-07
3.33191350083e-07
5.91924713633e-07
2.82483200749e-07
6.04584310687e-07
2.3618687092e-07
6.04965068119e-07
2.04288425752e-07
5.80315076905e-07
1.84302497554e-07
5.59228999386e-07
1.66232449953e-07
5.61382280458e-07
5.80295938071e-07
1.4049916325e-07
2.19205156402e-07
7.14391004176e-07
2.10537676318e-07
6.55744977096e-07
1.95905434799e-07
6.42143617845e-07
2.06224873518e-07
6.38147699681e-07
2.3206123181e-07
6.27635031205e-07
2.6853603716e-07
6.11586270147e-07
3.07779403956e-07
5.97216372166e-07
3.36433147167e-07
5.89972711149e-07
3.50850943339e-07
5.90835041329e-07
3.61220140211e-07
5.95101550522e-07
3.68927061621e-07
5.99710961821e-07
3.71645846552e-07
6.02853311208e-07
3.6768314544e-07
6.05563283562e-07
3.36483005309e-07
6.12786337535e-07
2.84690466734e-07
6.2686433707e-07
2.41601101455e-07
6.28097485905e-07
2.10898127261e-07
6.04592711514e-07
1.93153429595e-07
5.78541832096e-07
1.75776510995e-07
5.75094299463e-07
5.90380551274e-07
1.49735327239e-07
2.17683715634e-07
7.26567818197e-07
2.15094909134e-07
6.56550640854e-07
2.03332215455e-07
6.35238896509e-07
2.17423496499e-07
6.26523309442e-07
2.46576386919e-07
6.17425049513e-07
2.86491588152e-07
6.06942904218e-07
3.25931226936e-07
5.99255239346e-07
3.50252305956e-07
5.98598411575e-07
3.63135132694e-07
6.03029549666e-07
3.72904821445e-07
6.09248804552e-07
3.78975713107e-07
6.14954109617e-07
3.79627056471e-07
6.18959220792e-07
3.71338942848e-07
6.23225586709e-07
3.3094265484e-07
6.34401176357e-07
2.82603560893e-07
6.48545882102e-07
2.44512564935e-07
6.51557395698e-07
2.15394863636e-07
6.3111495358e-07
1.97807455277e-07
6.0071143241e-07
1.79828061069e-07
5.90933550148e-07
6.01219594025e-07
1.52253563443e-07
2.12001565131e-07
7.40429039074e-07
2.18052347468e-07
6.57118016943e-07
2.11969177893e-07
6.2821482795e-07
2.31422364261e-07
6.16744866753e-07
2.64467361431e-07
6.10454230095e-07
3.06688878247e-07
6.05772335275e-07
3.41718361854e-07
6.04790221817e-07
3.61282615871e-07
6.09469969894e-07
3.73556337438e-07
6.16583797844e-07
3.81731232429e-07
6.24112597475e-07
3.84937522389e-07
6.30279345297e-07
3.82743215855e-07
6.34526641124e-07
3.65692410543e-07
6.40209929487e-07
3.19438955088e-07
6.54587273844e-07
2.79250457671e-07
6.68600766946e-07
2.46872975579e-07
6.74324269847e-07
2.18340551225e-07
6.59714858039e-07
1.97909198665e-07
6.25008427042e-07
1.7780059636e-07
6.08145957127e-07
6.11967740873e-07
1.48150287144e-07
1.97798078144e-07
7.59978676347e-07
2.13513390116e-07
6.58521741992e-07
2.15985956679e-07
6.22092326666e-07
2.42571833061e-07
6.09709087688e-07
2.80554794851e-07
6.0752107713e-07
3.2281973638e-07
6.08819594642e-07
3.51562991142e-07
6.14234083345e-07
3.68001617468e-07
6.22539840739e-07
3.79299312182e-07
6.31479146051e-07
3.84299003528e-07
6.39387356251e-07
3.83473486394e-07
6.45106076065e-07
3.7697577436e-07
6.49025358499e-07
3.48452169367e-07
6.55425679842e-07
3.0472445193e-07
6.70753806351e-07
2.75204918771e-07
6.85518633831e-07
2.49648444228e-07
6.95621460957e-07
2.19120370719e-07
6.89723331737e-07
1.92650384746e-07
6.53414377428e-07
1.69317373918e-07
6.26210056529e-07
6.22116589313e-07
1.37845466093e-07
2.0098329818e-07
7.73345030549e-07
2.3539702068e-07
6.59933040165e-07
2.33390663167e-07
6.21538181367e-07
2.5968351389e-07
6.10018854455e-07
2.97030556142e-07
6.11899200278e-07
3.31929410154e-07
6.18211051184e-07
3.54311813461e-07
6.28220825243e-07
3.69507740002e-07
6.38715984204e-07
3.77027696188e-07
6.48174753964e-07
3.76574862654e-07
6.55166509507e-07
3.70154228441e-07
6.59306083289e-07
3.55437827946e-07
6.62206867265e-07
3.21446859002e-07
6.68438836244e-07
2.88354514708e-07
6.82234333474e-07
2.70056825732e-07
6.98135867276e-07
2.504622062e-07
7.14549664334e-07
2.17212923708e-07
7.18957687871e-07
1.82882623657e-07
6.86706580563e-07
1.54891530456e-07
6.43932427996e-07
6.31308413916e-07
1.21358566816e-07
2.10686663603e-07
7.74119836336e-07
2.66725926976e-07
6.61516456389e-07
2.58764488882e-07
6.27760969389e-07
2.78883733551e-07
6.20129866464e-07
3.08090138142e-07
6.26110884741e-07
3.33136050506e-07
6.36052746504e-07
3.51074002447e-07
6.48148607218e-07
3.61813950127e-07
6.59060203843e-07
3.62351801361e-07
6.67541878897e-07
3.52728699695e-07
6.71744158866e-07
3.38509034862e-07
6.72849999785e-07
3.17212304054e-07
6.74280990335e-07
2.86760448675e-07
6.7911512393e-07
2.67596070302e-07
6.8996853515e-07
2.5921380161e-07
7.06644174737e-07
2.41580772245e-07
7.29743447532e-07
2.07795207571e-07
7.43479873117e-07
1.6702732799e-07
7.19517361557e-07
1.35958451791e-07
6.60340402384e-07
6.39081310012e-07
1.00412212787e-07
2.23420305206e-07
7.68214322439e-07
2.99913601001e-07
6.68806656256e-07
2.83442974819e-07
6.44528611519e-07
2.93190993609e-07
6.44219396628e-07
3.11372982264e-07
6.5465625124e-07
3.28323742763e-07
6.6574569256e-07
3.39320826778e-07
6.76438917685e-07
3.3976028251e-07
6.84757113823e-07
3.24258630737e-07
6.88794586843e-07
3.02160776194e-07