/*--------------------------------*- C++ -*----------------------------------*\
| =========                 |                                                 |
| \\      /  F ield         | OpenFOAM: The Open Source CFD Toolbox           |
|  \\    /   O peration     | Version:  2312                                  |
|   \\  /    A nd           | Website:  www.openfoam.com                      |
|    \\/     M anipulation  |                                                 |
\*---------------------------------------------------------------------------*/
FoamFile
{
    version     2.0;
    format      ascii;
    arch        "LSB;label=32;scalar=64";
    class       volScalarField;
    location    "0.21/water";
    object      p_rgh;
}
// * * * * * * * * * * * * * * * * * * * * * * * * * * * * * * * * * * * * * //

dimensions      [1 -1 -2 0 0 0 0];

internalField   nonuniform List<scalar> 
1496
(
100481.938628
100684.100345
100829.478738
100900.80315
100945.280232
100994.400923
101062.617689
101157.280554
101278.513397
101417.455096
101548.200683
101617.713066
101624.338059
101622.993746
101623.115282
101618.880721
101477.122228
101009.772019
100826.211427
100828.459527
100493.728833
100793.962573
100953.726481
101039.327708
101099.269422
101165.650371
101248.989339
101351.784709
101467.408417
101573.12331
101625.424782
101628.152943
101625.143605
101623.056627
101614.40249
101400.182382
100973.518668
100817.413269
100818.289844
100823.887624
100507.647921
100936.344809
101126.570976
101238.877207
101314.794772
101389.814545
101469.906561
101550.14382
101611.35522
101632.324089
101628.66275
101624.279449
101620.201311
101585.185401
101283.86567
100899.11771
100809.282127
100808.794023
100814.626635
100815.41665
100539.997601
101098.55883
101337.399548
101478.454407
101552.076843
101598.067107
101625.47215
101635.830703
101632.747145
101626.986596
101621.596371
101615.972083
101545.826211
101159.357792
100831.445325
100801.867906
100799.749839
100805.97783
100804.275081
100809.889034
100641.078953
101284.831718
101554.432424
101648.621255
101649.390295
101643.875686
101638.601241
101632.595787
101627.559361
101620.418301
101613.671919
101507.695581
101055.892412
100794.806238
100795.377404
100791.176937
100798.137876
100795.137721
100801.258972
100802.671629
100850.72067
101499.090887
101661.70369
101657.251117
101650.66159
101647.477062
101638.509265
101634.599037
101623.089328
101615.809472
101458.895922
101009.886687
100783.799306
100789.568097
100784.070671
100791.179932
100786.524581
100793.622816
100792.242457
100797.069665
101170.880939
101620.062789
101673.283948
101666.402143
101663.965063
101650.173338
101645.771566
101626.856627
101563.609879
101389.992042
101017.0203
100778.934419
100783.922347
100777.776131
100784.720054
100778.952281
100786.570118
100783.918936
100789.691372
100792.161342
101456.172334
101650.324768
101695.327481
101684.903658
101657.206059
101615.86625
101562.48754
101491.179259
101343.106719
101071.696539
100830.249932
100778.594412
100772.752653
100778.33649
100772.272525
100779.483861
100775.279595
100782.227094
100782.712636
100804.688536
101504.230979
101532.820363
101576.865643
101588.24131
101559.722039
101517.806865
101480.445818
101390.189483
101187.029553
100957.400067
100807.005945
100768.330927
100770.841888
100765.842131
100771.500972
100766.658553
100773.933007
100773.070944
100778.026328
100860.504944
101156.033791
100956.932535
101184.892779
101335.206526
101429.958103
101450.829566
101442.080476
101356.456638
101158.499252
100949.146258
100803.077242
100760.513931
100758.050946
100761.6282
100756.825812
100764.236777
100761.261549
100768.389487
100786.636752
100964.027581
100557.526363
100443.380798
100631.184082
100835.892592
101132.129023
101318.971632
101368.600322
101347.659728
101216.444336
101022.902155
100847.975162
100758.623839
100750.994969
100747.940893
100753.81316
100749.572113
100757.604607
100759.11997
100848.433512
101084.924847
100307.501585
100333.780028
100399.917689
100466.191861
100653.133241
100991.287718
101246.192097
101313.350963
101294.943703
101181.238727
100978.240333
100811.580807
100743.55598
100744.974931
100741.249863
100747.644571
100746.641635
100768.446702
100950.631838
101189.890161
100254.556014
100317.45179
100349.717121
100365.507501
100405.558209
100556.80761
100915.221207
101205.375546
101280.031461
101272.866412
101157.763926
100946.803982
100786.10001
100737.783792
100739.924835
100736.683051
100742.211514
100813.240099
101049.323662
101266.641778
100250.678105
100311.675989
100338.193007
100345.258595
100354.974585
100387.107029
100543.001543
100914.407344
101200.463513
101262.928865
101260.01786
101139.709945
100915.661593
100764.902527
100733.489636
100735.396911
100735.766445
100876.949944
101118.771946
101318.705069
100252.03019
100308.427577
100334.710794
100339.818082
100343.77489
100354.326101
100400.653987
100589.444294
100952.72404
101212.393408
101254.08481
101263.625701
101118.387375
100882.918536
100748.463288
100730.4907
100739.856667
100930.370644
101163.992557
101352.588565
100249.530657
100306.535289
100334.489856
100339.363482
100341.003812
100347.231667
100371.835372
100452.542678
100671.547646
101003.226241
101232.384277
101267.960974
101275.040994
101096.510292
100852.892657
100757.263589
100773.813347
100969.863423
101195.085163
101373.929578
100252.006439
100304.820543
100336.460834
100342.951075
100343.014773
100347.113234
100366.163846
100420.986227
100542.69644
100767.434643
101056.750683
101259.42176
101294.703898
101297.804805
101062.64565
100873.364788
100849.862511
101008.968562
101215.317573
101386.314817
100249.615027
100302.327609
100341.051132
100354.156897
100352.996956
100353.330667
100368.358889
100415.364448
100506.966193
100654.668821
100869.832415
101115.250772
101294.245524
101344.427601
101287.202467
101066.30714
100962.866899
101057.128639
101226.466317
101391.44433
100252.257634
100298.818364
100346.325077
100372.082661
100375.626942
100373.665912
100381.135582
100419.171658
100500.384034
100619.176505
100779.644145
100978.899899
101197.557833
101347.440052
101396.332339
101262.552182
101099.301199
101119.222526
101235.294064
101390.560297
100250.43452
100296.552419
100351.038705
100391.466118
100407.649758
100409.660106
100412.214953
100436.584484
100505.822946
100613.634288
100751.550216
100919.66639
101113.912598
101316.610386
101427.41407
101388.625867
101242.349298
101189.103071
101255.565763
101388.383869
100252.570359
100297.183674
100356.228238
100408.428133
100437.500608
100450.481472
100458.251751
100475.775218
100528.091907
100621.673913
100751.837356
100908.661514
101086.907099
101282.411217
101440.790135
101453.004218
101365.868711
101268.559848
101293.193142
101389.74066
100251.614298
100303.20122
100364.20445
100421.506872
100453.274059
100476.407166
100502.211477
100532.00673
100576.327051
100652.81947
100768.639945
100917.924502
101091.88027
101283.106652
101454.946518
101505.168727
101456.618704
101354.333005
101344.113355
101397.786157
100252.757462
100321.979919
100378.312137
100430.819965
100455.857992
100481.865916
100523.827785
100584.048094
100646.148291
100718.77551
100820.495777
100955.109545
101119.015667
101305.838208
101480.7222
101541.825998
101521.841931
101444.779972
101397.983019
101417.321423
100259.491223
100357.733811
100400.453019
100437.43682
100453.081315
100478.760599
100523.82987
100607.741611
100715.630224
100809.96239
100909.367827
101033.138651
101188.085877
101368.049635
101523.34753
101552.410795
101552.320273
101525.357377
101466.856024
101443.699678
100309.269778
100405.53718
100426.86622
100442.536384
100445.469279
100465.660162
100512.837292
100604.07741
100750.338662
100896.153845
101015.081289
101140.817666
101294.456945
101464.715166
101558.904807
101560.581642
101560.17001
101560.322169
101534.156271
101482.15697
100407.818804
100453.056045
100452.062615
100446.469858
100446.861383
100450.614597
100490.528225
100584.711225
100745.788887
100941.769366
101106.908964
101256.481299
101418.212277
101551.332698
101569.341507
101568.586663
101569.128748
101567.958917
101568.09531
101528.864847
100488.353554
100491.406424
100478.18434
100453.935335
100448.993924
100449.48789
100472.626683
100557.606851
100723.977434
100940.333967
101158.621619
101353.392949
101522.516607
101578.834385
101577.700728
101578.116655
101576.818543
101577.725303
101575.648618
101564.488747
100506.174776
100525.616793
100511.972547
100471.267831
100451.2715
100451.696263
100467.464205
100543.160009
100702.105123
100927.670647
101173.190896
101407.814421
101570.325803
101587.916688
101587.853454
101586.50307
101587.566087
101585.078985
101586.06501
101580.427731
100508.607432
100585.838164
100566.912044
100502.204042
100458.099007
100454.042562
100471.500365
100546.953434
100702.171331
100924.483543
101181.469523
101432.031806
101587.296152
101598.188132
101596.917327
101597.749425
101595.174019
101596.407785
101592.683347
101586.540472
100511.507806
100727.984533
100650.621303
100548.22021
100481.542134
100470.941358
100489.700948
100564.484286
100715.432762
100935.528428
101196.082729
101452.640503
101600.917766
101607.871401
101607.937476
101605.743948
101606.964126
101603.029755
101604.027987
101563.541332
100514.767847
100884.311634
100740.124634
100626.458768
100542.073699
100524.994985
100542.110042
100613.001069
100756.877831
100970.575966
101230.37054
101484.312222
101615.817139
101617.914695
101616.187626
101617.012734
101613.256878
101614.106086
101573.339241
101521.382167
100517.136605
100975.107581
100830.220056
100745.403858
100661.301057
100637.23015
100648.988096
100711.179497
100845.615199
101050.525152
101301.728891
101538.768765
101628.388097
101626.046625
101625.967721
101622.718797
101623.298827
101567.229819
101468.201733
101511.604953
100522.30509
100993.352835
100901.185455
100878.37578
100829.988938
100810.028197
100817.010938
100870.27932
100994.392262
101188.297039
101420.739547
101608.772186
101634.840537
101633.615637
101630.463851
101630.527624
101545.107716
101395.647964
101429.466067
101549.574973
100603.929918
100996.261332
100946.327053
100965.003071
100989.499617
101010.801961
101033.118875
101087.587361
101201.426902
101374.821404
101560.826715
101640.122662
101637.377342
101634.171197
101624.739074
101495.259015
101308.294504
101324.927365
101457.563462
101606.854528
100730.426853
100982.456463
100941.992848
100965.26256
101043.411676
101138.702235
101214.034395
101288.026113
101386.632354
101503.902113
101602.373998
101631.903472
101621.828682
101567.593918
101402.31622
101209.868761
101214.494226
101341.403038
101519.18884
101633.542625
100780.950026
100899.405481
100873.706535
100906.767496
100998.182867
101112.38399
101209.346909
101296.536167
101386.44531
101482.088137
101547.650569
101532.311945
101437.590361
101257.640381
101101.975388
101114.582807
101222.08825
101390.829185
101570.129313
101632.635297
100753.614676
100768.439819
100753.187104
100792.572303
100886.346045
101002.372078
101106.435633
101184.642689
101244.411423
101278.560664
101255.992572
101173.086772
101060.680302
100994.393335
101027.722038
101124.780974
101278.708319
101471.393459
101611.790442
101630.844444
101120.151552
101109.549318
101109.439719
101140.753434
101277.591283
101510.121716
101700.937541
101772.96243
101787.90238
101789.360668
101789.181258
101789.006065
101788.875675
101788.785306
101788.730487
101788.708789
100860.609791
100990.415255
101116.294316
101175.751668
101138.861066
101106.906581
101106.673247
101123.381424
101270.512832
101509.795314
101703.06425
101776.041401
101791.358769
101792.862909
101792.714889
101792.570095
101792.461812
101792.386042
101792.339258
101792.31788
100869.716865
101029.342453
101174.441496
101229.253693
101169.128819
101103.637247
101103.035796
101106.9449
101253.671281
101497.97032
101698.442097
101776.814081
101793.952537
101795.690099
101795.590876
101795.483171
101795.402395
101795.345324
101795.309399
101795.290348
100884.195386
101079.155121
101243.108309
101292.175021
101207.991927
101099.924903
101099.196472
101100.365735
101229.83058
101470.081044
101683.055197
101773.808108
101795.506
101798.022259
101797.996919
101797.930832
101797.881169
101797.84556
101797.822487
101797.807849
100903.443596
101133.583377
101309.168218
101350.490588
101248.930852
101095.980483
101094.924697
101095.183252
101202.579171
101432.799263
101658.574334
101766.444483
101795.863794
101800.060902
101800.154357
101800.125507
101800.103725
101800.087517
101800.076377
101800.067221
100928.968398
101187.917906
101360.939417
101391.286026
101289.255665
101103.02887
101090.963117
101090.931263
101178.85401
101402.371968
101635.546414
101757.683007
101795.566093
101802.017199
101802.263179
101802.253153
101802.245792
101802.239881
101802.235409
101802.230531
100964.914632
101239.749243
101394.29528
101414.648992
101331.021874
101138.098571
101086.752383
101087.292835
101165.240217
101394.941484
101630.954673
101755.357895
101796.543584
101804.074961
101804.389255
101804.38138
101804.376277
101804.372417
101804.369767
101804.36731
101015.808268
101286.391425
101412.213961
101428.631903
101371.484481
101194.649777
101083.28287
101083.202686
101160.835991
101399.305518
101636.113937
101758.317641
101798.920739
101806.226187
101806.507954
101806.498576
101806.492535
101806.488265
101806.485873
101806.484979
101084.503608
101324.615426
101420.281524
101439.316902
101407.855477
101252.602829
101078.997868
101079.625338
101163.45047
101421.073259
101654.285448
101766.849993
101802.780663
101808.452665
101808.60433
101808.59316
101808.585332
101808.579687
101808.57671
101808.576646
101166.269139
101350.858664
101423.575953
101451.840011
101445.670048
101288.243649
101075.266022
101075.205004
101184.530542
101467.6316
101687.560647
101781.764937
101807.763671
101810.626559
101810.651104
101810.640684
101810.632663
101810.626577
101810.623331
101810.623569
101244.604423
101365.584002
101426.910608
101472.588607
101480.246305
101291.602283
101070.358718
101071.570443
101229.42289
101532.288091
101726.965228
101797.39957
101811.774026
101812.615619
101812.621555
101812.62259
101812.62232
101812.621213
101812.62083
101812.622078
101304.56404
101375.032715
101434.508273
101491.275644
101490.614641
101278.839777
101066.698021
101067.109961
101293.595191
101601.283636
101761.809409
101808.28163
101814.304554
101814.525903
101814.565258
101814.590624
101814.607519
101814.617783
101814.624078
101814.627799
101343.564007
101386.249702
101447.830148
101489.775574
101490.240562
101233.859561
101061.554583
101072.42002
101372.079094
101663.596516
101786.921875
101814.180661
101816.365631
101816.536849
101816.618239
101816.671901
101816.708829
101816.732392
101816.746557
101816.7535
101367.996581
101405.397102
101475.784433
101489.203336
101480.427605
101137.27263
101058.491245
101124.286834
101459.232277
101714.340132
101802.899903
101817.668038
101818.59804
101818.806592
101818.925484
101819.00248
101819.055734
101819.090025
101819.110491
101819.120139
101386.750708
101429.624011
101487.482748
101488.308812
101445.232079
101055.423496
101054.525878
101206.568406
101546.283614
101753.953563
101813.013501
101820.668499
101821.220055
101821.45764
101821.596436
101821.685261
101821.746403
101821.785634
101821.808729
101821.819081
101406.663018
101457.880603
101487.811519
101489.991026
101377.70811
101051.397972
101052.504409
101301.272522
101627.931898
101784.114926
101820.062287
101823.860686
101824.283693
101824.529117
101824.670206
101824.760307
101824.821669
101824.860517
101824.882495
101824.890714
101429.091167
101487.383546
101489.308688
101489.385379
101288.513276
101049.855583
101083.205036
101412.560681
101698.789388
101806.005348
101825.565961
101827.384462
101827.754338
101827.995501
101828.127015
101828.213707
101828.272267
101828.30857
101828.32721
101828.330436
101449.883094
101488.885281
101489.932731
101491.883246
101187.141209
101046.306309
101181.106
101528.023435
101754.43151
101821.015825
101830.312544
101831.226824
101831.579403
101831.799348
101831.923313
101832.010668
101832.070249
101832.106385
101832.121982
101832.118323
101469.725191
101490.24701
101492.669341
101482.670762
101089.716251
101045.453728
101276.083243
101615.288255
101792.309226
101830.68528
101834.749079
101835.35625
101835.702479
101835.904427
101836.043573
101836.144858
101836.215087
101836.256814
101836.271888
101836.26133
101484.297741
101492.540539
101493.053892
101422.315495
101026.333199
101047.710343
101322.937055
101635.283071
101800.755759
101836.697544
101839.383659
101839.889232
101840.195072
101840.408226
101840.568378
101840.686008
101840.767612
101840.814766
101840.829489
101840.812895
101486.831518
101494.883871
101497.302707
101324.284767
101013.676575
101066.415984
101325.234377
101628.229524
101800.988908
101841.36788
101844.491194
101844.897577
101845.184829
101845.406526
101845.57441
101845.697742
101845.782083
101845.829013
101845.841529
101845.820352
101486.697961
101499.055979
101498.846788
101213.4436
101012.227504
101069.381331
101310.304091
101598.351136
101788.528834
101844.599289
101849.9537
101850.383792
101850.66777
101850.889932
101851.059001
101851.182602
101851.265478
101851.309948
101851.320435
101851.296983
101481.404644
101503.066108
101478.927246
101119.75001
101013.364255
101059.766665
101265.44405
101529.60071
101744.835181
101839.174575
101855.327671
101856.334192
101856.621017
101856.845341
101857.016413
101857.140745
101857.22272
101857.265727
101857.275824
101857.252426
101471.993267
101506.572023
101406.84827
101080.115675
101013.229811
101038.657654
101192.799932
101421.667213
101647.049804
101800.582153
101855.247514
101862.635621
101863.084635
101863.303985
101863.472553
101863.595
101863.675101
101863.716922
101863.727722
101863.706145
101462.237974
101475.982141
101358.198175
101074.505175
101016.079226
101029.924416
101141.355401
101316.316826
101500.66423
101687.159781
101823.520826
101866.662653
101870.071099
101870.290444
101870.450704
101870.567774
101870.644461
101870.685118
101870.697496
101870.679446
101461.146766
101446.616465
101333.223412
101082.244188
101018.016349
101046.637039
101157.468031
101253.602591
101330.318409
101481.375103
101716.657904
101856.796825
101877.410779
101877.882198
101878.007705
101878.099922
101878.15931
101878.189947
101878.198954
101878.183862
101474.415941
101437.587159
101332.041333
101114.509271
101034.916596
101102.361861
101219.747149
101213.165973
101143.370366
101232.98103
101539.496797
101815.339679
101883.529376
101886.103964
101886.115828
101886.128819
101886.134222
101886.131338
101886.123203
101886.106151
101494.621377
101444.192633
101350.519241
101189.050144
101137.457054
101220.961317
101309.936889
101186.89914
100944.831643
101016.516441
101338.504236
101718.281847
101878.218442
101894.255513
101894.296651
101894.231021
101894.18591
101894.153283
101894.130916
101894.113497
101508.222591
101463.804269
101409.274329
101323.681529
101321.265323
101398.540081
101409.522806
101137.690667
100796.39162
100869.633811
101141.435453
101541.961055
101831.319557
101899.186096
101902.113075
101902.039708
101901.991096
101901.959728
101901.941267
101901.9324
101516.889557
101504.807214
101497.620601
101481.554253
101499.774563
101562.047251
101481.799625
101026.714246
100769.761477
100803.722265
100994.866604
101359.852882
101735.694826
101889.461286
101909.187018
101909.545644
101909.513853
101909.502205
101909.495412
101909.498084
101529.671011
101552.123105
101570.150543
101581.543534
101616.000081
101655.306935
101477.436171
100911.813844
100767.242587
100770.943527
100919.493592
101244.994853
101639.827252
101860.495421
101913.03045
101916.692706
101916.699
101916.752096
101916.782034
101916.796426
101553.993538
101596.331716
101604.096071
101615.361162
101664.76909
101690.839687
101436.605386
100846.284529
100768.063117
100767.739489
100887.23674
101185.77853
101575.809852
101827.948376
101911.732827
101923.236216
101923.433238
101923.57892
101923.766867
101923.796189
101597.634856
101618.276348
101613.73692
101626.420501
101689.333613
101714.337039
101437.354147
100842.966864
100765.02928
100767.284894
100871.281837
101154.686516
101542.178621
101807.372782
101909.217708
101929.001547
101929.626504
101929.849009
101930.389853
101930.445666
101629.183823
101625.315937
101615.850783
101632.779017
101706.420279
101749.626795
101506.002388
100877.968798
100765.206733
100764.770423
100859.683481
101131.777948
101520.1149
101796.792186
101908.905636
101934.22281
101935.153198
101935.524254
101936.595781
101936.696397
101634.642351
101624.403384
101612.204645
101638.630477
101725.504968
101795.354015
101643.108544
100971.528275
100762.529752
100763.337949
100846.163628
101103.800034
101492.053634
101784.941301
101908.616554
101938.814329
101939.913391
101940.487762
101942.322655
101942.517256
101635.190881
101608.790403
101604.164217
101648.892266
101749.738075
101836.17119
101767.973128
101119.664623
100762.901686
100760.436899
100827.287217
101060.933881
101444.922278
101761.214088
101904.26417
101942.385333
101944.150264
101944.773663
101947.569081
101947.965405
101627.099083
101588.747055
101601.695161
101668.302045
101776.286934
101862.69671
101836.230225
101347.165356
100822.323286
100758.479818
100801.892531
100996.789146
101366.186772
101712.827471
101890.112215
101943.932076
101948.474691
101948.798757
101952.278282
101953.043667
101593.276139
101576.490308
101616.047414
101715.241038
101822.30547
101884.005347
101876.824732
101656.045759
100996.469745
100756.301088
100780.901774
100940.326239
101276.142978
101630.551888
101851.759542
101938.604568
101952.549576
101952.47996
101956.021786
101956.501664
)
;

boundaryField
{
    emptyPatch
    {
        type            empty;
    }
    minY
    {
        type            zeroGradient;
    }
    maxY
    {
        type            prghTotalPressure;
        U               U.gas;
        p0              uniform 100000;
        value           nonuniform List<scalar> 
40
(
100747.529462
100765.66069
100747.753369
100786.952375
100881.709748
100999.069905
101104.301999
101183.382951
101243.891269
101278.996752
101257.55105
101175.13649
101062.127775
100994.401361
101026.314679
101122.631891
101276.56358
101469.705726
101610.863422
101630.463485
101593.129869
101576.409971
101616.066929
101715.551596
101823.070498
101885.418892
101879.047112
101658.566484
100997.586311
100756.451626
100780.6584
100940.111833
101276.625384
101632.057016
101854.057605
101941.484787
101956.157644
101957.188187
101939.942317
101961.985778
)
;
    }
    maxX
    {
        type            fixedFluxPressure;
        gradient        uniform 0;
        value           nonuniform List<scalar> 
38
(
101788.708789
101792.31788
101795.290348
101797.807849
101800.067221
101802.230531
101804.36731
101806.484979
101808.576646
101810.623569
101812.622078
101814.627799
101816.7535
101819.120139
101821.819081
101824.890714
101828.330436
101832.118323
101836.26133
101840.812895
101845.820352
101851.296983
101857.252426
101863.706145
101870.679446
101878.183862
101886.106151
101894.113497
101901.9324
101909.498084
101916.796426
101923.796189
101930.445666
101936.696397
101942.517256
101947.965405
101953.043667
101956.501664
)
;
    }
    water_to_heater
    {
        type            fixedFluxPressure;
        gradient        uniform 0;
        value           nonuniform List<scalar> 
59
(
100481.938628
100481.938628
100493.728833
100507.647921
100539.997601
100539.997601
100641.078953
100641.078953
100850.72067
100850.72067
101170.880939
101456.172334
101504.230979
101504.230979
101156.033791
101156.033791
100557.526363
100557.526363
100307.501585
100254.556014
100250.678105
100250.678105
100252.03019
100252.03019
100249.530657
100249.530657
100252.006439
100249.615027
100252.257634
100252.257634
100250.43452
100250.43452
100252.570359
100252.570359
100251.614298
100252.757462
100259.491223
100259.491223
100309.269778
100309.269778
100407.818804
100407.818804
100488.353554
100506.174776
100508.607432
100508.607432
100511.507806
100511.507806
100514.767847
100514.767847
100517.136605
100522.30509
100603.929918
100603.929918
100730.426853
100730.426853
100780.950026
100780.950026
100753.614676
)
;
    }
    procBoundary0to1
    {
        type            processor;
        value           nonuniform List<scalar> 
41
(
100470.501777
100613.424573
100742.086126
100810.168053
100846.535226
100880.959366
100930.387527
101006.377048
101114.674885
101253.232748
101408.84423
101547.887605
101613.336344
101618.767189
101618.988543
101620.51931
101618.097749
101491.717302
100979.001393
100835.213715
101112.114208
101111.008133
101112.776778
101147.854784
101277.503197
101502.946192
101694.005674
101768.293586
101783.576825
101785.041535
101784.837733
101784.640762
101784.495094
101784.395184
101784.335708
101784.31559
100859.001811
100964.402704
101076.08757
101137.955672
101137.955672
)
;
    }
}


// ************************************************************************* //
