/*--------------------------------*- C++ -*----------------------------------*\
| =========                 |                                                 |
| \\      /  F ield         | OpenFOAM: The Open Source CFD Toolbox           |
|  \\    /   O peration     | Version:  2312                                  |
|   \\  /    A nd           | Website:  www.openfoam.com                      |
|    \\/     M anipulation  |                                                 |
\*---------------------------------------------------------------------------*/
FoamFile
{
    version     2.0;
    format      ascii;
    arch        "LSB;label=32;scalar=64";
    class       volScalarField;
    location    "0.44/water";
    object      k.gas;
}
// * * * * * * * * * * * * * * * * * * * * * * * * * * * * * * * * * * * * * //

dimensions      [0 2 -2 0 0 0 0];

internalField   nonuniform List<scalar> 
750
(
2.62662924077
1.19808448213
0.57950853243
0.296967320458
0.160745823576
0.0925487110538
0.0581067739275
0.0410658528729
0.0331423340724
0.0295950637009
0.0279196746491
0.0276188199266
0.0279915755935
0.0284930130044
0.0287627491354
0.0285590100585
0.0277865885828
0.0264426575844
0.0245832125697
0.0222111894353
2.07346511987
0.982554756347
0.500666774865
0.27444092898
0.160996295768
0.100677385729
0.067449162004
0.0489801288629
0.0383576869875
0.0319270301858
0.0283308377878
0.026949702562
0.0269566480563
0.0276239732956
0.0283489174625
0.0287282826432
0.0285286950592
0.0276934815305
0.0262288848021
0.0240995827831
2.01179838817
0.959696789996
0.488885644613
0.266793225389
0.15591252914
0.0973347618528
0.0652054781935
0.0474795434277
0.0379615846186
0.0328542377002
0.0292438614546
0.0275773375025
0.0275856905968
0.0285118836191
0.0296445864016
0.0304127709324
0.0305213714489
0.0298692657546
0.0285220338841
0.026557644408
1.62835743604
0.751199967462
0.368738842529
0.193519240423
0.108868372408
0.0657713888272
0.0429345739819
0.0318709476763
0.0291849697424
0.0313604285176
0.0309223904554
0.0305723248309
0.0312469076969
0.0323457451253
0.0332503490531
0.0335800951726
0.0331849517504
0.0321044797245
0.0304367979368
0.0283424525793
2.01584188446
0.959195290389
0.489243123002
0.268094628193
0.15679181653
0.0978573904028
0.0660996581349
0.0489035841887
0.039680047932
0.0354354683775
0.0334124635463
0.0339040630291
0.0356997484319
0.0375704483029
0.0387295604187
0.0388265255312
0.0379223246572
0.0361863572935
0.0338570435331
0.031226636805
2.76867214324
1.30092495546
0.653032576745
0.350663919327
0.200554924521
0.121221632441
0.0778641952781
0.0545925529725
0.0427627706068
0.0390903701564
0.0399559082627
0.0423622756469
0.0447197609887
0.0462675514081
0.0466944185202
0.0459318702056
0.0439244211301
0.0407634756129
0.0364395032949
0.030804960957
6.44349170092
2.85367500828
1.32268817022
0.634184008273
0.305288358054
0.144799313379
0.0747135671684
0.0527324158914
0.0481397020955
0.0490788690006
0.0520928284703
0.0553411882144
0.057743805219
0.0586501086425
0.0577652032248
0.0548327244482
0.0499432652525
0.0432987965598
0.0353752959885
0.0258242042313
12.4080536236
5.29444983181
2.39897539139
1.11578396365
0.514874771323
0.236531937162
0.121631114934
0.0810277957791
0.0682959061506
0.0664408694027
0.0690723467051
0.0726099276797
0.0751216858448
0.0757224742606
0.0736658241792
0.0686523780839
0.0605728752376
0.0501036710815
0.0380072318996
0.0266812124829
16.0635709934
6.87710586904
3.06270729174
1.40054906948
0.651848442661
0.31520330512
0.174029389032
0.119256328194
0.0981823772025
0.0914588299163
0.0926058389015
0.0965743729454
0.10028267166
0.101905799739
0.100499447926
0.0950590102646
0.0853811823477
0.0720614733911
0.0593006033494
0.0374134807838
18.7387127842
7.9999910649
3.56728290697
1.6412101652
0.779890947385
0.390710442808
0.22586434092
0.161264495088
0.134602589494
0.12306499418
0.120807136516
0.124483053575
0.130133380173
0.135586933152
0.139516147833
0.142119155442
0.146135467235
0.157389181579
0.142311638357
0.0997947262589
17.6646175941
7.56373930421
3.4008037142
1.59159408532
0.781799845013
0.411213641025
0.249454334297
0.185634140139
0.159985741627
0.148227981869
0.143737983661
0.144940421312
0.149921750745
0.156344114726
0.162784840233
0.169146997916
0.179325534825
0.195422538219
0.151283386847
0.11521174558
14.1375606984
6.14924110693
2.7981200995
1.33290937659
0.672221667954
0.3678154992
0.231912103299
0.179192857728
0.160204717481
0.152752381193
0.149825220718
0.15018003923
0.153306764135
0.158133536921
0.163282178498
0.168289862639
0.173948228975
0.17587706275
0.148057583293
0.112943570233
11.7697576617
5.16666478389
2.36768567275
1.13841430677
0.577905865927
0.318062015167
0.201131507434
0.1566291273
0.142734176492
0.139047667226
0.138530456681
0.139339968648
0.141222774913
0.143713018539
0.146031895951
0.147409315909
0.147226279686
0.142458082415
0.127078999568
10.1963225725
4.46545176671
2.04058936872
0.97385625144
0.490013097393
0.267518613524
0.168367662553
0.129817324383
0.118024900967
0.115624978218
0.115950452004
0.116886117469
0.117836510349
0.118465404612
0.118203069655
0.116373416268
0.112120314922
0.103927426506
0.0896759278207
10.1628678375
4.36979619448
1.9944499559
0.955865180728
0.480238114485
0.256782017648
0.154803285472
0.112594648436
0.0979056786301
0.0937090857489
0.0929420998609
0.0930491717996
0.0930701597907
0.0924234268663
0.0905763526139
0.0869761705231
0.0808794122921
0.0720775249249
0.0606190499482
9.79533973792
4.22802106313
1.90584975339
0.904302596066
0.453392210489
0.242266907018
0.14451714722
0.102291286854
0.0853509662985
0.0790503481911
0.0766777136662
0.0756144685603
0.0747396838991
0.0733623015745
0.0710007043463
0.0676150162698
0.0628909313609
0.0528340000226
0.0415515794731
8.97342476571
3.86619464696
1.74668830254
0.829286751955
0.41553708362
0.222705613845
0.1333795724
0.0941431645216
0.0774570258608
0.0701076163215
0.0664676361579
0.0643344636267
0.0627519247161
0.061230244517
0.0597912335294
0.0575561783942
0.0505284873899
0.0379811903722
0.0272973557067
6.66670172711
2.9451170922
1.36118959694
0.662471590011
0.342228717892
0.190764267117
0.118750054228
0.0853988719491
0.0703137929179
0.0632412990356
0.0594974863127
0.0570838440265
0.0552164131629
0.0540590074825
0.0535291912605
0.0504583160388
0.0423733978915
0.0319920135953
0.022642783829
4.82626627347
2.19416425527
1.05513257874
0.539688352125
0.295000919282
0.173746614966
0.112095093277
0.0806474226056
0.0647361985988
0.0566768942357
0.0524693059587
0.0499091651892
0.047914936453
0.0465011561081
0.0454058723336
0.042808917419
0.0376487730465
0.0302406204425
0.0228294706369
3.94453029218
1.8290953861
0.900728625059
0.472828618654
0.265151924486
0.159500674086
0.103946920438
0.0742659717811
0.0583125315224
0.0497050653609
0.0450105842344
0.0421440018022
0.0399213014228
0.0381146923213
0.0366824675805
0.0355383960668
0.0321065015292
0.0267963826872
0.0211307253512
4.08665414399
1.87606049133
0.908662532287
0.465688485595
0.253307745736
0.147429622636
0.0932805085223
0.0652513124852
0.0505962396756
0.0427610503999
0.0383913649756
0.0356125649223
0.0334119203442
0.031590894634
0.0301451899264
0.0286884683993
0.0258330261028
0.0216633966018
0.0173779564619
5.26611831886
2.32338574396
1.07212186412
0.521026972826
0.266617705468
0.144923657404
0.086009120398
0.0574545284486
0.0433196381823
0.0358749851206
0.0316496969405
0.0289799806547
0.0270101650467
0.0255282145314
0.0242270886576
0.0224287827448
0.019422196713
0.0156353700117
0.0122754063787
6.82417053652
2.9019288264
1.33283847695
0.646285496054
0.32768814551
0.174001806209
0.0985761755192
0.0612298588315
0.0422253001654
0.0319441062859
0.0260622047137
0.022647172385
0.0205747669626
0.0192980886893
0.0180238519703
0.0160314825599
0.0133514795477
0.0103478850966
0.00803377350688
0.00647563369607
7.35529368509
3.17804095844
1.42793673832
0.666165247994
0.324817249182
0.166690264291
0.0918917821077
0.055857836778
0.0380104242031
0.0285211376726
0.0229273905316
0.0195860161903
0.0178472345338
0.017085662325
0.0161763274471
0.0141450290179
0.010907209064
0.00841144882283
0.00673944401032
0.005603955095
8.30883374826
3.59157237175
1.60892383732
0.745160743306
0.357811182344
0.179363806925
0.0957841680265
0.0565123815282
0.0381746301012
0.0292352949616
0.0242789214944
0.0215989460934
0.0208118873917
0.0211438716128
0.021320994978
0.0174308523562
0.0134179775776
0.010808842747
0.00892309068986
0.00751247591672
8.56173462084
3.68597075348
1.66848249481
0.786580479533
0.385648022691
0.196939112293
0.106272524134
0.0627943564302
0.0425112319443
0.0330114109857
0.0281044502637
0.0255920509121
0.0251063478148
0.0260153464761
0.0263276562471
0.0204813768303
0.0164974031086
0.0187123683539
0.0163080488752
0.0139929061047
7.44422457667
3.22499251892
1.47518637937
0.707520310792
0.35460341282
0.186354193936
0.104499636977
0.0648827464981
0.0462960286184
0.0376298478582
0.0332198353267
0.0307815551388
0.0296253971706
0.028928805973
0.0264315310226
0.0206710211284
0.0283915194166
0.0737040716936
0.0656182339213
0.0521481604348
6.03680997624
2.67929170368
1.23855146916
0.598730794609
0.303742857961
0.1634163333
0.0958513917845
0.06386949114
0.0493548248112
0.0428401025846
0.0395336315661
0.0373252643425
0.035289386074
0.0325535718457
0.0281932548502
0.0220225610295
0.0247316018981
0.058744636531
0.0864072701755
0.0766432219956
6.23808676606
2.78366111834
1.29289087638
0.62535118429
0.315941518098
0.169163161393
0.099605337845
0.0680671506573
0.0549921986809
0.0499845223212
0.047819474924
0.0461023141683
0.0437012355026
0.0400595256419
0.0348436127192
0.0269633719642
0.0246693699062
0.0505889348861
0.0806261423627
0.0699958661532
7.83919526116
3.43869978241
1.56660684735
0.743426398426
0.368624089672
0.194096042367
0.113172910933
0.0777878417941
0.0641441571865
0.0597279734264
0.0584132169233
0.0573713649964
0.0554117168738
0.0522804819914
0.0482006462781
0.0391586065596
0.0298663543891
0.0349905478902
0.0407138161122
0.0330858347784
9.31483530312
4.04669340298
1.81814959708
0.854013797019
0.421363577708
0.221035360743
0.128532453374
0.0883324544146
0.0730008190876
0.0682903516219
0.0672977425539
0.0667788614352
0.0652270810805
0.0623489471716
0.0587175319941
0.0528559875062
0.0427975494698
0.0324075820314
0.0247830018452
0.0190207376759
8.73281667906
3.76949980402
1.70247365162
0.81026699274
0.406322063671
0.216998317135
0.127932693271
0.0878645551191
0.0715676946693
0.0659237782436
0.0643720965348
0.0637489454864
0.0625422801524
0.0602132095089
0.0568892414153
0.0530169898305
0.0488553694942
0.040777485863
0.0325034207119
0.026974924058
5.38924487237
2.37928042694
1.09707576652
0.532179131869
0.274058938412
0.152037102016
0.0932949517435
0.0654879636577
0.0531490690797
0.0482476036666
0.0464688989684
0.0455230377421
0.0445608940518
0.0432642932811
0.0415826077476
0.0393419871699
0.0365392586232
0.0331932013518
0.0294923289565
0.0263106666131
3.95465518354
1.72684783543
0.7866962961
0.376031869986
0.189717964335
0.102376562559
0.0607022354071
0.0409323452927
0.0318229932955
0.0276991373604
0.0256004421638
0.0240779615138
0.0227496736844
0.0229729495293
0.0241827367342
0.0252518734886
0.0251128082902
0.0237779761396
0.0219335327692
0.0201945033814
3.50495689249
1.4847596376
0.65924615556
0.303936616652
0.145654544254
0.0733243168897
0.0398358436594
0.0243350647572
0.0172488545568
0.0140355437715
0.0125062230032
0.0116345649184
0.0110230239154
0.0124171949619
0.0153415940121
0.018342243785
0.0196027653636
0.0187960510269
0.0172106965452
0.0158559463776
2.79160623845
1.19140934193
0.530585627477
0.247154579325
0.12006623491
0.0608413599797
0.0323995026038
0.0185522994625
0.012139270155
0.0096641881161
0.00911034119416
0.00933191341933
0.010006915938
0.011874387267
0.0145093176268
0.0165100561086
0.0168515719044
0.0156321959901
0.014197969357
0.0129640394076
1.91740075678
0.88203635533
0.429374977679
0.222666474479
0.123281296552
0.0727416277734
0.0456430195218
0.0304260111794
0.0215017820441
0.0162040787249
0.0130461507332
0.0112149523069
0.0104551113181
0.0109819097939
0.0124764200263
0.0138055015974
0.0142355494872
0.0137862357887
0.0130209137818
0.0119368266589
2.20786606135
1.07047042373
0.551813777963
0.301805847967
0.174941495472
0.10733994729
0.0698237196077
0.0482856231848
0.0353676100178
0.0272120630274
0.0216650667547
0.0176138613863
0.0146639800569
0.0128136684395
0.0120746101807
0.0122202347953
0.0128398851666
0.0134538989241
0.0137538245792
0.0135311740229
)
;

boundaryField
{
    emptyPatch
    {
        type            empty;
    }
    minY
    {
        type            fixedValue;
        value           nonuniform List<scalar> 0();
    }
    maxY
    {
        type            inletOutlet;
        inletValue      uniform 1e-05;
        value           nonuniform List<scalar> 
20
(
2.20786606135
1.07047042373
0.551813777963
0.301805847967
0.174941495472
0.10733994729
0.0698237196077
0.0482856231848
0.0353676100178
0.0272120630274
0.0216650667547
0.0176138613863
0.0146639800569
0.0128136684395
0.0120746101807
0.0122202347953
0.0128398851666
0.0134538989241
0.0137538245792
0.0135311740229
)
;
    }
    maxX
    {
        type            kqRWallFunction;
        value           nonuniform List<scalar> 0();
    }
    water_to_heater
    {
        type            kqRWallFunction;
        value           nonuniform List<scalar> 
61
(
2.62662924077
2.62662924077
2.07346511987
2.07346511987
2.01179838817
1.62835743604
2.01584188446
2.01584188446
2.76867214324
2.76867214324
6.44349170092
6.44349170092
12.4080536236
16.0635709934
18.7387127842
18.7387127842
17.6646175941
17.6646175941
14.1375606984
14.1375606984
11.7697576617
10.1963225725
10.1628678375
10.1628678375
9.79533973792
9.79533973792
8.97342476571
8.97342476571
6.66670172711
4.82626627347
3.94453029218
3.94453029218
4.08665414399
4.08665414399
5.26611831886
5.26611831886
6.82417053652
7.35529368509
8.30883374826
8.30883374826
8.56173462084
8.56173462084
7.44422457667
7.44422457667
6.03680997624
6.23808676606
7.83919526116
7.83919526116
9.31483530312
9.31483530312
8.73281667906
8.73281667906
5.38924487237
3.95465518354
3.50495689249
3.50495689249
2.79160623845
2.79160623845
1.91740075678
1.91740075678
2.20786606135
)
;
    }
    procBoundary3to0
    {
        type            processor;
        value           nonuniform List<scalar> 
20
(
4.15273712942
1.83852228243
0.851072174484
0.412224382417
0.210028682531
0.114579390777
0.0694406674108
0.0487010726256
0.0397819608981
0.0363045156208
0.0347724508058
0.0337620528445
0.0333711658927
0.0330652409488
0.0325138026601
0.0315277316298
0.0300146219676
0.0280134844471
0.0256475727434
0.0233843923138
)
;
    }
    procBoundary3to1
    {
        type            processor;
        value           uniform 0.00609483616714;
    }
    procBoundary3to2
    {
        type            processor;
        value           nonuniform List<scalar> 
39
(
0.0100922477595
0.0158039042673
0.0184693625016
0.0202340019326
0.0193100544927
0.0131738514849
0.00831994424605
0.0084196095507
0.0178229225267
0.0670206191024
0.0987354699654
0.0584570775337
0.0987354699654
0.0717679016778
0.0494381271711
0.0333992810046
0.0208223002595
0.0163444389101
0.0173628524942
0.0165519263594
0.01388085053
0.00978212851354
0.00978212851354
0.00201771068164
0.00182040515149
0.00223724302059
0.00399866635837
0.0146499837286
0.0253651945672
0.025102144234
0.0114862029417
0.00663935481561
0.011316193149
0.0140074090508
0.0122876271674
0.0101321362597
0.00778646695481
0.00613481893521
0.00679128701811
)
;
    }
}


// ************************************************************************* //
