/*--------------------------------*- C++ -*----------------------------------*\
| =========                 |                                                 |
| \\      /  F ield         | OpenFOAM: The Open Source CFD Toolbox           |
|  \\    /   O peration     | Version:  2312                                  |
|   \\  /    A nd           | Website:  www.openfoam.com                      |
|    \\/     M anipulation  |                                                 |
\*---------------------------------------------------------------------------*/
FoamFile
{
    version     2.0;
    format      ascii;
    arch        "LSB;label=32;scalar=64";
    class       volScalarField;
    location    "0.15/water";
    object      T.gas;
}
// * * * * * * * * * * * * * * * * * * * * * * * * * * * * * * * * * * * * * //

dimensions      [0 0 0 1 0 0 0];

internalField   nonuniform List<scalar> 
750
(
354.068490434
353.165086551
355.257559264
356.47028718
351.604877444
344.20991904
342.23220042
345.944390948
352.78117202
351.744139129
332.194063684
313.202401199
305.350682337
302.099546854
301.101728523
300.170168131
300.047628986
300.011632862
300.008002523
300.005274098
300.003172932
300.001804857
300.001028862
300.000607281
300.000376053
300.000243991
300.000164434
300.000114035
300.00007811
300.000040758
332.005763496
313.657349014
306.131842627
302.177330924
301.256112688
300.159811045
300.045718276
300.011877876
300.00797409
300.005055044
300.003011002
300.001710492
300.000972785
300.000571356
300.000352346
300.000229531
300.000157875
300.000113577
300.000080892
300.000043878
331.421295529
313.231795055
306.05930804
301.909039505
301.251042434
300.161596753
300.048105195
300.01403452
300.0090336
300.00563923
300.003230114
300.001800909
300.001015372
300.000595417
300.000369347
300.00024436
300.000172526
300.000128055
300.000093224
300.000051934
330.440822775
312.348159542
305.599223886
301.733821693
301.143102238
300.161887398
300.051355213
300.016137911
300.010843242
300.006679658
300.003709413
300.002034297
300.001143716
300.000675942
300.000426263
300.000288654
300.000209197
300.000158045
300.000112598
300.00005388
328.911291169
310.903338539
304.78734076
301.599844659
300.984896814
300.154758397
300.053242845
300.01817237
300.012840743
300.007899584
300.004367392
300.002392505
300.001354127
300.000812078
300.00052304
300.000363024
300.000269256
300.000206076
300.000145299
300.00005799
326.219220085
309.234757256
303.85119745
301.576273488
300.799025738
300.143881003
300.054586244
300.020293381
300.01476814
300.009177258
300.005137827
300.002845083
300.001632384
300.000996501
300.000655619
300.000465477
300.000352564
300.000274454
300.000197221
300.000086913
322.752672628
307.204627468
302.769707473
301.443984683
300.578327196
300.12969576
300.05501335
300.022191011
300.01634524
300.010373165
300.005939771
300.00335174
300.001958052
300.001218398
300.000818283
300.000593247
300.000458154
300.000362622
300.00026536
300.000125085
322.257381319
306.573721612
301.817265596
301.467935115
300.330428106
300.111243099
300.050628899
300.023523748
300.017100236
300.011182305
300.006635445
300.003863302
300.002316696
300.001476039
300.001013604
300.000749995
300.000589463
300.000473104
300.000350625
300.000172141
322.022454926
306.166833747
301.415144234
301.131085716
300.264793107
300.103917976
300.046842341
300.024270018
300.017489803
300.011932633
300.00740329
300.00446645
300.002789916
300.001835457
300.001287004
300.000963615
300.000762835
300.000615598
300.000458934
300.000230535
321.971585275
305.90651865
301.323754584
300.963552888
300.24926835
300.104554055
300.048717933
300.025104563
300.017963418
300.012534535
300.008258195
300.005227518
300.003411998
300.002326077
300.001661088
300.001250095
300.000987281
300.000794276
300.000591816
300.000300774
321.572444468
305.921790626
301.320063468
300.979309366
300.270551927
300.116573999
300.058262487
300.02832635
300.019048553
300.013577659
300.009414301
300.006286672
300.004304067
300.003013132
300.002176554
300.001631833
300.001277172
300.001018981
300.000757018
300.000387834
319.986904479
306.307277474
301.448348546
301.173649339
300.331398858
300.142702882
300.073170841
300.039149838
300.021449255
300.015028584
300.010813227
300.007637922
300.005327765
300.003825068
300.002798055
300.002099022
300.001630672
300.001294259
300.000960835
300.00049718
318.562972375
307.623260898
303.103825167
302.628908772
300.478069697
300.185678395
300.093605185
300.052803966
300.030552588
300.017495168
300.012428022
300.009191615
300.006713951
300.004868067
300.003612207
300.002728829
300.002109214
300.001662588
300.001235051
300.000648796
318.017001343
308.590509939
303.994408524
302.788072591
300.64549644
300.240974495
300.120384895
300.067936382
300.041687242
300.025488181
300.014888316
300.010864967
300.008343552
300.006296827
300.00472392
300.00361732
300.002808938
300.002191979
300.001623494
300.00086718
318.389926613
308.850693474
304.218515469
301.62899905
300.859028968
300.304785622
300.153093549
300.086211898
300.053522019
300.034367963
300.021714612
300.013178474
300.010233315
300.00808653
300.006287169
300.00491435
300.003885365
300.003030763
300.002218008
300.001192748
318.220159553
308.83286836
304.227095086
301.31242687
301.010021677
300.369536917
300.192948119
300.10867231
300.06761862
300.044112087
300.029452707
300.018526955
300.012632455
300.010266022
300.008260594
300.006605402
300.005365137
300.004260571
300.00310623
300.001640432
316.459832013
308.801710524
304.48717059
301.751219528
301.485436571
300.471492437
300.245367879
300.137454601
300.085445544
300.056252102
300.03824699
300.026016422
300.016464346
300.012669807
300.010477866
300.008610197
300.007034302
300.005698114
300.004177415
300.00213814
314.461109421
308.733059267
305.100910735
302.800581088
301.551525513
300.658226125
300.29645421
300.165352103
300.102615842
300.068242588
300.046819701
300.032580575
300.021573392
300.015414194
300.012632977
300.010494165
300.008690883
300.007140648
300.005309324
300.002723229
314.253443615
308.195164649
305.042960049
302.849418366
301.199088076
300.800488714
300.332013365
300.185801191
300.115308528
300.077354659
300.053511762
300.037435911
300.025034279
300.018129969
300.014693018
300.01214338
300.010067253
300.008248885
300.006162804
300.003217965
316.690600256
307.931901427
304.858870382
302.807283954
301.067075928
300.835535522
300.34761894
300.196640018
300.122495309
300.082933532
300.057772994
300.040150782
300.027101155
300.020556232
300.016541008
300.013603393
300.011239762
300.009176164
300.006829684
300.003568316
319.003504761
308.23300673
304.750701252
302.720776762
301.010733184
300.827281925
300.348930146
300.199169348
300.125445703
300.085850103
300.059991821
300.040760331
300.029021801
300.022896675
300.018457036
300.015116587
300.012406623
300.010018716
300.007359223
300.003833293
316.416139067
308.261258268
304.663694243
302.631263412
300.992090318
300.810495142
300.341538971
300.197069927
300.126489574
300.087644354
300.060412653
300.041300016
300.032013926
300.025622856
300.020780414
300.016993747
300.01385668
300.011038575
300.007980994
300.004128
312.869934186
307.819473155
304.496433605
302.526308766
300.979113394
300.797955738
300.333693343
300.195307226
300.127848265
300.088870952
300.059481357
300.044499834
300.035426284
300.028586519
300.023334081
300.019134195
300.015554642
300.012274045
300.008748287
300.004424664
313.695539681
307.542003412
304.336596763
302.441631437
300.967623012
300.79747533
300.33499976
300.198580282
300.13138928
300.090857547
300.061108028
300.047768505
300.038235139
300.030966319
300.025365056
300.020850718
300.016947733
300.013284707
300.009328636
300.00453937
317.857165063
307.784115665
304.28530489
302.394355648
300.966115037
300.829395596
300.354447619
300.211543549
300.139960514
300.097088687
300.06499173
300.050181949
300.04000501
300.032165055
300.026140218
300.021353677
300.017267923
300.013458498
300.00936701
300.004580704
322.416241309
309.094622265
304.660319352
302.60278544
301.22695367
300.941389862
300.44430985
300.24838828
300.16109287
300.11175379
300.075743514
300.053887943
300.041638875
300.032902723
300.026274218
300.021043726
300.016609335
300.012661418
300.009276052
300.005778876
321.742082326
310.730526361
305.53681832
303.107711831
301.711669415
300.913161273
300.626721932
300.300380093
300.189761589
300.130114083
300.090336873
300.061088876
300.042910152
300.032473708
300.025111896
300.019644317
300.015043826
300.011167384
300.008093471
300.004538756
319.402334608
311.509813281
306.055444054
303.288929664
301.756959735
300.876324627
300.702711238
300.347318426
300.217186412
300.145764836
300.09960839
300.068215935
300.045598808
300.030090523
300.021708768
300.016363301
300.012285678
300.008896787
300.006156405
300.003510807
322.23722633
312.502006842
306.42478252
303.307637208
301.680598692
300.856746778
300.698555986
300.373657471
300.238620944
300.157586008
300.103735671
300.067821984
300.044480461
300.028664033
300.016601048
300.01200961
300.009064197
300.006682527
300.004713661
300.002567626
330.322550332
313.955402652
306.436536703
303.087590387
301.465666725
300.809520463
300.673866084
300.375864897
300.248618088
300.164307329
300.10431139
300.062849674
300.037957171
300.02334198
300.011577321
300.008203806
300.006501191
300.005057559
300.003751658
300.002018732
335.596678473
314.943602357
306.288942394
302.785665192
301.245611093
300.76186418
300.614127718
300.363047922
300.248181268
300.166059279
300.102709828
300.055845514
300.030571483
300.017492541
300.007945718
300.006069482
300.005052614
300.004198778
300.003316296
300.001831396
333.196194689
315.785099075
306.363513597
302.683406125
301.052318308
300.738879682
300.502882505
300.343486899
300.243141646
300.163786313
300.098547337
300.048499772
300.024209063
300.013091501
300.005742358
300.005017954
300.004436266
300.003935351
300.003269372
300.00185492
329.85904679
315.79515576
306.340241995
302.584275285
300.958049642
300.717214622
300.449552378
300.326298348
300.236533837
300.160677735
300.09290135
300.042416422
300.01970201
300.008957746
300.005295292
300.004746542
300.004417137
300.004068254
300.003460498
300.001994223
335.130146784
316.273785136
306.331508328
302.3960473
300.971572617
300.689444587
300.424869178
300.312472745
300.227639096
300.158139325
300.08765396
300.03862178
300.014427363
300.006393922
300.005338406
300.004951659
300.004694855
300.00441513
300.003779498
300.00219776
342.011191325
316.95947421
306.290407986
302.100139902
300.996857977
300.654166697
300.402030859
300.297536655
300.215459889
300.150397618
300.079020213
300.028087689
300.008657695
300.006345657
300.0056582
300.005319018
300.005138482
300.004881155
300.00418811
300.002444836
347.078470272
318.42400666
306.712567935
301.741934787
300.976880226
300.569309711
300.376667769
300.2788054
300.202440719
300.134468509
300.056006168
300.013747827
300.008174056
300.006783548
300.006119996
300.005850129
300.005713272
300.005467874
300.004717768
300.002768477
344.322397065
319.398029956
306.758615311
301.616262402
301.037375873
300.495741573
300.34973022
300.255887051
300.184065928
300.097493773
300.030878702
300.014330985
300.009639695
300.007622895
300.006843318
300.00657082
300.006448909
300.006223241
300.005472119
300.003334674
)
;

boundaryField
{
    emptyPatch
    {
        type            empty;
    }
    minY
    {
        type            fixedValue;
        value           nonuniform List<scalar> 0();
    }
    maxY
    {
        type            inletOutlet;
        inletValue      uniform 373;
        value           nonuniform List<scalar> 
20
(
344.322397065
319.398029956
306.758615311
301.616262402
301.037375872
300.495741572
300.349730219
300.255887051
300.184065928
300.097493772
300.030878702
300.014330985
300.009639695
300.007622895
300.006843318
300.00657082
300.006448909
300.006223241
300.005472119
300.003334674
)
;
    }
    maxX
    {
        type            fixedValue;
        value           uniform 300;
    }
    water_to_heater
    {
        type            copiedFixedValue;
        sourceFieldName T.liquid;
        value           nonuniform List<scalar> 0();
    }
    procBoundary2to1
    {
        type            processor;
        value           nonuniform List<scalar> 
20
(
331.638104214
311.888738826
304.188564725
301.776492234
301.014333134
300.206763501
300.058935844
300.015152326
300.009892325
300.006650534
300.003961034
300.002223187
300.001259655
300.000745974
300.000465525
300.000302636
300.000200637
300.000133465
300.000085983
300.000042426
)
;
    }
    procBoundary2to3
    {
        type            processor;
        value           nonuniform List<scalar> 
39
(
379.354657593
380.05503534
379.862584184
378.540282393
375.903544228
372.308767071
369.022013444
368.019155385
366.77371378
363.50176485
358.739720631
358.739720631
362.67292896
362.085546526
364.665848896
365.696909324
359.735469978
351.65977507
350.268677935
354.711011979
361.682123445
359.496236818
337.898435265
337.898435265
332.319410153
343.155748172
356.342047404
357.152769283
339.663868452
333.171546392
351.562162602
374.904200326
369.92906089
345.32745557
338.019788331
367.65163982
383.545471268
377.891933071
353.352610727
)
;
    }
}


// ************************************************************************* //
