/*--------------------------------*- C++ -*----------------------------------*\
| =========                 |                                                 |
| \\      /  F ield         | OpenFOAM: The Open Source CFD Toolbox           |
|  \\    /   O peration     | Version:  2312                                  |
|   \\  /    A nd           | Website:  www.openfoam.com                      |
|    \\/     M anipulation  |                                                 |
\*---------------------------------------------------------------------------*/
FoamFile
{
    version     2.0;
    format      ascii;
    arch        "LSB;label=32;scalar=64";
    class       volScalarField;
    location    "0.805/water";
    object      nut.gas;
}
// * * * * * * * * * * * * * * * * * * * * * * * * * * * * * * * * * * * * * //

dimensions      [0 2 -1 0 0 0 0];

internalField   nonuniform List<scalar> 
1497
(
3.08267316229e-06
2.53318752085e-06
2.0223965058e-06
1.59659703881e-06
1.26385920448e-06
9.84094888202e-07
7.03437991158e-07
4.24833847038e-07
2.12200352246e-07
9.66061910984e-08
4.82181202012e-08
3.16779844589e-08
2.95616307097e-08
4.59396801421e-06
4.73238833035e-06
4.40760136267e-06
4.12895251833e-06
3.96361375027e-06
3.73934893818e-06
3.37098394533e-06
2.89336263583e-06
2.38692848363e-06
1.9215701011e-06
1.53840567224e-06
1.23526003534e-06
9.64423322196e-07
6.80782533825e-07
4.06227466008e-07
2.04576693699e-07
9.52765621165e-08
4.83682207671e-08
3.19285736829e-08
2.97982104733e-08
4.45305586221e-06
4.59940827368e-06
4.16448607352e-06
3.81081165186e-06
3.6311522046e-06
3.41736520042e-06
3.07801824013e-06
2.64631652413e-06
2.19733338683e-06
1.79463873712e-06
1.46622767157e-06
1.19457754799e-06
9.27505158126e-07
6.40604662493e-07
3.77231557711e-07
1.92716108429e-07
9.25012316227e-08
4.81382694426e-08
3.21383885264e-08
3.00019625525e-08
4.56726153208e-06
4.57217767314e-06
3.96456880692e-06
3.49462580972e-06
3.26846152736e-06
3.058912663e-06
2.75668255441e-06
2.38507515244e-06
2.00984768442e-06
1.6801553062e-06
1.40508088798e-06
1.15181455876e-06
8.77464511398e-07
5.90822475521e-07
3.46820104903e-07
1.82293127968e-07
9.09915075972e-08
4.86964976067e-08
3.28015508758e-08
3.03790722617e-08
4.81314953268e-06
4.67055947323e-06
3.87311028112e-06
3.22321122378e-06
2.90556147088e-06
2.70078800458e-06
2.45710680628e-06
2.16631514729e-06
1.87493977027e-06
1.61227532852e-06
1.36839703462e-06
1.10813868605e-06
8.20827381933e-07
5.44055598295e-07
3.24792049625e-07
1.78463298342e-07
9.32852403753e-08
5.12404424606e-08
3.44783354455e-08
3.12152091034e-08
5.00405342939e-06
4.8029060336e-06
3.87831645245e-06
3.05099173874e-06
2.62234344951e-06
2.4128962263e-06
2.23797761015e-06
2.03888774712e-06
1.82455255269e-06
1.59871119737e-06
1.34576646429e-06
1.06140129631e-06
7.70858768988e-07
5.13903279721e-07
3.18469470986e-07
1.84771843239e-07
1.01498244419e-07
5.70081362854e-08
3.78316788249e-08
3.28972054125e-08
4.98870654787e-06
4.58909340106e-06
3.76181414191e-06
2.94315031397e-06
2.48747630049e-06
2.27727578689e-06
2.15433378149e-06
2.025935772e-06
1.85006845976e-06
1.6096115666e-06
1.3205928853e-06
1.02155387795e-06
7.43500921772e-07
5.09661521662e-07
3.31500383184e-07
2.04145439903e-07
1.18302542074e-07
6.77637516302e-08
4.37832396333e-08
3.59268867363e-08
4.89549715622e-06
4.31470594808e-06
3.60837401538e-06
2.93385643168e-06
2.52686461602e-06
2.32789566862e-06
2.2221102224e-06
2.10807759188e-06
1.91019232145e-06
1.6201718884e-06
1.30077183086e-06
1.0055950497e-06
7.48755756908e-07
5.34422589453e-07
3.67487683097e-07
2.40866003712e-07
1.46780060561e-07
8.51491352301e-08
5.30843136745e-08
4.06709379924e-08
4.87313249144e-06
4.28905808699e-06
3.6750036747e-06
3.11724475537e-06
2.74825111415e-06
2.54007605497e-06
2.40501338867e-06
2.24748970126e-06
1.98940022328e-06
1.64385087153e-06
1.30209278539e-06
1.01766581122e-06
7.82291018959e-07
5.87690939491e-07
4.30167759855e-07
2.987943535e-07
1.90212085061e-07
1.11370981747e-07
6.6925525724e-08
4.77306582906e-08
5.10955569854e-06
4.62247084674e-06
4.01815294708e-06
3.47320998768e-06
3.09237608586e-06
2.84131995384e-06
2.64767853317e-06
2.42669491114e-06
2.09535296837e-06
1.68674456435e-06
1.31928588552e-06
1.04735604451e-06
8.41716259481e-07
6.7254848257e-07
5.21855293746e-07
3.81188243642e-07
2.52187887263e-07
1.49241966118e-07
8.69762940372e-08
5.79425762208e-08
5.47030680671e-06
4.99703165601e-06
4.35336289262e-06
3.79821004272e-06
3.41307369259e-06
3.13237151999e-06
2.89117239193e-06
2.60776958679e-06
2.19318886871e-06
1.71990049199e-06
1.33960904497e-06
1.09556138738e-06
9.2777261612e-07
7.8276679196e-07
6.37266693089e-07
4.85383768764e-07
3.31931291215e-07
1.9934852193e-07
1.14087239751e-07
7.17287355012e-08
5.58792597641e-06
5.05494164085e-06
4.40172759015e-06
3.90843381545e-06
3.56889878773e-06
3.29157059219e-06
3.02067756239e-06
2.6744335043e-06
2.19749909363e-06
1.7137859048e-06
1.36641806861e-06
1.15879626843e-06
1.02319753346e-06
8.98575632465e-07
7.59332954885e-07
5.97495391285e-07
4.19413474059e-07
2.56335713961e-07
1.46193924783e-07
8.8138564846e-08
5.18618898028e-06
4.66714573795e-06
4.15829231884e-06
3.82343891385e-06
3.55558928435e-06
3.2636799157e-06
2.94015400891e-06
2.55775179691e-06
2.11018954921e-06
1.68789259903e-06
1.38675682656e-06
1.21053580078e-06
1.10273379008e-06
9.98516940557e-07
8.68017607735e-07
6.98954394281e-07
4.99676768242e-07
3.10719652809e-07
1.78592948354e-07
1.04819817517e-07
4.72277309312e-06
4.26507792541e-06
3.93315421464e-06
3.75178069002e-06
3.39461489388e-06
2.95841273897e-06
2.62202135678e-06
2.31580634887e-06
1.97047641182e-06
1.62781986709e-06
1.37139122377e-06
1.23455124915e-06
1.15824633982e-06
1.07572533162e-06
9.54564256548e-07
7.79268060126e-07
5.63088519024e-07
3.55645073463e-07
2.07058014026e-07
1.19843425825e-07
4.46209094849e-06
4.09052760896e-06
3.94771696745e-06
3.6779966738e-06
2.83773738486e-06
2.24189992923e-06
2.16124055652e-06
2.01216758805e-06
1.75779806843e-06
1.4974486009e-06
1.31952729799e-06
1.24272515493e-06
1.20235866396e-06
1.1391175559e-06
1.02238726709e-06
8.37850301281e-07
6.08105886592e-07
3.89280730044e-07
2.29666893749e-07
1.32504997384e-07
4.39198358725e-06
4.13159773176e-06
4.13931676087e-06
3.50959963521e-06
2.3850128977e-06
1.64880739224e-06
1.55025676338e-06
1.58972913337e-06
1.49294526895e-06
1.35290040217e-06
1.27161215206e-06
1.26065560984e-06
1.25198286011e-06
1.19956117482e-06
1.07713056799e-06
8.79204535452e-07
6.38811038704e-07
4.13170825933e-07
2.47069476046e-07
1.43046394994e-07
4.45989825093e-06
4.35374278797e-06
4.29179591238e-06
3.38838911965e-06
2.30103914084e-06
1.51201423405e-06
1.15324089475e-06
1.21725484953e-06
1.25314954098e-06
1.2357172252e-06
1.24778246282e-06
1.29245974398e-06
1.3074068188e-06
1.25687599897e-06
1.12240233008e-06
9.11435555104e-07
6.62578510503e-07
4.31140682359e-07
2.60625194465e-07
1.53903290046e-07
4.75178307784e-06
4.77810657643e-06
4.60693243466e-06
3.51312925786e-06
2.42033582804e-06
1.62150581569e-06
1.11757615147e-06
1.01725145523e-06
1.05089474494e-06
1.11303605699e-06
1.20220505106e-06
1.29881927364e-06
1.34501706261e-06
1.30357098731e-06
1.16400120207e-06
9.45166232218e-07
6.8659964233e-07
4.45357483339e-07
2.72972469015e-07
1.69661404695e-07
5.16695753085e-06
5.01328450139e-06
4.71309956704e-06
3.64560155165e-06
2.55838027135e-06
1.82944183335e-06
1.30517365656e-06
1.04193756998e-06
9.48807735479e-07
9.66470507155e-07
1.073028063e-06
1.22353480583e-06
1.33320546583e-06
1.33291012111e-06
1.20780427622e-06
9.88507188383e-07
7.10470816091e-07
4.55969171738e-07
2.91661404488e-07
1.93892560908e-07
5.37472582601e-06
5.03555896364e-06
4.72737454326e-06
3.87752910711e-06
2.84772787131e-06
2.13903969301e-06
1.66079264692e-06
1.29547461032e-06
1.05834488301e-06
9.2881557397e-07
9.33193043714e-07
1.07308834458e-06
1.25327056625e-06
1.33420915659e-06
1.25184311652e-06
1.03051793486e-06
7.2375749633e-07
4.72163944357e-07
3.24107995963e-07
2.27656110849e-07
5.62328635397e-06
5.2349278027e-06
4.76574894219e-06
4.14138460978e-06
3.22110151167e-06
2.50045191921e-06
2.02858898279e-06
1.65121758061e-06
1.3128089398e-06
1.05253407955e-06
9.09135969396e-07
9.43550605689e-07
1.12878551367e-06
1.29461861155e-06
1.26925634111e-06
1.04323969282e-06
7.38314741977e-07
5.07567090219e-07
3.69747760931e-07
2.69440431849e-07
5.72032412801e-06
5.41016237248e-06
4.87738522546e-06
4.33955934948e-06
3.56072317905e-06
2.84454238103e-06
2.34704713776e-06
1.94714338343e-06
1.58021382213e-06
1.2291038425e-06
9.74847803531e-07
8.92758947435e-07
1.01291783595e-06
1.20825945408e-06
1.23612444057e-06
1.03809529994e-06
7.67990964171e-07
5.59461769616e-07
4.21592764539e-07
3.14398043584e-07
5.607398512e-06
5.40584992396e-06
4.91272910817e-06
4.42964897375e-06
3.77682848049e-06
3.0891014489e-06
2.55649414288e-06
2.12170229609e-06
1.72337729878e-06
1.33847102362e-06
1.02582523212e-06
8.78078888126e-07
9.34107915544e-07
1.10970364296e-06
1.17460908422e-06
1.02947079359e-06
8.01925141743e-07
6.08491332874e-07
4.68269698351e-07
3.56181541298e-07
5.3558911761e-06
5.22556050477e-06
4.81326151027e-06
4.40313655019e-06
3.85659863488e-06
3.20244320602e-06
2.63027415116e-06
2.14741645077e-06
1.71154549486e-06
1.3040936719e-06
9.95406804359e-07
8.51388616799e-07
8.93923710948e-07
1.04978060283e-06
1.12262400883e-06
1.01353595786e-06
8.19755234755e-07
6.41893651019e-07
5.05121713219e-07
3.93293193073e-07
5.1163738503e-06
4.97209055506e-06
4.62671352682e-06
4.29985364453e-06
3.83167799335e-06
3.17695374849e-06
2.54053124019e-06
2.00456109497e-06
1.54228743515e-06
1.16016808457e-06
9.08832389486e-07
8.15924777079e-07
8.83300450174e-07
1.02994953289e-06
1.08697791708e-06
9.88628842206e-07
8.20001120575e-07
6.6181643404e-07
5.35704062704e-07
4.28850407569e-07
4.97060028554e-06
4.80305755027e-06
4.48149764303e-06
4.19606540261e-06
3.72955693043e-06
2.98783273721e-06
2.2906160162e-06
1.74894637948e-06
1.28367753521e-06
9.81403477526e-07
8.17912954855e-07
7.97291083429e-07
9.00683095343e-07
1.03366606899e-06
1.06024880794e-06
9.613669641e-07
8.14993979883e-07
6.79668503279e-07
5.68135058599e-07
4.67563300534e-07
4.96678353755e-06
4.75789864013e-06
4.44492214584e-06
4.15833004382e-06
3.58232138502e-06
2.73125415606e-06
2.04030563312e-06
1.46683713552e-06
1.04515557697e-06
8.39496361989e-07
7.71202603902e-07
8.21415466318e-07
9.48908667568e-07
1.05222769738e-06
1.04352552201e-06
9.44355310004e-07
8.20051332238e-07
7.07480357913e-07
6.09525532668e-07
5.11924194589e-07
5.04213877205e-06
4.7862446056e-06
4.49361463256e-06
4.19242289026e-06
3.54088513563e-06
2.55747503854e-06
1.83885502435e-06
1.24053199763e-06
9.01934174977e-07
7.86808385042e-07
7.99643375273e-07
8.98921934507e-07
1.02257082395e-06
1.08291322681e-06
1.04516555294e-06
9.5073101968e-07
8.47071649227e-07
7.52583078083e-07
6.61822936294e-07
5.60227713723e-07
5.21388394078e-06
4.86566313373e-06
4.56028197567e-06
4.26438637253e-06
3.53031568187e-06
2.51719405298e-06
1.72785440144e-06
1.13335841412e-06
8.63430743904e-07
8.18614538028e-07
8.86224907866e-07
1.002603288e-06
1.10071555036e-06
1.12364208862e-06
1.0721892203e-06
9.87508547161e-07
8.99597667706e-07
8.13522977825e-07
7.20284485415e-07
6.09353691033e-07
5.44376998866e-06
4.99160824031e-06
4.63662338994e-06
4.3441872451e-06
3.5438246617e-06
2.5848390091e-06
1.77107587293e-06
1.15270964035e-06
8.81771160694e-07
8.63176482351e-07
9.53834067748e-07
1.06970119807e-06
1.15144698634e-06
1.16475731016e-06
1.11998564465e-06
1.04832855861e-06
9.6788537913e-07
8.79930762629e-07
7.78232757214e-07
6.56015484025e-07
5.66839753554e-06
5.11977949946e-06
4.69297813932e-06
4.42663344491e-06
3.63059563257e-06
2.76310382356e-06
1.97060854685e-06
1.33387109217e-06
1.00157135985e-06
9.23584675654e-07
9.77419801332e-07
1.07412001233e-06
1.15587816388e-06
1.18817293583e-06
1.16837933911e-06
1.11231219907e-06
1.0340952234e-06
9.39676300826e-07
8.26961834646e-07
6.91505054193e-07
5.78055806847e-06
5.21289660797e-06
4.74239326553e-06
4.52680628189e-06
3.87676884223e-06
3.07074710654e-06
2.31467962418e-06
1.67610675185e-06
1.2684886331e-06
1.07617611295e-06
1.03005291765e-06
1.06622388885e-06
1.13283937432e-06
1.18544123267e-06
1.19514022254e-06
1.15548672879e-06
1.07803628589e-06
9.75912277726e-07
8.51851485021e-07
7.03109234448e-07
5.79722694263e-06
5.26233944306e-06
4.83616127778e-06
4.68511028308e-06
4.22993538322e-06
3.48253627948e-06
2.76983873876e-06
2.13435791446e-06
1.6509611737e-06
1.32925192282e-06
1.15361777783e-06
1.09459092294e-06
1.11275830531e-06
1.15932724738e-06
1.1831449955e-06
1.15520722011e-06
1.08125102011e-06
9.76752606459e-07
8.44744296321e-07
6.82091739921e-07
5.78795505833e-06
5.44888600844e-06
5.14238068127e-06
5.0089460267e-06
4.59760005139e-06
3.84613470195e-06
3.15691663831e-06
2.53800925922e-06
2.00871471437e-06
1.59089032933e-06
1.30375021395e-06
1.14745175384e-06
1.09826195247e-06
1.11164361956e-06
1.13012887663e-06
1.1119039924e-06
1.049381468e-06
9.4801130668e-07
8.0643180068e-07
6.25476191109e-07
6.32601310384e-06
6.15102185629e-06
5.75131626492e-06
5.37397315287e-06
4.7902829067e-06
3.96916653301e-06
3.2726897393e-06
2.67599943134e-06
2.15745424068e-06
1.71921799999e-06
1.38151758584e-06
1.17133913964e-06
1.07538822041e-06
1.05675837459e-06
1.06464517498e-06
1.05419037221e-06
1.00198446083e-06
8.98582642956e-07
7.40367608746e-07
5.4367139996e-07
6.50988623574e-06
6.70595292496e-06
6.08457198828e-06
5.44625238313e-06
4.75030907892e-06
3.88030344867e-06
3.16936874187e-06
2.58804909583e-06
2.0941576594e-06
1.6803419807e-06
1.35466654127e-06
1.14654221027e-06
1.04170202472e-06
1.01117145957e-06
1.01366197734e-06
1.00557542617e-06
9.53240442303e-07
8.3717800871e-07
6.60442027266e-07
4.61948283166e-07
6.70510212245e-06
6.98410890725e-06
6.12029403653e-06
5.36519950036e-06
4.63713974627e-06
3.76797266266e-06
3.00401959875e-06
2.40087621078e-06
1.92366295299e-06
1.55161819526e-06
1.27751807966e-06
1.09945732044e-06
1.00776853654e-06
9.80933636792e-07
9.84222105607e-07
9.74582857126e-07
9.12225335759e-07
7.76669832803e-07
5.87901396984e-07
3.98650440714e-07
6.93479216164e-06
7.1480284134e-06
6.13388108627e-06
5.28340479898e-06
4.54417750433e-06
3.67555092458e-06
2.86911219571e-06
2.24044787109e-06
1.7659680305e-06
1.43880675117e-06
1.20805950105e-06
1.06103912307e-06
9.88361104703e-07
9.71884966876e-07
9.78725597005e-07
9.63514870688e-07
8.84211361808e-07
7.28751023763e-07
5.3368461336e-07
3.55675409778e-07
3.84693924218e-08
6.32272176283e-08
1.09039051868e-07
1.68038613172e-07
2.19867700616e-07
2.47760375258e-07
2.56160294919e-07
2.60117626149e-07
2.79752604008e-07
3.35319160177e-07
3.46109492747e-07
2.75767471855e-07
2.29417525182e-07
2.12980041938e-07
2.08062921946e-07
2.07949231339e-07
2.1603831327e-07
2.49804864364e-07
3.60699181553e-07
6.18886335813e-07
3.89668713868e-08
6.42526774551e-08
1.0874019301e-07
1.62700034991e-07
2.08897047044e-07
2.33712259683e-07
2.428430983e-07
2.59206109685e-07
2.96722203101e-07
3.07122416064e-07
2.64905278387e-07
2.23629569951e-07
2.0501263071e-07
1.95133892191e-07
1.95802313531e-07
2.09157585783e-07
2.28299997149e-07
2.53393391028e-07
3.47861126466e-07
6.05324426889e-07
3.91115145918e-08
6.4062400157e-08
1.05832323282e-07
1.52996645841e-07
1.9251388133e-07
2.16277798751e-07
2.35278461672e-07
2.64767888411e-07
2.79320745226e-07
2.56603851906e-07
2.23521063352e-07
2.02558105076e-07
1.89445795674e-07
1.79538464964e-07
1.88399851946e-07
2.19450517737e-07
2.46217172193e-07
2.64235914112e-07
3.41246534457e-07
6.19877302828e-07
3.89119015002e-08
6.2398452664e-08
1.00261249236e-07
1.40357672213e-07
1.73252597284e-07
1.99082907683e-07
2.28075922108e-07
2.51604067167e-07
2.452253236e-07
2.22494249022e-07
2.0325768669e-07
1.89197649883e-07
1.76188189129e-07
1.68011297674e-07
1.9071972246e-07
2.38115389462e-07
2.64462355421e-07
2.78630110783e-07
3.32367266044e-07
7.60700474926e-07
3.85487753592e-08
5.9427210336e-08
9.2540204272e-08
1.26867782987e-07
1.54911634062e-07
1.79584997662e-07
2.08189368116e-07
2.23911907693e-07
2.16929016668e-07
2.02182030936e-07
1.89846259535e-07
1.78179705654e-07
1.65368519305e-07
1.6406959808e-07
2.0242234634e-07
2.60160502795e-07
2.88328848476e-07
2.96947529077e-07
3.22378957922e-07
7.39472867968e-07
3.83839076897e-08
5.57691407252e-08
8.35456842664e-08
1.13051919769e-07
1.37670281714e-07
1.58516254834e-07
1.79557953829e-07
1.92156140313e-07
1.96030704689e-07
1.87339954157e-07
1.78522051126e-07
1.68013782356e-07
1.56773062255e-07
1.65644397005e-07
2.18687676798e-07
2.84393720372e-07
3.15223436257e-07
3.1578490303e-07
3.16900653834e-07
7.18789980883e-07
3.8854156053e-08
5.22129128191e-08
7.43657039343e-08
9.90556792864e-08
1.20443382418e-07
1.37621688337e-07
1.50938887361e-07
1.60801966833e-07
1.78113654723e-07
1.74514762742e-07
1.67656123631e-07
1.57856810792e-07
1.49731326815e-07
1.71016812288e-07
2.39734338929e-07
3.11201195952e-07
3.42286449178e-07
3.33855337518e-07
3.17952780896e-07
7.0931461768e-07
4.02245655866e-08
4.92678639895e-08
6.59371257541e-08
8.58172698529e-08
1.04105236977e-07
1.18754729618e-07
1.27352024104e-07
1.33124165167e-07
1.59204297981e-07
1.62522127073e-07
1.56823226243e-07
1.47422455357e-07
1.4411439148e-07
1.81199218494e-07
2.65332281694e-07
3.39469169512e-07
3.68431055325e-07
3.51828122826e-07
3.23795819527e-07
7.08574926494e-07
4.28510014445e-08
4.73474800773e-08
5.88766788031e-08
7.41924777062e-08
8.95552637593e-08
1.02679581211e-07
1.09327322059e-07
1.11131135745e-07
1.3791977541e-07
1.51133863134e-07
1.4605431728e-07
1.36821354575e-07
1.40087526198e-07
1.96826540094e-07
2.93216183158e-07
3.66702100261e-07
3.9262901938e-07
3.69339935242e-07
3.32620856845e-07
7.14662589606e-07
4.71319604957e-08
4.67021223381e-08
5.34232167719e-08
6.44866228977e-08
7.70637918928e-08
8.9096977718e-08
9.55776327254e-08
9.39903857375e-08
1.1674184791e-07
1.40193818967e-07
1.35402541908e-07
1.26200257061e-07
1.3781854383e-07
2.16652860706e-07
3.20383564198e-07
3.90888546492e-07
4.14277035423e-07
3.86218173696e-07
3.60359407771e-07
7.24524789587e-07
5.3098439429e-08
4.72492235061e-08
4.94457175125e-08
5.66805025386e-08
6.67564025944e-08
7.76679079358e-08
8.43333177938e-08
8.06364381444e-08
9.97078953263e-08
1.2949981987e-07
1.24824753733e-07
1.15578261172e-07
1.37377662556e-07
2.38219235995e-07
3.43834985053e-07
4.1158163784e-07
4.34058679685e-07
4.02997601116e-07
4.33296580298e-07
7.36158672594e-07
6.01287936166e-08
4.85651561484e-08
4.662753371e-08
5.07267267837e-08
5.86684994273e-08
6.82590980457e-08
7.47101422237e-08
7.05438143087e-08
8.86146918072e-08
1.18930041365e-07
1.14075712977e-07
1.05015847414e-07
1.3925719539e-07
2.59092612081e-07
3.61927927328e-07
4.28906064687e-07
4.52196824305e-07
4.19864715546e-07
4.85453815719e-07
7.47885772273e-07
6.72831463758e-08
5.01538668081e-08
4.48507899532e-08
4.65229860753e-08
5.26081207972e-08
6.07932986601e-08
6.65449227341e-08
6.34371963288e-08
8.21925499241e-08
1.08307793103e-07
1.02685992883e-07
9.46140297539e-08
1.44372814854e-07
2.74863765801e-07
3.74205925045e-07
4.44378416037e-07
4.68630618116e-07
4.36290750969e-07
5.16028099423e-07
7.60172983724e-07
7.37610528685e-08
5.20985851121e-08
4.41808451705e-08
4.38339183568e-08
4.82861356428e-08
5.50964865732e-08
5.96748096032e-08
5.9144416479e-08
7.75998135944e-08
9.72534301253e-08
9.05856992832e-08
8.51692835555e-08
1.52187977158e-07
2.8399514264e-07
3.82658333408e-07
6.10945687693e-07
5.5100056272e-07
4.5178678443e-07
5.29579144121e-07
7.73262492736e-07
7.96746507272e-08
5.48241086995e-08
4.45293044294e-08
4.23912310242e-08
4.53778605925e-08
5.08159334195e-08
5.43416393911e-08
5.68948173459e-08
7.27366383472e-08
8.53422347697e-08
7.83576542796e-08
7.97890147113e-08
1.60345518118e-07
2.88334084966e-07
4.68097058157e-07
6.95368020334e-07
6.56536465537e-07
4.6648590942e-07
4.76054167968e-07
7.86151105954e-07
8.63842977098e-08
5.86835811128e-08
4.58912495477e-08
4.2039708402e-08
4.35748063289e-08
4.75959516172e-08
5.06354990366e-08
5.53001122345e-08
6.70602806089e-08
7.28799321325e-08
6.73087011467e-08
7.92314104335e-08
1.67129094201e-07
3.21124563751e-07
5.77097910058e-07
1.12412645472e-06
7.03012394515e-07
4.8016928523e-07
4.24352099116e-07
7.97763597771e-07
9.55769121064e-08
6.41800814998e-08
4.85479470608e-08
4.28163484449e-08
4.27620076665e-08
4.52841931064e-08
4.81802472758e-08
5.35785275661e-08
6.1065450852e-08
6.18554158273e-08
6.03423748808e-08
8.15942441748e-08
1.72589657793e-07
4.20177363379e-07
1.13345511245e-06
1.78536682235e-06
7.46641001109e-07
4.90949877123e-07
4.36673728976e-07
8.04303300738e-07
1.0870218514e-07
7.23092589691e-08
5.31319312032e-08
4.50425086246e-08
4.30626995855e-08
4.38888616626e-08
4.62853800195e-08
5.1367045936e-08
5.59028529996e-08
5.46855802571e-08
5.72275273392e-08
8.5912726617e-08
2.43088024681e-07
9.07306471376e-07
1.80021175984e-06
2.05069902488e-06
9.72659658676e-07
4.98537376306e-07
4.47421306952e-07
8.02353395655e-07
1.27462859739e-07
8.44998423234e-08
6.05916900065e-08
4.92778035742e-08
4.48162194458e-08
4.36236831224e-08
4.4774578599e-08
4.8827312395e-08
5.21587552971e-08
5.16812724514e-08
5.79295994878e-08
1.28372840607e-07
5.70336803471e-07
1.25277751882e-06
1.75281221863e-06
2.03849290379e-06
1.28581103874e-06
5.04382901566e-07
4.58066976963e-07
7.98792901866e-07
1.53403664906e-07
1.02231327468e-07
7.19778026426e-08
5.61721246186e-08
4.84044637018e-08
4.47585101003e-08
4.40787854801e-08
4.67188700167e-08
5.00415951386e-08
5.12917368103e-08
7.91806671646e-08
2.95187704589e-07
7.12085446858e-07
1.12231487718e-06
1.63448362782e-06
2.02154880646e-06
1.51874865679e-06
5.11929007727e-07
4.72289810074e-07
8.12237890037e-07
1.8651403794e-07
1.26095375373e-07
8.79158622004e-08
6.61491308732e-08
5.41337757247e-08
4.74512507767e-08
4.46264605546e-08
4.5828910202e-08
4.93108107408e-08
5.31398245466e-08
1.11174133327e-07
4.37179065196e-07
6.41038129108e-07
1.01913171683e-06
1.55325771426e-06
2.04078865715e-06
1.64178844113e-06
5.22711549302e-07
4.89410890362e-07
8.39807617686e-07
2.23487747677e-07
1.54214543458e-07
1.07560950499e-07
7.88924052535e-08
6.18473105274e-08
5.16110920267e-08
4.64316228073e-08
4.63104431958e-08
4.9379189898e-08
5.65349065522e-08
2.26978565136e-07
4.19223401925e-07
5.74766990155e-07
9.51893033289e-07
1.5345633204e-06
2.05522022233e-06
1.3960999455e-06
5.37065453896e-07
5.11300380651e-07
7.76134338792e-07
2.60190990766e-07
1.841173798e-07
1.2953813172e-07
9.37041553285e-08
7.10754433152e-08
5.68982188732e-08
4.91718020181e-08
4.77335937632e-08
4.9978474184e-08
7.71792376027e-08
3.15531519094e-07
3.94014303862e-07
5.03775751142e-07
9.09947418186e-07
1.53291082194e-06
2.11175517568e-06
7.73395694956e-07
5.56105842465e-07
5.43720414537e-07
8.02487712151e-07
2.95648034742e-07
2.14560559727e-07
1.52684467243e-07
1.09705973399e-07
8.11927018399e-08
6.28078208452e-08
5.24346820483e-08
4.95734883126e-08
5.09135003107e-08
8.65183009592e-08
3.19691903176e-07
3.57439076771e-07
4.30489084147e-07
8.53096444801e-07
1.55427907697e-06
2.19753171231e-06
5.37923436302e-07
5.76610163417e-07
5.78148041501e-07
8.38279258168e-07
3.31297264913e-07
2.45305229089e-07
1.7624575379e-07
1.26093323939e-07
9.15226401565e-08
6.87703419778e-08
5.5789130802e-08
5.14433225788e-08
5.19232079109e-08
1.19723143788e-07
3.07893863165e-07
3.11742303122e-07
3.49069634068e-07
8.09277305272e-07
1.59174329478e-06
2.32789788079e-06
5.62512090631e-07
5.9206226352e-07
6.01281075531e-07
8.71691212126e-07
3.68648837178e-07
2.7627947308e-07
1.99718487125e-07
1.42195749207e-07
1.01398379069e-07
7.42688294492e-08
5.87839461997e-08
5.2967615574e-08
5.53904343381e-08
1.72068256176e-07
2.8994490965e-07
2.54734799556e-07
2.74340329425e-07
7.63598585941e-07
1.66583552475e-06
1.27091998136e-06
5.89421667378e-07
6.02470370435e-07
6.14371679697e-07
9.1214169021e-07
4.07530056132e-07
3.07230059303e-07
2.22686649203e-07
1.57372018123e-07
1.1017389296e-07
7.879865687e-08
6.09572883232e-08
5.37898866318e-08
7.04761287252e-08
2.09961646427e-07
2.62556058709e-07
1.95538780549e-07
2.10569193906e-07
7.29266360932e-07
1.59336772695e-06
6.08528791784e-07
5.92532966112e-07
6.12558147418e-07
6.25772389761e-07
9.40976753533e-07
4.46827754368e-07
3.37855501288e-07
2.44493535656e-07
1.70761484501e-07
1.17043779407e-07
8.16727016509e-08
6.18317144322e-08
5.37137561952e-08
7.40258822131e-08
2.1655968891e-07
2.28041474779e-07
1.4038020274e-07
1.70102218674e-07
4.53180437076e-07
4.91843302226e-07
5.18601868299e-07
5.98698302466e-07
6.36716395472e-07
6.48788608931e-07
9.66415772716e-07
4.85663037121e-07
3.66915316693e-07
2.63533009551e-07
1.80734472006e-07
1.20606986292e-07
8.19338501912e-08
6.10296490809e-08
5.3025104241e-08
7.51029556063e-08
2.06854524916e-07
1.86886358493e-07
1.01106922927e-07
4.73712491326e-08
1.4955821987e-07
3.6540647868e-07
5.21534052109e-07
6.27293710707e-07
6.82701813789e-07
6.94708022852e-07
1.01134618184e-06
5.20649519951e-07
3.90464811027e-07
2.75887624165e-07
1.83887327649e-07
1.18453707742e-07
7.85249413545e-08
5.87925547781e-08
5.27107117696e-08
7.69970309764e-08
1.73622456564e-07
1.05317105468e-07
2.08141892993e-08
2.75944541515e-08
1.52514030725e-07
3.67954207588e-07
5.65560361823e-07
6.59997919072e-07
7.3822511221e-07
7.60752973589e-07
1.08486548199e-06
5.43053278231e-07
4.00216961062e-07
2.74060452536e-07
1.74528522711e-07
1.07679571253e-07
7.1235499915e-08
5.63512859413e-08
5.41353786529e-08
6.2416697281e-08
8.17430884461e-08
2.96632746665e-08
1.07424016946e-08
2.57808007844e-08
1.62774006962e-07
5.45082201163e-07
7.47952665092e-07
6.74859810241e-07
7.79951928291e-07
8.28622331068e-07
1.17843009082e-06
5.40734488928e-07
3.84240347278e-07
2.48401118664e-07
1.47426589488e-07
8.80280663709e-08
6.23036171756e-08
5.59915626974e-08
5.82887934519e-08
6.45691170592e-08
5.0883964512e-08
1.64046449856e-08
7.50840990803e-09
2.56320493554e-08
4.31720416308e-07
1.75987031298e-06
7.38359833543e-07
6.60932894489e-07
7.86711752465e-07
8.69859648924e-07
1.26874502749e-06
5.0335920664e-07
3.34634326815e-07
1.9704988037e-07
1.0817679849e-07
6.751898928e-08
5.67793160073e-08
5.77181326277e-08
6.11272899178e-08
6.39490887162e-08
4.37921615348e-08
1.34216495839e-08
5.10953221332e-09
2.73882864593e-08
8.2887980622e-07
2.27536185146e-06
1.0156264669e-06
6.81001796633e-07
7.44955039783e-07
8.5723955259e-07
1.29472693172e-06
4.33230803585e-07
2.62175502802e-07
1.38340274474e-07
7.4678091361e-08
5.46551345252e-08
5.33368533483e-08
5.6464187998e-08
5.77855680572e-08
5.37153959435e-08
3.27739192555e-08
9.46907926213e-09
3.73840357033e-09
1.95454526056e-08
6.28465508192e-07
2.00600366321e-06
2.84899115004e-06
7.20129916781e-07
6.48638329699e-07
7.8524604783e-07
1.2152947206e-06
3.52856858955e-07
1.9252123642e-07
9.2385865136e-08
5.31478131754e-08
4.72812506767e-08
5.10651118581e-08
5.32277916793e-08
5.14322826982e-08
4.39263795778e-08
2.559952542e-08
5.33192505106e-09
4.35328533824e-09
2.79240485732e-08
6.58764820944e-07
1.79709464796e-06
2.66878135628e-06
2.30061165127e-06
5.10473336333e-07
6.61291620752e-07
8.7515436254e-07
2.85822247708e-07
1.36939353688e-07
5.941415112e-08
4.14740341585e-08
4.51416684519e-08
4.93018092782e-08
4.85717476339e-08
4.30631682533e-08
3.28186391743e-08
1.7515754226e-08
4.05471269506e-09
7.09645324961e-09
4.91428244511e-08
8.94596928853e-07
1.7771401438e-06
2.43590469523e-06
2.92528115561e-06
1.05313788148e-06
5.26198768882e-07
6.30758633644e-07
2.3587046833e-07
9.00944005274e-08
4.02544272919e-08
3.8550869963e-08
4.43114467556e-08
4.61471883154e-08
4.25887787236e-08
3.44909199403e-08
2.29716350694e-08
9.37185404998e-09
4.97046732187e-09
1.44775825618e-08
1.42527949677e-07
1.125675923e-06
1.83410582816e-06
2.37712436295e-06
2.76597143615e-06
1.75988098906e-06
4.54312833362e-07
5.6236701501e-07
1.88562100831e-07
5.67166885683e-08
3.46395699111e-08
3.82123830993e-08
)
;

boundaryField
{
    emptyPatch
    {
        type            empty;
    }
    minY
    {
        type            calculated;
        value           nonuniform List<scalar> 0();
    }
    maxY
    {
        type            calculated;
        value           nonuniform List<scalar> 0();
    }
    maxX
    {
        type            nutkWallFunction;
        blending        stepwise;
        value           uniform 0;
    }
    water_to_heater
    {
        type            nutkWallFunction;
        blending        stepwise;
        value           uniform 0;
    }
    procBoundary1to0
    {
        type            processor;
        value           nonuniform List<scalar> 
41
(
7.15029807197e-06
7.35700355005e-06
6.30865037369e-06
5.34939741228e-06
4.58111848792e-06
3.7314114903e-06
2.89600541849e-06
2.2227445728e-06
1.73938342912e-06
1.4093259137e-06
1.1891781955e-06
1.05531920643e-06
9.93942173256e-07
9.85340267965e-07
9.93558690279e-07
9.6891098552e-07
8.69784869076e-07
6.95338348777e-07
4.99773040619e-07
3.18953507606e-07
4.2807434902e-08
4.24093797114e-08
3.64815684486e-08
2.65560854786e-08
1.54897872656e-08
6.40279678061e-09
9.76002176385e-09
3.81927415822e-08
4.84236017635e-07
1.28912185353e-06
1.89612008763e-06
2.3380041949e-06
2.70568452015e-06
6.05297398229e-07
4.55739850166e-07
5.37751796905e-07
1.40253477382e-07
4.51021870071e-08
3.4419742845e-08
4.2807434902e-08
3.8237012123e-08
)
;
    }
    procBoundary1to3
    {
        type            processor;
        value           nonuniform List<scalar> 
41
(
3.18709286618e-06
2.60603985904e-06
2.06821865541e-06
1.61835086013e-06
1.26789517868e-06
9.8227760335e-07
7.05029807085e-07
4.27336608952e-07
2.1106017947e-07
9.4301988978e-08
4.68189526967e-08
3.10552315688e-08
2.92000971451e-08
4.89324131273e-06
5.07157939748e-06
4.78313038895e-06
4.49875486255e-06
4.28622886181e-06
4.01416508126e-06
3.60304565184e-06
3.60304565184e-06
3.7770666662e-08
6.15584151867e-08
1.07483475694e-07
1.69730849244e-07
2.25881370767e-07
2.56812123387e-07
2.68348359466e-07
2.72967590891e-07
2.74967371811e-07
3.00027418835e-07
3.78956594918e-07
4.35942995605e-07
3.67472950576e-07
2.61127784234e-07
2.25077777146e-07
2.15606802647e-07
2.17361693176e-07
2.56413445501e-07
3.86384377473e-07
6.8306078845e-07
)
;
    }
}

