/*--------------------------------*- C++ -*----------------------------------*\
| =========                 |                                                 |
| \\      /  F ield         | OpenFOAM: The Open Source CFD Toolbox           |
|  \\    /   O peration     | Version:  2312                                  |
|   \\  /    A nd           | Website:  www.openfoam.com                      |
|    \\/     M anipulation  |                                                 |
\*---------------------------------------------------------------------------*/
FoamFile
{
    version     2.0;
    format      ascii;
    arch        "LSB;label=32;scalar=64";
    class       volScalarField;
    location    "0.57/water";
    object      k.gas;
}
// * * * * * * * * * * * * * * * * * * * * * * * * * * * * * * * * * * * * * //

dimensions      [0 2 -2 0 0 0 0];

internalField   nonuniform List<scalar> 
6000
(
0.0356058647725
0.00826917458717
0.0022115925296
0.000860970408924
0.000964389549443
0.00117397927208
0.00124735329293
0.00126648430433
0.00127184477181
0.00127143514889
0.00126790021056
0.00126277289757
0.00125729446162
0.00125222643973
0.00124793677043
0.00124452343651
0.00124193132846
0.00124003930518
0.00123871452248
0.00123784111777
0.489282249436
0.151877470196
0.0415100472239
0.0133113491398
0.00357418643846
0.0016352485455
0.0011685108361
0.00122419421692
0.00127325527511
0.00128275522871
0.00128153289126
0.00127693199629
0.00127070846241
0.00126391970699
0.00125733991374
0.00125148139307
0.00124660567975
0.001242776058
0.00123993192819
0.00123795843625
0.682247608522
0.256060103386
0.0915703830775
0.0304847883989
0.0109100449614
0.00348161427531
0.00157467191132
0.00117854968526
0.00124910562971
0.00128627989124
0.00129149472443
0.00128955770113
0.00128475038149
0.00127835187989
0.001271226497
0.00126409982293
0.00125754517413
0.00125193835512
0.0012474586638
0.0012441357981
0.834936051039
0.332618653116
0.131786320812
0.050223751896
0.020864079924
0.00670984332806
0.00246989300665
0.00130624844731
0.0012089633228
0.00127845924185
0.00129556221238
0.00129699174426
0.00129436273129
0.00128942559368
0.00128304236415
0.00127590981413
0.00126869639804
0.00126199111784
0.00125622735653
0.00125165549589
0.911346446017
0.381139707753
0.160351128081
0.0669742145516
0.0262365485839
0.0117481203466
0.00355437973893
0.00156360112779
0.00118094697327
0.00125772185106
0.00129526972288
0.00130067160988
0.00130035544044
0.00129721895991
0.00129217015133
0.00128582513204
0.00127879440601
0.00127172024972
0.0012651956566
0.00125967623013
0.915556269651
0.403398450267
0.179349371707
0.079730628637
0.0342391490263
0.0132863683137
0.00573066298253
0.00176547697226
0.00113063526727
0.00121373071223
0.00129068332155
0.00130196973846
0.00130352850605
0.00130208005215
0.0012984652406
0.001293229729
0.00128687304756
0.00127997732528
0.00127317912051
0.00126706728151
0.892618672817
0.40981331446
0.190363066119
0.0884150696528
0.0401942668439
0.0172087928508
0.00641036555558
0.00249276875003
0.000985983116627
0.00109277900019
0.00127509147659
0.00130217058189
0.00130476708734
0.00130465147104
0.00130236971231
0.00129832289701
0.0012928830167
0.00128651751738
0.00127982039275
0.00127343269077
0.893357808782
0.416420846698
0.197348389638
0.0938694076835
0.0442777708639
0.0202728304912
0.00848012710657
0.00323544925075
0.00109524915431
0.000831570997491
0.00121198179069
0.00130151992547
0.00130522052983
0.00130573078174
0.00130456845109
0.00130166955193
0.00129722902532
0.0012915749595
0.00128520941236
0.00127876471917
0.91818786228
0.42835728144
0.202948866671
0.097376800817
0.0471413783322
0.022741178223
0.0104456157348
0.00415963931403
0.00170855560094
0.000653451971829
0.0010042698517
0.00129144311824
0.00130692051966
0.00130659829664
0.0013060972747
0.00130415949461
0.00130063785385
0.00129569097343
0.0012897115572
0.00128329593905
0.972357417764
0.444522736726
0.20729193131
0.0998691664744
0.0495231492349
0.0249118539261
0.0122912496003
0.00556509678639
0.00206813177161
0.000868280293392
0.000666576084039
0.00121220296813
0.00131156718481
0.00130914444595
0.0013082516201
0.00130684176369
0.00130395733935
0.00129951202597
0.0012937814963
0.00128731148356
1.03047434731
0.456047135121
0.211614917399
0.103018501944
0.0521503193284
0.0270776470978
0.0141224386351
0.00704129907156
0.00307373270552
0.00115979332854
0.000567702145779
0.000910370435649
0.00130434756556
0.00131571641495
0.00131234472774
0.00131066483635
0.00130791921595
0.00130357703093
0.00129778180711
0.00129102793425
1.03840324711
0.461844643639
0.215712022697
0.106129091857
0.0546484804803
0.029140460979
0.0158535535816
0.00852606964799
0.00420295391877
0.00170050023017
0.000821702793846
0.000546055567808
0.00117182420341
0.00132578831604
0.00131945233988
0.00131621560621
0.00131292945081
0.00130816142663
0.00130187693339
0.00129452215112
1.03573447741
0.462058241343
0.217343870754
0.108010206567
0.056471012919
0.0308298832444
0.01737819306
0.00988632700799
0.00531446672898
0.00241383786033
0.000950279367094
0.000570080353392
0.000754412488385
0.00131013494746
0.001329892334
0.00132357739921
0.00131899168124
0.00131324121635
0.00130602431233
0.0012977448956
1.03104670592
0.461174042145
0.217605943475
0.108827262652
0.0575372924516
0.0320308936938
0.0186023117532
0.0110192937504
0.00629319152696
0.00308856226613
0.00130049041469
0.000664137063233
0.000463585500761
0.00114480864121
0.00134065381665
0.00133251330149
0.00132586861669
0.00131863487563
0.0013100972831
0.00130062462262
1.03014753041
0.460849420564
0.217487927306
0.108922461655
0.0579995920619
0.032803316704
0.019519422904
0.0119138714978
0.00707177207824
0.00365499375321
0.00160541573636
0.000801451616543
0.000516067845503
0.0007737924742
0.0013351886169
0.00134252816597
0.00133328381176
0.00132418288699
0.00131403919961
0.00130318777671
1.03465243244
0.462953363159
0.218093060804
0.109068478111
0.0583056365612
0.0333730085481
0.0202221197284
0.0125995169024
0.00766053766449
0.00412005297542
0.0018657121592
0.000963274610789
0.000616535640663
0.000501030568811
0.00128082313871
0.0013530716823
0.00134105153611
0.00132984568495
0.00131794895873
0.00130561952793
1.04982693789
0.468702243478
0.22037237468
0.110116251464
0.0590299065501
0.0340271111949
0.0208209396591
0.0131360886046
0.00814214384104
0.0045502743974
0.00213252468728
0.00110792768762
0.000632424815095
0.00044464469496
0.00116857383097
0.00136407504409
0.00134918404921
0.00133573710931
0.00132208111435
0.00130824295627
1.07507533012
0.478816699773
0.225139150378
0.112683375441
0.0604905459922
0.0348671238582
0.021351171039
0.0135750924406
0.00859180689186
0.00500466885597
0.00247273293475
0.0012772634238
0.000760769923482
0.000517020250277
0.00103052551422
0.00137868866693
0.00135848370315
0.00134218241852
0.00132678145823
0.00131143041895
1.10669190895
0.492334948315
0.232257561211
0.116912823038
0.0627673390382
0.0359055873782
0.0218304243175
0.0139423346457
0.00903336188471
0.0055331901406
0.00293316076462
0.0014912738795
0.000925195570422
0.000686506711307
0.000870621969761
0.00139867776555
0.00137115436825
0.00134976372725
0.0013323925683
0.00131549160627
1.11418735892
0.5054293159
0.243512615901
0.123856406157
0.0658723515499
0.0368702887396
0.0220647939638
0.0141403271353
0.00941862987911
0.00608681614006
0.00340663992655
0.00175332767775
0.00112429127888
0.000745805708468
0.000678519107702
0.00138363379349
0.0013914791658
0.00135943320474
0.00133919606244
0.00132060453898
1.11128723343
0.527970412284
0.261595001891
0.132618033455
0.0685755892953
0.0371628865813
0.0219490719293
0.0142260983554
0.00971341135702
0.00654322828535
0.00384757484744
0.00195712774059
0.00132015965993
0.000958880056979
0.000737189482071
0.00111119953039
0.00141935927892
0.00137251714212
0.00134739343517
0.00132682659428
1.1685503513
0.569308390325
0.282378724496
0.139784865562
0.0701503025302
0.037321075258
0.0220944577179
0.0143803151905
0.00994831426182
0.00690516298075
0.00422712522982
0.00210476412551
0.0013905554724
0.00117255020256
0.000784736191817
0.0006288315255
0.0013769247674
0.0013897291611
0.00135702766844
0.00133412023757
1.29558260434
0.62202521698
0.298629995155
0.143995500635
0.0719349966228
0.0384812104265
0.0227304556757
0.0147239292647
0.0102246752581
0.00724957385718
0.00458616473538
0.00223849181626
0.00139339820591
0.00125574536334
0.00101187596824
0.000676868246425
0.000984275803029
0.00140257921318
0.00136802732252
0.0013423426403
1.45196358982
0.667403663465
0.309295035828
0.147925656755
0.0748646343198
0.0406215926598
0.0238911698734
0.015311701676
0.0106106960306
0.00764931346791
0.00496881872297
0.00239377743648
0.00139656595757
0.00125934017269
0.00113877746591
0.000687050809561
0.000520880626873
0.00135173288812
0.00137974792754
0.00135113448426
1.56645570614
0.697206399665
0.318106357327
0.152705753529
0.0781969514721
0.0428200829822
0.0251714605007
0.016029115623
0.0111180161392
0.00812533351976
0.00537233469087
0.0025898387559
0.00142056457001
0.00126647659379
0.0011994856841
0.000844428284646
0.00045809629786
0.00112444871378
0.00138887199962
0.00135987177467
1.63552221054
0.71408801166
0.325769773553
0.157210812051
0.0809932291566
0.0446044363722
0.026273581613
0.0167376347205
0.0117082634801
0.00863696120794
0.00576853378359
0.00282778724313
0.00148180144407
0.00130298127805
0.00125415828108
0.000959747885407
0.000561470152554
0.000798139031436
0.00138787180753
0.00136777065697
1.6597273221
0.724475383209
0.331704803464
0.160563816907
0.0829958994413
0.0459090085395
0.0271635069797
0.0174449631783
0.012356196062
0.0091406430475
0.00615708851738
0.00310364159475
0.00158950478503
0.00137698434476
0.00133424008539
0.00106621220869
0.000592534317326
0.000566809819512
0.00136879111799
0.00137443844992
1.67515926482
0.729851003187
0.334779290229
0.162338274689
0.0842054050568
0.0468309610791
0.0279327598201
0.0181853341888
0.0130131625069
0.0096077799839
0.00652188468685
0.00339204128178
0.00173516987924
0.00148524334412
0.0014454220171
0.00119356506547
0.000669088964413
0.000462006016396
0.00132127173671
0.00138033671244
1.69716617892
0.737016392167
0.337569010731
0.163678554971
0.0851518003598
0.0476378480909
0.0286867872774
0.0189350884578
0.0136084773716
0.0100106670749
0.00683685447763
0.00365496194991
0.0018927329248
0.00161503799062
0.00158081080449
0.00134882194483
0.000832962076229
0.000462573209693
0.00121269295923
0.00138621313009
1.72159172414
0.74571447532
0.340977681163
0.165170563441
0.0860741159781
0.0483820744715
0.0293964064842
0.0196080901806
0.0140750411738
0.0103158169229
0.00707116020883
0.00386062683514
0.00203674701515
0.00174085282238
0.00170550459609
0.00151292923349
0.00101945078569
0.000575391135839
0.000998911950087
0.00139184086064
1.7418384798
0.754421374016
0.345018611789
0.16705803086
0.0870816971844
0.0490695194579
0.0300241018692
0.0201269807087
0.0143771243283
0.010500664048
0.00720709523123
0.00399860086295
0.00215204770489
0.00183515024883
0.00180662079228
0.00163030150272
0.0012040918893
0.000695308991397
0.00072841415808
0.00139380476423
1.75718506689
0.76069904657
0.348575316092
0.169021139275
0.0881529522112
0.0497269965518
0.0305518610754
0.0204526142169
0.0145173953349
0.01056280399
0.00725080386522
0.00408849207026
0.00224375938779
0.00190353351448
0.00189007992521
0.00172583273432
0.00135685460059
0.000726746378597
0.000547768173993
0.00138035248167
1.76690301755
0.762950357406
0.350243066811
0.170498773949
0.0891225376607
0.0503183740822
0.0309065507827
0.0205420276469
0.0144862195162
0.0104976963303
0.00721185464302
0.00414992069336
0.00231798082177
0.00195867431157
0.00195978535001
0.00181203267558
0.00147722252352
0.000876587661499
0.000509806264716
0.00133113239863
1.77440011075
0.762341499635
0.350112362415
0.171324161729
0.0899713955874
0.0508347106258
0.0309912455172
0.0203587538768
0.0142667251641
0.0102983539349
0.00709496175046
0.00417771125544
0.00237874126208
0.00201034087124
0.00202261990045
0.00190611912563
0.00159258592296
0.00102221930319
0.000578637698138
0.00123525503397
1.76000967291
0.75328417857
0.346784392937
0.171262088498
0.0907609664304
0.0511475064719
0.0306765655277
0.0198688916028
0.013839322915
0.00996136342886
0.00689823734693
0.00416087637173
0.00244334568644
0.00206150206862
0.00208753185809
0.0020209408661
0.00173869857627
0.00117972736467
0.000717792467489
0.0011159837287
1.70992961089
0.728280581634
0.338972533471
0.171141687959
0.0919499483901
0.0511603833365
0.0298639239108
0.0190249204264
0.0131952672351
0.00949763322522
0.00662960071485
0.00413647188121
0.00252986134146
0.00211151965752
0.00215939752467
0.00215316420761
0.00190176672581
0.0013591543313
0.000850013295922
0.0010040571844
1.60230254781
0.68580778629
0.331109172659
0.173887419698
0.0939354765685
0.0504664725723
0.028301293368
0.0177907383667
0.0123819470534
0.00898877366196
0.00639475906492
0.00416641446777
0.00263742578903
0.00215912576049
0.00222992891259
0.00227599011749
0.00206195048181
0.0015478525503
0.000844918853159
0.000884463479642
1.43392272473
0.653169359605
0.337210919321
0.182418172863
0.0954788707815
0.0480801888764
0.0260368702907
0.0164864506163
0.0116468499615
0.00859486228165
0.00625070290677
0.00421274212209
0.00273034506248
0.00218219355626
0.00226527856194
0.00234924027869
0.00216823244864
0.00171418702697
0.00101566149927
0.000763111182212
1.30339518501
0.674797536377
0.369190144624
0.194738961859
0.0950498929253
0.0454705373029
0.0244091428172
0.0155805817291
0.0111132435009
0.00828724202922
0.0060952255512
0.00418203896047
0.00274153754622
0.00214766402231
0.00221905035437
0.00233588568296
0.00219124046768
0.00178646672023
0.0011827390613
0.000774021578052
1.39589232477
0.789664416012
0.425304044276
0.210520055586
0.0965451864622
0.0449292254012
0.0239754887226
0.0151909530994
0.01077117664
0.00801276980572
0.00592679835544
0.00410049592184
0.00267123825226
0.00203503556256
0.00206294919834
0.00221466609829
0.00210973534475
0.00178312872382
0.00128305732248
0.00087982364862
1.80501260701
1.00107593229
0.501125158711
0.232605116577
0.105131363357
0.0492608854614
0.0258237740798
0.0157215078479
0.010783018092
0.00790886723716
0.00584727873833
0.00405939323296
0.00258491983173
0.00185213698395
0.00181844815732
0.0019884828763
0.00193675525182
0.00170209994294
0.00130602644946
0.00082804931677
2.59172502747
1.27793713041
0.586022617549
0.273436002801
0.12952668787
0.0623936565803
0.0316714576643
0.0179210085013
0.0115316550529
0.00818123887573
0.0060062523024
0.00418407144198
0.00259205769073
0.00168119770585
0.00155811700874
0.0017124740465
0.00172360369778
0.00157671799867
0.00126403111035
0.000920150281377
3.47116057878
1.50894206259
0.71345055319
0.348390329809
0.172673613343
0.0853040420385
0.0421220428437
0.0222647712382
0.0132899837357
0.00897465823524
0.00649207359463
0.00454901860023
0.0027775602322
0.00162711443591
0.00135093641529
0.00146695321266
0.00152763188825
0.00145245169335
0.00122740972549
0.000975260180341
3.89544262576
1.59393588682
0.758644235413
0.396417512064
0.217086961404
0.114882685022
0.0552168694802
0.0281432725898
0.0159304733567
0.0102603177007
0.00727223914729
0.00512638090335
0.00314513930043
0.001725586688
0.0012462627107
0.00130662295459
0.00138756896016
0.00136608194066
0.00121532200139
0.0010194878986
3.83225688365
1.57405859436
0.749469128621
0.399060585046
0.230891187183
0.135298724735
0.0691200292469
0.0349246043546
0.0192064999787
0.0119137147808
0.00824945623314
0.00581972430848
0.00362818854699
0.0019499733077
0.00125854726294
0.00123482239358
0.00131405722713
0.00132939399262
0.00123034790189
0.00105795644059
3.64819813303
1.51115491609
0.718908983918
0.387127571401
0.232402610249
0.144305488723
0.078454878592
0.0412851814858
0.0227796193949
0.0138292451637
0.0093503156195
0.00654327397784
0.00414552300706
0.00225147274053
0.00135374300741
0.00121693510341
0.00129501843926
0.00133451696735
0.00126884228668
0.00109781309401
3.45995534263
1.44300576982
0.686754982686
0.371579054518
0.227066861499
0.144908855685
0.0824587178905
0.0453598465425
0.0256733216527
0.0156164739557
0.0104195709946
0.00720645559389
0.00461102507513
0.00256628235318
0.00149750416273
0.00124195045207
0.00131078348146
0.00136854091191
0.00132651635493
0.00115430320094
3.30452636795
1.38549717182
0.659198039274
0.355774389455
0.217699138794
0.139547784464
0.0821921072965
0.0472151716117
0.027590352002
0.0170331849279
0.0113360023615
0.00776562354943
0.00498305742423
0.00282842779445
0.00164360273564
0.00129366708099
0.00134560233011
0.00142030549259
0.00140314507484
0.00123296819616
3.19537347069
1.34591595021
0.638509301289
0.341202958512
0.206447198305
0.130747562521
0.0793846462519
0.0473978712682
0.0285701780249
0.0179970920029
0.0120274226077
0.00818496018644
0.00525030464032
0.00302464542217
0.00177233901701
0.00135818327299
0.00139166515071
0.00148443643539
0.00149768203906
0.00133775093265
3.15140600346
1.328892723
0.627714403372
0.330391513569
0.195963985201
0.122100819345
0.0757689538484
0.0465093249472
0.0287800501044
0.0185119086054
0.0124547581601
0.00843737263304
0.00540646757234
0.00315489853702
0.00187899371653
0.00142966299899
0.00144535409629
0.00155925828086
0.00160810610414
0.00146985931046
3.17369373892
1.33553429638
0.626450800923
0.324318895501
0.187656746815
0.115854535035
0.0721999206266
0.0449857921647
0.0284303173611
0.0186342134135
0.0126029313488
0.00850921168628
0.00545257581621
0.00322523184558
0.0019645515983
0.00150497910708
0.0015081130201
0.0016432419326
0.00173179658677
0.0016267619803
3.26776931829
1.36061288515
0.636368968192
0.327270876596
0.18600509478
0.111817631462
0.0689309204613
0.0431655067516
0.0277366035912
0.0184143826194
0.0124640879908
0.00840124432483
0.00539856234878
0.00324588602634
0.00203246608971
0.00158308488246
0.00157925836184
0.00173371762432
0.00186541206872
0.0018018413954
3.37881650877
1.39831708391
0.662853689088
0.342252200908
0.188199158507
0.10916874004
0.066000579338
0.041322664241
0.0267951473248
0.0178242666181
0.0120362402807
0.00813254209393
0.00526500251623
0.00323038111629
0.0020870066533
0.00166156709778
0.00165286800754
0.00182736748839
0.00200368380787
0.00197698724842
3.41359991165
1.42289749464
0.69135159773
0.354889395905
0.190327169372
0.107145199296
0.0635374579836
0.0395748488041
0.0255094231579
0.0168144353577
0.011374399698
0.00775501855877
0.00508693317696
0.00319753722457
0.00213417668977
0.00173514510323
0.00172075397501
0.00191862084383
0.00213580815892
0.00215276884432
3.31787797549
1.4029862711
0.695005814509
0.35844854206
0.190240618224
0.105151757491
0.0613263968213
0.0374705691649
0.023622709467
0.0154719078557
0.0105970581451
0.0073448759408
0.00490774164948
0.00316727505322
0.00218013855538
0.00179451877346
0.00177824212088
0.00200088708649
0.00226197849662
0.00233012268205
3.12834496983
1.33971531233
0.675734771038
0.351638515801
0.18667546928
0.102190473684
0.0581643971449
0.0343432253384
0.0212428977141
0.0140537512623
0.00985112634347
0.00697842211485
0.00476421229147
0.00315581784194
0.00222282958426
0.00183546441671
0.00182348241421
0.00206540330052
0.0023731558575
0.00250378026083
2.84294926139
1.23233885576
0.62946725
0.331934660479
0.177565827226
0.0960901249575
0.0530610488083
0.0305242849474
0.0189086272623
0.0128282930684
0.00925180606826
0.00670409796912
0.00467824039745
0.00317335435258
0.00225834595353
0.00186310922212
0.00185418672219
0.0020975019099
0.00245009527119
0.00265661323013
2.45668802164
1.07019858574
0.558924120234
0.301907131429
0.163006897307
0.0875577787927
0.0474955018419
0.0271060383015
0.0171044037073
0.011966976818
0.00884872938353
0.00653736096262
0.00465627131812
0.00322012034003
0.00229786833748
0.0018804035189
0.00185019289294
0.00208288378973
0.00246734483289
0.00276271726655
2.05174756061
0.935510267351
0.503231248401
0.278041147479
0.15213200672
0.0814397522257
0.0437493268155
0.0250396856633
0.016126173983
0.0115211884303
0.00864135964217
0.00646808900215
0.00468457928154
0.00327278121947
0.0023335776145
0.0018792554262
0.00180204120426
0.00201675358641
0.00239851140761
0.00278648435631
1.81540725584
0.892808380842
0.496807888362
0.28035186314
0.15410317727
0.0811765303931
0.0425843587249
0.0242879269017
0.0157963067367
0.0113637877643
0.00855064056102
0.00643860750534
0.00470605160807
0.00331043355357
0.00235146188528
0.00185436329968
0.00171626971177
0.00188149032404
0.00223576397075
0.00268463040062
1.78188126832
0.97605389958
0.560950906805
0.317099169074
0.168982210858
0.0852141634094
0.0435768675155
0.0247662171511
0.0160813271771
0.0114760485814
0.00856620440075
0.00643127725043
0.00470284146243
0.00331250445889
0.0023316567435
0.0017936041888
0.00160321868352
0.00167410653281
0.00199489987237
0.00244705973029
2.17919052645
1.2429079761
0.705163238074
0.379987462887
0.192063335436
0.0942468421138
0.0481978781087
0.0273628031711
0.0174403380426
0.0121071872043
0.00882315899447
0.00652018560523
0.00472313014362
0.00329131337672
0.00226406245736
0.00168699960752
0.00146160075519
0.00146178155014
0.00168179407236
0.00212646678416
3.02810046236
1.67429415968
0.858839511402
0.429502593731
0.212740152123
0.108155596455
0.0581304975557
0.0333728441042
0.0206700795353
0.0136950377837
0.00957385913248
0.00687649215964
0.00488335295343
0.00331608864961
0.00218589898448
0.00155300882519
0.00130050655922
0.00126809179805
0.00139923879803
0.00179241912237
3.96376482256
1.9259671159
0.922789401315
0.447645347872
0.229295250245
0.12508876282
0.0718955585064
0.0420173426883
0.0256074764653
0.0163443061594
0.0109448232123
0.00761828056677
0.00529315328304
0.00348689098448
0.00217714965002
0.00144813709721
0.0011592411566
0.00110614674526
0.00119747366467
0.00148908331369
4.28592012842
1.93837352004
0.929262191818
0.464931782403
0.249403975699
0.144674094469
0.0878531892356
0.0515888969471
0.0309290859748
0.0194115049347
0.012735516912
0.00869440543236
0.00596499398616
0.00385411260756
0.00230275603244
0.00143029588667
0.00108072204771
0.00100162377447
0.00106894707279
0.00130082512499
4.24640944258
1.94326672195
0.936915262394
0.479367794923
0.26704277628
0.16214321464
0.102886246716
0.0613493588037
0.0362132524511
0.0224124930928
0.0145963046872
0.00992587641882
0.00679980604042
0.00437346332334
0.00256524080866
0.00151906726629
0.00108167136095
0.000963888615309
0.00100672493863
0.00120706573494
4.19524311549
1.93058075666
0.939572213689
0.49058285789
0.280031638589
0.173762430782
0.11201534217
0.0681438687321
0.0408294328074
0.0252581389867
0.0163979339742
0.0111634840503
0.00766748922124
0.00495853294459
0.00292424000683
0.00170180734157
0.00115487804892
0.000984244680743
0.000998716801393
0.00117130590004
4.16585543748
1.91520355946
0.950806373546
0.509515941195
0.295616527309
0.18397673644
0.117744137394
0.0726054346867
0.0443031786837
0.027629254482
0.0179756081229
0.0122593031027
0.00843278344968
0.00549279966454
0.00329561711065
0.00193440929595
0.0012801913768
0.0010483021817
0.00103248923458
0.00118204030535
4.08770489703
1.89285306941
0.978688171359
0.543386256737
0.320300966635
0.198403857707
0.124853901089
0.077294203063
0.0476640797
0.0299057885459
0.0194822922392
0.0132573810495
0.00908177246468
0.00593903460324
0.0036297873704
0.00217100171623
0.00142796786369
0.00113812859405
0.00109376742349
0.00122952791687
3.70736551858
1.80186440388
0.987913307163
0.573891285181
0.346657410156
0.215323336427
0.134391493189
0.0831475152596
0.0514850784725
0.0323706935102
0.0210638142041
0.0142235050012
0.00963928899424
0.00630965977094
0.00392579207811
0.00240094875063
0.0015850872916
0.00124236345137
0.00117211835979
0.00130086672551
2.98634608512
1.59903634829
0.937039681817
0.573340250691
0.358354933386
0.226116890305
0.142039202627
0.0884580993171
0.0551058948433
0.0347833841101
0.0226191815636
0.015115992778
0.0101138841498
0.00662763071144
0.0041976803715
0.00262603937949
0.00174688225486
0.00135439017732
0.00126089430377
0.00138873271472
2.41991283477
1.37204391115
0.841682628375
0.537153265109
0.347251167172
0.224322745298
0.143431724324
0.0906911353588
0.057215804009
0.0364992289212
0.0238359799662
0.0158159142685
0.010498110797
0.00690948709377
0.00445817359022
0.00285029234494
0.00191109101637
0.00146977840072
0.00135422829895
0.00148525423468
2.08473577292
1.18985950847
0.743158186845
0.483281143687
0.318756476574
0.210233226506
0.13720553812
0.0884983228787
0.0568825133917
0.0369420895718
0.0244048205523
0.0162109109207
0.0107661594575
0.00715335106861
0.00470864499984
0.00307203972906
0.00207391985315
0.0015830910221
0.0014450164698
0.00157869044899
1.8093697767
1.05412126027
0.66107198906
0.427804341127
0.281888661185
0.187797693612
0.124751537983
0.0822034336931
0.0540711538282
0.0359868291583
0.0242277474611
0.0162454967567
0.0108834478429
0.00733910007813
0.00493608623139
0.00328217029255
0.0022278800587
0.00168764716247
0.00152331877423
0.00165224771744
1.61375441288
0.952393862391
0.590420820466
0.372515025097
0.241504147362
0.161271318813
0.108837251022
0.0733644890417
0.0496136015813
0.0340399403217
0.0234528987239
0.0159390212428
0.0108292594823
0.00744312714265
0.00512202807849
0.00346766818668
0.00236423105337
0.00177434194802
0.00157784418227
0.00168680220059
1.69820192752
0.918775278405
0.538246347608
0.320985345785
0.202333090747
0.135184418609
0.092788975444
0.0641889702173
0.0448982878725
0.0318384303273
0.0223618912499
0.0153873997274
0.0106248393116
0.00746221477373
0.00525475617159
0.00361796386342
0.00247428336584
0.00183070153001
0.00159159383282
0.00167040449259
2.07386181073
0.972757809832
0.514897953176
0.283641841277
0.172223598224
0.11480536917
0.0801471287221
0.0570587600865
0.0413481336558
0.0300348582162
0.0212590151807
0.0147644169475
0.0103510684904
0.00742203545152
0.00533079170091
0.00372233655097
0.00254241006432
0.00184505853603
0.00156423770113
0.00160170357408
2.51139616883
1.0624785602
0.515413121245
0.266837398415
0.156911724981
0.103947100746
0.0734116801711
0.0535842501595
0.0396868700832
0.0289871720005
0.0205445379613
0.0143256560556
0.0101332546836
0.00735193842966
0.0053351650245
0.00376697511462
0.00258671899372
0.00184504965185
0.00151050861043
0.00148748877881
2.66603699988
1.11685821927
0.529270302595
0.270825806367
0.157546029246
0.103432190476
0.0732572186304
0.0540331344695
0.0402471488552
0.0294714100689
0.020798497897
0.014344500884
0.0100500125589
0.00724774127958
0.00528994914395
0.0037904425827
0.00262152817706
0.00183270176813
0.00143616351261
0.00134395100713
2.53478614509
1.15132031749
0.562038262182
0.294482317527
0.172482485177
0.112868279121
0.07980621313
0.0590667566043
0.0442887982186
0.0323474500247
0.0222205861717
0.0147509868768
0.0100584825141
0.00718400468479
0.00526589609482
0.00381092951821
0.00264375018951
0.0018059979451
0.001346501867
0.00119286367459
2.53305509947
1.23001487503
0.624904156379
0.337885601162
0.200123164901
0.130668070612
0.0922503723535
0.0684948356766
0.0515930825485
0.0372504207461
0.0246339143801
0.0156417788566
0.0104087460631
0.00733313327642
0.0053484169978
0.00388559983427
0.00269559570513
0.00179299254748
0.00126866957248
0.00106590145046
2.72219884369
1.36289410925
0.713508132238
0.392054393248
0.231767440047
0.149792807731
0.104770049359
0.0775680501789
0.0584983800571
0.0424087512716
0.0280258780369
0.0172984317104
0.011242558004
0.00777030873584
0.00560273889033
0.00407678639136
0.00283237317748
0.00183961099528
0.00123855543967
0.000989372471658
2.82862080327
1.42400006228
0.742139087232
0.408975469557
0.242224837561
0.157145844842
0.111179006661
0.0835683470846
0.0639418467121
0.0476534114003
0.0322100902881
0.0192047783627
0.0122393464065
0.00836965678148
0.00600998627321
0.0044001909775
0.00308593821771
0.00198244493899
0.00128674297435
0.000981514564134
2.59003742033
1.29846505879
0.682398242965
0.373429259379
0.220259759408
0.14624214153
0.108317383112
0.0856376522299
0.0685534634518
0.0530654130414
0.0367412276934
0.0206467035249
0.0129376138734
0.00888967018699
0.00647161239436
0.00482490506357
0.00345074836734
0.00223264287461
0.00143017548652
0.0010536489003
2.41091136235
1.19452500486
0.610339707222
0.319439939068
0.186737710983
0.130146634539
0.102599033046
0.0852309705788
0.0708713526145
0.056208726465
0.0394101499966
0.0210186600434
0.0131686381832
0.00922164078573
0.00689476678986
0.00529854657449
0.00389495166412
0.00258086558038
0.00167312462224
0.00120988456612
2.31958494972
1.09098847521
0.526020585694
0.267598922759
0.160238105404
0.116667185154
0.0948417526924
0.0803616294561
0.0675862028962
0.0535836198206
0.0368317252052
0.0199136164983
0.0129507877632
0.00938582958628
0.00727263883132
0.00579214146537
0.00439145878338
0.00301729745101
0.00201537267908
0.00144532782138
2.26855304492
1.10157605518
0.509677310978
0.256037996074
0.150743580345
0.1032556685
0.0814642571978
0.0686539257587
0.05764507517
0.0452393248497
0.030325089528
0.0178957431941
0.0124090816857
0.00944597778475
0.00764204745884
0.00630567790445
0.0049375830711
0.00354605282719
0.00245717352641
0.00173954120224
2.26213236929
1.1725197386
0.595100203471
0.322353227127
0.180369935544
0.0923879870592
0.0647381102026
0.0529184765587
0.0441224599595
0.0347099618313
0.0241422978139
0.0159112811799
0.0118773423572
0.00955377304067
0.00806520961618
0.00684940923323
0.0055448094734
0.00418044972392
0.002968526832
0.00201668025618
2.31201395788
1.25827423045
0.724588850893
0.432191413621
0.244828737815
0.0949058160732
0.0555784409202
0.0417169663713
0.0338387008327
0.026898420718
0.019821981025
0.0145820475469
0.0116431539298
0.00982910169733
0.00857343946864
0.00745459264333
0.00625108121724
0.00490741644857
0.00343657307299
0.00213446450092
2.32998854327
1.32982558621
0.838887459295
0.550360316996
0.336866431458
0.125592770369
0.0607640909003
0.0384599442537
0.0286589406746
0.0225662905056
0.0175262240658
0.0139610255268
0.0117244669411
0.0102423172922
0.00913589254242
0.00814861167029
0.00706700546251
0.00555965106885
0.00360441139891
0.00214453722027
2.3712578536
1.3934068053
0.906247050628
0.631401594812
0.426839534182
0.207531711002