/*--------------------------------*- C++ -*----------------------------------*\
| =========                 |                                                 |
| \\      /  F ield         | OpenFOAM: The Open Source CFD Toolbox           |
|  \\    /   O peration     | Version:  2312                                  |
|   \\  /    A nd           | Website:  www.openfoam.com                      |
|    \\/     M anipulation  |                                                 |
\*---------------------------------------------------------------------------*/
FoamFile
{
    version     2.0;
    format      ascii;
    arch        "LSB;label=32;scalar=64";
    class       volScalarField;
    location    "0.935/water";
    object      alpha.gas;
}
// * * * * * * * * * * * * * * * * * * * * * * * * * * * * * * * * * * * * * //

dimensions      [0 0 0 0 0 0 0];

internalField   nonuniform List<scalar> 
6000
(
0.16742409604
0.102007228149
0.0293528809341
0.00753529474727
0.00146239125159
0.000235035431091
3.0678049213e-05
2.43224374562e-06
5.66152423069e-08
5.29198413958e-10
2.80960139454e-12
1.15731632215e-14
1e-15
1e-15
1e-15
1e-15
1e-15
1e-15
1e-15
1e-15
0.610954094644
0.252467494642
0.105039304253
0.0362237691764
0.0117353745144
0.00322691293524
0.000748226819805
0.000134925697481
1.38743120107e-05
3.3495629578e-07
1.20372407955e-09
2.10606321332e-12
3.58751613342e-15
1e-15
1e-15
1e-15
1e-15
1e-15
1e-15
1e-15
0.613303650933
0.335907704165
0.164113269189
0.0700374166152
0.0273573537008
0.00936352416165
0.0026972719914
0.000620681021016
9.39201437911e-05
5.19959724293e-06
2.9528572895e-08
4.17437247727e-11
4.58723146625e-14
1.00017987082e-15
1e-15
1e-15
1e-15
1e-15
1e-15
1e-15
0.613304089033
0.415856873206
0.239759218458
0.121224177216
0.054533638884
0.0212845640413
0.00697385839749
0.00184331901517
0.000348922591062
3.30262945478e-05
5.36325475458e-07
6.9210905327e-10
5.80230501892e-13
1.34566360643e-15
1e-15
1e-15
1e-15
1e-15
1e-15
1e-15
0.598394123301
0.463087896851
0.318496844096
0.192605883894
0.101666851924
0.0454489380793
0.0166544249281
0.00482190249672
0.0010301713254
0.000130128553041
4.9837190778e-06
1.10075750715e-08
7.32638855567e-12
4.80558005384e-15
1.00007103005e-15
1e-15
1e-15
1e-15
1e-15
1e-15
0.568381681138
0.478667712518
0.37760493178
0.268533030338
0.167558147489
0.0884378300888
0.0377726762885
0.0123604653126
0.00290698975575
0.000429675876651
2.67906708329e-05
1.90556291437e-07
1.04689187561e-10
4.53930893189e-14
1.01472889335e-15
1e-15
1e-15
1e-15
1e-15
1e-15
0.544822699387
0.483264798049
0.414335643758
0.330386231129
0.23691589811
0.147065559448
0.0753254203986
0.0296347816764
0.00815636652805
0.00139184892642
0.000114586669506
2.13101260237e-06
1.32840366913e-09
4.7074012445e-13
1.1414617057e-15
1.00133662189e-15
1.00131243253e-15
1.00127377301e-15
1.00121991092e-15
1.00104712547e-15
0.545885002052
0.49128903608
0.434556742876
0.370573745695
0.293086894778
0.207879670388
0.126367150629
0.0612431878309
0.0211290912228
0.00446779135654
0.000469805662475
1.60064073065e-05
3.06791003701e-08
7.53921942969e-12
2.67844731767e-15
1.00199672695e-15
1.00169003495e-15
1.00166125023e-15
1.00164076356e-15
1.00152656881e-15
0.556396836997
0.501697213406
0.452484149552
0.400440638847
0.336724071203
0.26182958738
0.181869330548
0.106303630594
0.0468033383226
0.0131147821184
0.00188120429286
0.000101398206801
9.81813980622e-07
2.4269660314e-10
5.35064443842e-14
1.01170013064e-15
1.0015953197e-15
1.00160148148e-15
1.00163157582e-15
1.00153870646e-15
0.577237735914
0.51031236765
0.469479533241
0.427701797692
0.374212521953
0.308101476462
0.234497567891
0.158109030742
0.086485806567
0.0326876246357
0.00677968667396
0.000581346558035
1.36730584403e-05
1.4640069797e-08
2.97446133505e-12
1.61284750754e-15
1.00159201467e-15
1.00165955718e-15
1.00172359943e-15
1.00164237969e-15
0.576220469213
0.513476983483
0.483654143006
0.452433874426
0.407941389158
0.348702882353
0.280913715183
0.208845758198
0.1356028369
0.0673401346513
0.0204148669542
0.00281989519847
0.000126037926912
1.00780214522e-06
3.04601322806e-10
1.0074521434e-13
1.02686408745e-15
1.00206256186e-15
1.00212660991e-15
1.00201863377e-15
0.580174394339
0.512751927053
0.489262252734
0.466116888844
0.430933462512
0.379570475641
0.318091022298
0.253219047442
0.186370144113
0.115354483334
0.0490961640188
0.0106479580899
0.000840213200779
1.6368228742e-05
2.65043465156e-08
7.91690691109e-12
3.78582524318e-15
1.00397137708e-15
1.00317461032e-15
1.0027514637e-15
0.576781541331
0.509106333185
0.486977719111
0.464645580194
0.431768955722
0.388905464274
0.339341440671
0.286114737325
0.230797792195
0.167429554144
0.0926788698905
0.0296026267422
0.00384182265727
0.000139828977386
8.6313436742e-07
4.03754773694e-10
2.12467930707e-13
1.0929294844e-15
1.00591589882e-15
1.00426942127e-15
0.580220270476
0.500382508022
0.482741497583
0.458700526708
0.42619661168
0.385499543778
0.345071732875
0.305652045325
0.264105301171
0.212147666846
0.140115358192
0.0602846390583
0.0119316905061
0.000729635487826
9.11624314631e-06
1.23014550742e-08
6.30956779677e-12
4.2851173335e-15
1.0113989689e-15
1.00750406026e-15
0.576251519184
0.487266973729
0.473164220916
0.445875510081
0.411271506923
0.37413628371
0.34211281266
0.315340266021
0.285446791562
0.242711577235
0.178001301985
0.0941988992033
0.0260199627419
0.00243688222512
5.02906063329e-05
1.52134380812e-07
9.24617849768e-11
5.03651096142e-14
1.03376595668e-15
1.01097057797e-15
0.578968188049
0.472180511122
0.456681914253
0.426389577759
0.390642905295
0.35876600599
0.337359075832
0.320468700307
0.297700957631
0.260730152311
0.203351447742
0.123095913413
0.0432312068408
0.00565804287377
0.000174345071405
8.68957030034e-07
6.70170982342e-10
3.76264863246e-13
1.16925654346e-15
1.01140939659e-15
0.576220469213
0.459769805696
0.43781197585
0.407842883147
0.376562279049
0.35184390512
0.336917916741
0.324932583711
0.305998536178
0.273470429803
0.223282830289
0.148256164166
0.0616786825603
0.0105595508277
0.000463574529285
3.61131220046e-06
3.51115091742e-09
1.85206536362e-12
1.64534752993e-15
1.00992650682e-15
0.576616980161
0.454599774265
0.42544777893
0.400089689593
0.374926195267
0.353421571575
0.341141171023
0.331929865824
0.315456534354
0.28844905387
0.246978917973
0.17772893302
0.085388050345
0.0188231648813
0.00123083970072
1.70479817922e-05
2.07607380823e-08
2.43749089147e-12
1.3116283441e-15
1.0059238099e-15
0.56953972225
0.456214813276
0.430644018484
0.407577195895
0.38465824136
0.365704605487
0.354311400171
0.34430457011
0.330248861162
0.311362487713
0.280569147446
0.220602805156
0.125143408906
0.0371542241475
0.0039010220924
0.000104547222739
4.15908745346e-07
4.65018195442e-12
1.6673398931e-15
1.00215832136e-15
0.550044228481
0.472135504635
0.461136791341
0.443468331167
0.418675688167
0.393887635458
0.375632875277
0.361122056132
0.347690096468
0.333735660403
0.315842280192
0.277579851535
0.193762685674
0.0812032823697
0.014022638351
0.000712034579925
7.70638012e-06
1.45448144025e-09
3.0550913161e-14
1.01207851475e-15
0.555580695834
0.51959701717
0.522964782054
0.508480530428
0.472319481021
0.431141485853
0.399514202828
0.376250656763
0.354725090628
0.335649976788
0.327194435185
0.322670548289
0.275426057318
0.161707936642
0.0456640149039
0.00422289929815
9.66530778118e-05
2.53655626572e-07
1.93610977495e-12
1.71396723686e-15
0.60178984365
0.577668826966
0.580340931279
0.566189517776
0.523711104501
0.468272268794
0.421587885136
0.385757776058
0.353835543612
0.330593274554
0.325266856048
0.325130826017
0.324008463821
0.250054210341
0.10893131346
0.0178213078282
0.000802083194417
7.41297013779e-06
1.80663088407e-10
3.10545534585e-14
0.637276624544
0.603009099798
0.604514442215
0.591872371822
0.554441166906
0.495550193786
0.437762526462
0.389201284032
0.348346510966
0.316128081333
0.314247831964
0.324419990774
0.324301163685
0.297445969832
0.179869915818
0.0481989467451
0.00391506921075
7.25644955331e-05
1.09600950695e-07
3.46579676918e-12
0.641111692883
0.607586325473
0.607424041564
0.599973896114
0.567105361483
0.507919211064
0.443983869387
0.387766206365
0.336214628737
0.298225786921
0.297772263218
0.313481192511
0.324189190632
0.311273272988
0.224342404673
0.0865365530577
0.0115198470592
0.000366409821148
1.89022901838e-06
2.44622295772e-10
0.637609048649
0.607363454747
0.607263580148
0.603172062263
0.571163009905
0.51036022952
0.443106470709
0.378626832039
0.31683500838
0.293834437073
0.293916334435
0.29733599138
0.316295167714
0.309204952659
0.244897238049
0.118031767691
0.0225202526948
0.00110377539193
1.00404696751e-05
5.11614986411e-09
0.642569855177
0.603754380978
0.607125395396
0.60317960224
0.570289927917
0.507500914624
0.434334998956
0.359098970553
0.29818045487
0.293916334435
0.29346237896
0.293916334435
0.298683774188
0.302786246985
0.257074084593
0.140980056957
0.0340556688625
0.00229809980566
3.04038026115e-05
5.0074575876e-08
0.637640618361
0.5955831822
0.605649094075
0.598383962454
0.561652167735
0.494108072387
0.412934162373
0.331889266701
0.293916334435
0.293465368037
0.293916334435
0.293186053892
0.293916334435
0.299266965806
0.269822751055
0.161916558803
0.046058603411
0.00398854519158
7.09635817966e-05
2.05951162888e-07
0.642346316414
0.583498191572
0.594943849378
0.582928747282
0.540369596173
0.467703178157
0.38228970367
0.305674199981
0.293648794851
0.293916334435
0.292833206918
0.293916334435
0.293052119217
0.307711268771
0.291705312105
0.187354921866
0.0616151724005
0.00682656689301
0.000161425035248
6.65842585223e-07
0.637609048649
0.568544313052
0.577896717055
0.558968707083
0.509208663982
0.432675522077
0.349107762985
0.294180955677
0.293916334435
0.292943469877
0.293916334435
0.292354876534
0.293916334435
0.335214528944
0.322798618176
0.222355381184
0.08648553597
0.0124571481829
0.000391423131393
2.07647942855e-06
0.641813095191
0.552122050925
0.557747425054
0.530185306465
0.472535835766
0.394719464317
0.3179036878
0.293916334435
0.293187063926
0.293916334435
0.292225382778
0.293916334435
0.301332057662
0.357515814769
0.357020765945
0.26970018706
0.123536528033
0.0228653270901
0.00096800081915
6.53720263554e-06
0.637609048649
0.534956297453
0.532622842475
0.49638522443
0.43397654585
0.359964565891
0.297472870709
0.293496999097
0.293916334435
0.292351997896
0.293916334435
0.2920927191
0.342059459608
0.357442430687
0.35782830274
0.30491487908
0.165841802747
0.0391616364218
0.00227918160754
2.05587166301e-05
0.639836764568
0.513753454604
0.498683962894
0.45721615807
0.397923401734
0.334228531714
0.293835180197
0.293916334435
0.292628989743
0.293916334435
0.2920927191
0.306279852259
0.357442430687
0.358202812465
0.357442430687
0.326110657544
0.203892098652
0.0605558084453
0.00492906493112
6.35072687159e-05
0.637182501311
0.484015587819
0.456541260384
0.416538625894
0.368603713932
0.319341367574
0.293916334435
0.292996951555
0.293916334435
0.292096966182
0.293916334435
0.348887194354
0.358177508868
0.357442430687
0.357721849623
0.3389751828
0.235819076551
0.0866381076622
0.00994422210599
0.000191552360463
0.629701686239
0.449692376896
0.428302740167
0.396126939131
0.356820860778
0.316142814078
0.293504842023
0.293916334435
0.292388120927
0.29568752509
0.325549323688
0.356851349869
0.357442430687
0.357724122998
0.357442430687
0.34586073788
0.263311903201
0.119537548685
0.0193136584782
0.000570959888745
0.580394163972
0.436753244285
0.429638194613
0.399909165053
0.358712376014
0.320722636374
0.302091427276
0.305216503839
0.314865390938
0.323003026838
0.330027697822
0.339409826147
0.34837526922
0.355056017859
0.356868861177
0.347923586763
0.295716466348
0.166933976035
0.0371406178745
0.0016779526604
0.535727986562
0.469986839902
0.469478358778
0.434874137296
0.379114600907
0.342937003898
0.334475803554
0.338164505734
0.333967839962
0.319384625366
0.30907337465
0.305371158411
0.319066767767
0.335420804066
0.345218345239
0.350170713323
0.343235512735
0.231418802369
0.0703694741048
0.00508500157053
0.57229868632
0.58073127125
0.574556371329
0.531843968408
0.447570200242
0.391035496596
0.369934867742
0.355706875216
0.331884681792
0.302185301872
0.281607496704
0.277162568909
0.286167023499
0.30164835788
0.323756698268
0.355591364571
0.366549940112
0.293215487025
0.125853572484
0.0154318153526
0.670276493617
0.679501073843
0.673224041359
0.653506903272
0.575974681445
0.48121120271
0.417928888577
0.375085042319
0.335067155583
0.297997833544
0.271466331858
0.266548355258
0.269255932699
0.276384257644
0.302590752082
0.354962268205
0.366160933027
0.344969190434
0.196609756662
0.0405687530346
0.685002087542
0.679020454156
0.68272077058
0.679020454156
0.675110234461
0.601866770119
0.502516773185
0.421866362728
0.358925636939
0.306048502521
0.271186229265
0.264722387836
0.265193065143
0.266627830817
0.283462363523
0.344807323563
0.366699625086
0.366160933027
0.258484285232
0.0828705492338
0.679020454156
0.683660413413
0.679020454156
0.683258055143
0.679020454156
0.675690993949
0.593730050704
0.491529416713
0.404643743198
0.329059236824
0.274049855534
0.264079798632
0.264097926034
0.264719491636
0.269120615264
0.321992052414
0.366160933027
0.36651600901
0.296372342667
0.131070239067
0.685947507692
0.678776039957
0.683999588239
0.679020454156
0.682282200926
0.679020454156
0.639644449788
0.545864385293
0.444950482835
0.352706589506
0.280520148131
0.263911873845
0.263993162988
0.263859521094
0.264430728532
0.295261846389
0.362970046687
0.366160933027
0.31723987656
0.172571472346
0.679020454156
0.683648489293
0.679020454156
0.683952871758
0.679020454156
0.680443086666
0.652696040545
0.568948465591
0.464059262379
0.363358518485
0.283733689187
0.263993162988
0.263712802364
0.263993162988
0.263770716661
0.276590408617
0.345596679518
0.366376410432
0.329902869448
0.205635760579
0.68475307438
0.6789809742
0.683994161138
0.679020454156
0.68225662555
0.679020454156
0.654513991648
0.572619848598
0.466739988708
0.363363169588
0.282331383783
0.263800121637
0.263993162988
0.263515099794
0.263993162988
0.265214789354
0.324108571845
0.366160933027
0.339444185573
0.234737103161
0.679020454156
0.682514927972
0.679020454156
0.683109521598
0.679020454156
0.679933002591
0.65147485783
0.567244354882
0.459631369137
0.353185908094
0.275087676189
0.263993162988
0.263472744802
0.263993162988
0.263311887854
0.263993162988
0.308188704227
0.364946735986
0.349424339797
0.263878619383
0.682816911046
0.679020454156
0.682749264274
0.679020454156
0.681264710326
0.679020454156
0.637101051601
0.543955234356
0.433291405535
0.326556402735
0.266201965568
0.263703558961
0.263993162988
0.263239912543
0.263993162988
0.263225950246
0.30099610735
0.364951129009
0.362134303994
0.2932629255
0.679020454156
0.680691078602
0.679020454156
0.681717157235
0.679020454156
0.672236231436
0.604978341562
0.501310355846
0.389074844191
0.291600844932
0.263880275932
0.263993162988
0.263255520694
0.263993162988
0.263058534841
0.263993162988
0.299562440129
0.367870215696
0.374778470526
0.318441731481
0.680960063377
0.679020454156
0.68088957965
0.679020454156
0.679570775431
0.647062777557
0.557642406931
0.447159270955
0.336876372318
0.267546133814
0.263993162988
0.263328202782
0.263993162988
0.262981691325
0.263993162988
0.262987479213
0.30229872289
0.36984675132
0.381416084092
0.335242103492
0.679020454156
0.679298502088
0.679020454156
0.679630724443
0.67022605599
0.604518062452
0.501243992484
0.388079487985
0.289430487848
0.263993162988
0.26342301702
0.263993162988
0.262874128624
0.263993162988
0.262850430567
0.263993162988
0.308467893022
0.369699463473
0.383137371693
0.34590700969
0.679492813375
0.669166202651
0.679067292222
0.673151745261
0.634581533105
0.548361504357
0.440303210355
0.329620166792
0.265669674209
0.263640758804
0.263993162988
0.262829947263
0.263993162988
0.262697392813
0.263993162988
0.264394682529
0.314762674648
0.367189089776
0.384386250971
0.356903477124
0.679020454156
0.650790816595
0.661553755097
0.641096729319
0.579225041353
0.485948173316
0.378507360258
0.283248715528
0.263769516676
0.263993162988
0.262823379433
0.263993162988
0.262464477216
0.263993162988
0.262718820602
0.270275568204
0.315751150766
0.362613981023
0.387703831285
0.376560192765
0.67916357592
0.627636975798
0.625398672672
0.588810787862
0.516859389718
0.422497462943
0.320678316188
0.264197975691
0.263993162988
0.262911080779
0.263993162988
0.262265953706
0.263993162988
0.262467679688
0.263897165204
0.272960034694
0.314133212453
0.357443276531
0.393948131939
0.403503340054
0.679020454156
0.598175323414
0.575969765919
0.526836061804
0.45239363354
0.362827172268
0.278161375707
0.263993162988
0.262993908228
0.263993162988
0.262094182738
0.263993162988
0.262148852988
0.263897165204
0.26273439651
0.274151146092
0.308260758787
0.352908023615
0.400979959081
0.40550019861
0.679378267998
0.557370342936
0.514137370593
0.458485331214
0.388964881574
0.312119371536
0.263993162988
0.263297023246
0.263993162988
0.261980266232
0.263993162988
0.261807259978
0.263897165204
0.26245543566
0.263547087314
0.272450362749
0.297236941417
0.346917186621
0.402531876061
0.405218539474
0.678039914301
0.504616861564
0.456003374093
0.402469852009
0.342430355257
0.279571707239
0.263563070781
0.263993162988
0.261934665834
0.263993162988
0.261632158255
0.263897165204
0.262188148057
0.263547087314
0.262981174192
0.266252514125
0.281119410492
0.338544843967
0.402148667245
0.405581257359
0.647183670286
0.450984717306
0.426662080246
0.387150601822
0.33007167615
0.271595670934
0.263993162988
0.26213641117
0.263993162988
0.261632158255
0.263993162988
0.272822318518
0.277884085659
0.269043680355
0.26098144777
0.252934392135
0.263778847164
0.325363809425
0.398913308703
0.405218539474
0.580320848112
0.430448786864
0.428350605016
0.396210120167
0.337949363529
0.277815577217
0.262943822872
0.263993162988
0.261632158255
0.278349258651
0.30168902286
0.306427450387
0.283773647616
0.265789969914
0.252517847932
0.243366965578
0.247619747236
0.30275062227
0.385486750122
0.405544790861
0.528708320923
0.45150665871
0.46624919599
0.449490687531
0.390700587787
0.324300067019
0.293406673545
0.296817125595
0.323087011295
0.352727839645
0.349116490258
0.313470813326
0.279324441725
0.258290143081
0.247583329157
0.239894904354
0.236823642007
0.27154879077
0.356771861705
0.405218539474
0.534491140626
0.532333056151
0.560259482564
0.55581626746
0.507215050646
0.44420781652
0.409965897271
0.413267851279
0.429837193422
0.424585592727
0.379703723016
0.320961281563
0.278680383707
0.254937753256
0.246038424395
0.239616529047
0.232985653564
0.240380216479
0.314257520269
0.401054652891
0.576411002432
0.628222564026
0.646993905059
0.645646130903
0.618520053067
0.577594264688
0.545037726883
0.528937710183
0.515750638316
0.484388419286
0.423704175771
0.347674042505
0.286396475277
0.255113537622
0.245164221553
0.240645104764
0.231832314462
0.221896092345
0.269692058115
0.382022468589
0.632141666109
0.674391138076
0.682271057693
0.682441949022
0.669711862378
0.648233952272
0.623640449678
0.600297874511
0.575771045368
0.540612423246
0.481785238724
0.396367713639
0.309656225537
0.257921980461
0.244567909128
0.24254094891
0.233875362533
0.219943212576
0.235415106592
0.344471098759
0.66613305051
0.684722995316
0.685621991995
0.684722995316
0.684846641528
0.673709215817
0.658016197227
0.639633627527
0.617491702717
0.585587841245
0.531234725082
0.445132216763
0.342968563786
0.266297717081
0.244532174849
0.244638266638
0.239061087109
0.219907289775
0.217523680046
0.299984660056
0.682333916786
0.685096804218
0.684722995316
0.68553821391
0.684722995316
0.681897383532
0.672865605813
0.660960180589
0.644191344247
0.615536277334
0.563519255481
0.479255336353
0.372242762232
0.278687394643
0.245068070037
0.247564529174
0.245777502085
0.224067556345
0.208946657505
0.265835576728
0.685393237261
0.683794195505
0.685239447572
0.684722995316
0.685154196636
0.683643964801
0.677464972919
0.670022427312
0.6581386667
0.632713940525
0.582238670776
0.499137137388
0.390495973569
0.288623204775
0.247819932538
0.252506334904
0.254503141528
0.233129444967
0.206483523027
0.242914972822
0.68532308234
0.675391366405
0.684315338565
0.685103911101
0.684722995316
0.681808631986
0.676335917388
0.670874330348
0.662377831673
0.639630031534
0.590010616595
0.506810285551
0.396950874236
0.292514370669
0.253383376323
0.26101058082
0.265435498507
0.242018551828
0.20646578715
0.228392398401
0.684814133122
0.661130577056
0.675315605327
0.678614951247
0.675844099344
0.670634600303
0.667844140143
0.666691209055
0.660935692405
0.639557427926
0.589876274328
0.505985102784
0.395455164558
0.291960348711
0.262054199421
0.273485038467
0.276514212342
0.246228276802
0.206465695755
0.21894864172
0.681351990827
0.646334577522
0.660542498781
0.659205530791
0.651071042551
0.644288401399
0.645752203088
0.650697442795
0.649757707359
0.631527710708
0.580677897239
0.493883942524
0.382809674686
0.288027977235
0.272932661817
0.287731317118
0.284809889205
0.245452859524
0.20643703709
0.21244060633
0.67694452683
0.63443845501
0.644300390536
0.63342698421
0.614724610985
0.604420610427
0.608889654324
0.619436988571
0.62249084569
0.606108456344
0.552906625089
0.462556700291
0.355383113834
0.285468374422
0.2838870708
0.298109457523
0.286346823699
0.240256334883
0.206447218178
0.207517728981
0.675179389306
0.625615893903
0.626158570761
0.604735529351
0.573797308298
0.557840258556
0.56310613217
0.576094626465
0.580142202433
0.562782184867
0.506573462455
0.415735854092
0.321305899366
0.284675238763
0.29399950586
0.298968963462
0.283507164678
0.231833291099
0.206318961133
0.206445890663
0.67199679905
0.615640272505
0.607647740261
0.575112673509
0.53449904965
0.512675982305
0.516459542068
0.527549339747
0.529160904188
0.507929000908
0.448843184519
0.363559465513
0.293529530404
0.284506843052
0.295934678586
0.298998096844
0.276437923192
0.222736092076
0.206445890663
0.206025928112
0.663343864081
0.59722482706
0.58804565935
0.548824864255
0.502278598743
0.475422588777
0.474183957831
0.479301959479
0.475468187965
0.447195554814
0.387122792573
0.31521396106
0.277615496085
0.282075876638
0.296065565774
0.29545921381
0.265998538173
0.217521125158
0.206227663726
0.206445890663
0.64343738483
0.566764111089
0.566615881098
0.531236179218
0.481879716803
0.447605539979
0.436516898107
0.43212014628
0.418911591331
0.383451939745
0.326770612014
0.276476006265
0.266486150904
0.276697507899
0.291169745168
0.284601041217
0.254298922623
0.217166074366
0.206445890663
0.20600752874
0.611934032806
0.540483255555
0.547276043544
0.52123233983
0.472224244225
0.426732667118
0.401041503108
0.383674121635
0.359264747655
0.319312277284
0.273297599741
0.248906143719
0.25186465954
0.265686785494
0.273591919401
0.26497256925
0.243935534486
0.22023978635
0.206287699593
0.206445890663
0.582829910662
0.540361544823
0.544521455146
0.521926251891
0.470453283083
0.415725129047
0.37334251934
0.341445394778
0.307223268327
0.266734487391
0.234734796732
0.227595497789
0.23227762164
0.243235017589
0.245224717961
0.242225970202
0.235733450325
0.224314617942
0.2065713952
0.206113549135
0.581981382845
0.56451648148
0.572006393337
0.546136680796
0.483472295895
0.41926787633
0.369658328377
0.328133604239
0.287680152359
0.247121667486
0.218629965699
0.212645441214
0.214091962133
0.218312144865
0.220987253504
0.225422314794
0.229306893239
0.223942312662
0.208892012559
0.206445890663
0.632093584053
0.65097898125
0.64267920916
0.61313939186
0.545119176373
0.460456402243
0.390145332812
0.337105832984
0.291111213858
0.248194107487
0.217775326217
0.207486060414
0.207183948938
0.20796822842
0.210482328251
0.215816994132
0.222541531314
0.220634046458
0.210570808563
0.206264858962
0.723184869657
0.733412055588
0.715453740674
0.691628395074
0.647716245492
0.570778941515
0.477803461951
0.393378402531
0.324124877888
0.265781194242
0.222689548006
0.207086823646
0.206554835591
0.206557035334
0.207409522753
0.210177937802
0.214990120643
0.214904346544
0.210109688862
0.206445890663
0.774662742312
0.758697740471
0.742997959937
0.731624365306
0.713443463479
0.671483457006
0.594340885545
0.495722071343
0.398377799219
0.311573763935
0.240374068979
0.207813034649
0.206553214978
0.206488656097
0.206530572633
0.207173290305
0.209023671864
0.210228037967
0.208794547318
0.206361621754
0.775430721446
0.756690252297
0.744403364606
0.737877701888
0.727277167069
0.699836807374
0.64167436985
0.553653813857
0.451095785544
0.348190707763
0.256584789867
0.208748441109
0.20645939557
0.206530572633
0.206386413538
0.206507760055
0.206534000949
0.207493618745
0.20729812852
0.206445890663
0.775260368733
0.740373376695
0.736583920464
0.732872314231
0.723967764115
0.697686330268
0.641509027388
0.55621974314
0.454911231608
0.350256808691
0.25636531792
0.208189176986
0.206530572633
0.206267982688
0.206507760055
0.206276130032
0.206490299076
0.206425870512
0.206461814373
0.206398541056
0.771853815656
0.700869870336
0.70927271641
0.710129883304
0.702958843359
0.676257314219
0.620536051402
0.537581750707
0.437804036249
0.333163890099
0.242055685255
0.206563496853
0.206367281591
0.206519128323
0.206112341672
0.206499297872
0.206218203977
0.206479298005
0.206385393889
0.207328412951
0.751600378255
0.660951498591
0.663515680786
0.66174725312
0.65024748145
0.618444327706
0.559924761604
0.477507785766
0.37951524528
0.280197416675
0.214235633595
0.206438177795
0.206540786735
0.206068553866
0.206519128323
0.206023476535
0.206499297872
0.206211247068
0.208527448892
0.211764313389
0.716869785807
0.637953806916
0.60565156693
0.587129169584
0.563667634942
0.523116959031
0.459953455866
0.376224981705
0.284203466373
0.218436491916
0.206465147576
0.206565362878
0.206038730692
0.206540786735
0.205905154919
0.206519128323
0.20604437063
0.209243956037
0.217119239494
0.215152109883
0.686232048869
0.613578830028
0.542030019259
0.491872239149
0.451845152692
0.4032700373
0.336863828535
0.260126219273
0.212200061384
0.206435013332
0.206591095089
0.20590814405
0.206565362878
0.20578286323
0.206540786735
0.205960602124
0.212027444879
0.221223849618
0.22102853254
0.214930378063
0.651663446307
0.575212163255
0.488995776826
0.403752506541
0.342129650853
0.28675592457
0.230190346093
0.206859188964
0.2063552287
0.206618366434
0.205643340928
0.206591095089
0.205556462344
0.206565362878
0.207707921979
0.218680576152
0.224956942846
0.224947050449
0.220369997043
0.213777435375
0.596933647469
0.525418583561
0.456530770771
0.365985970573
0.285620477347
0.224995883949
0.206672302931
0.205957757786
0.20664552731
0.205201741887
0.206618366434
0.205211468539
0.206591095089
0.21579000684
0.229449427863
0.229783203368
0.226934051411
0.223342900745
0.217576957448
0.21384185216
0.538120645971
0.495635496358
0.453226953728
0.367014811816
0.283541650201
0.222307208261
0.206031540182
0.206672302931
0.2052160182
0.20664552731
0.205038404868
0.218116759498
0.233057188262
0.244041216418
0.238209352921
0.229328285911
0.223695975963
0.218547963691
0.214381674901
0.216027953787
0.531296397473
0.520254918051
0.486526415131
0.409837283695
0.322543187896
0.257990811448
0.231270600351
0.228365762127
0.233716313615
0.2441073261
0.261977208417
0.275750979252
0.275007417399
0.25814560588
0.236686376622
0.222960341283
0.216968132733
0.213908021593
0.213520956326
0.222804734502
0.589802971437
0.620520342398
0.601001141178
0.551911117219
0.481019771922
0.421216473651
0.392215066492
0.393295219899
0.402226455233
0.402285650047
0.391163226665
0.362845407521
0.31873159965
0.272522987367
0.237529929285
0.218182637699
0.212150338959
0.210954128902
0.213562900819
0.234309323313
0.716941118438
0.744247641579
0.73322175568
0.714990279677
0.687253850659
0.659324620116
0.643505839018
0.642802198431
0.639108751093
0.604787385256
0.545993963332
0.472335749937
0.390520727836
0.311893851196
0.250363852881
0.218394676011
0.209742646193
0.209131470403
0.214570810832
0.246775402837
0.807924806225
0.794043792021
0.785410711977
0.783221582847
0.780197367395
0.774563152058
0.768001434569
0.761492509887
0.747024711923
0.709327088068
0.645387893882
0.563479546774
0.471193287019
0.373858582424
0.282347725264
0.222137291644
0.208245191261
0.207994641552
0.216414922576
0.258242157346
0.813967267213
0.795205787004
0.793479370706
0.79360485607
0.793610423971
0.793525790584
0.78999739502
0.779822264312
0.761447176192
0.726895407438
0.671206140926
0.596358157321
0.50752977964
0.408289808421
0.306417699348
0.227583682802
0.207430715279
0.207423677291
0.219682179688
0.269768361755
0.815028951728
0.790097101207
0.792788554052
0.793610423971
0.79360477493
0.793610329707
0.790574487334
0.778278462084
0.757724391065
0.722894621009
0.669010521249
0.596449634712
0.508994837694
0.409943579738
0.307060250838
0.22686010786
0.207317334528
0.207302253678
0.22508062835
0.281926187287
0.813967267213
0.777317917486
0.784442749578
0.789255936226
0.792209033043
0.791440200655
0.783259415629
0.763323613702
0.734983586891
0.696484678512
0.644047726279
0.575331580261
0.490060207229
0.390811208707
0.288342875151
0.216925421761
0.207247837604
0.207317334528
0.233294559221
0.293366578075
0.814393740536
0.760722026273
0.763091479361
0.770582612693
0.778395786925
0.775613047024
0.757125195683
0.723177603826
0.682036554065
0.636729330979
0.582951880109
0.515371758379
0.430490436864
0.331716588405
0.241281359165
0.207410336424
0.207317334528
0.207180149076
0.246840599044
0.30314786998
0.806096911793
0.740675514126
0.731542209755
0.737116894692
0.745562200212
0.738697227234
0.707335914589
0.657715397051
0.605260154108
0.552529434786
0.493328470608
0.42111197425
0.334197603068
0.24830095939
0.208403058901
0.207317334528
0.206924427715
0.209035080912
0.271463051455
0.312328066879
0.793829707768
0.701422008014
0.696221602605
0.696034717699
0.698144281736
0.683465879021
0.639683522432
0.578407480426
0.516710512973
0.455776981703
0.387696027879
0.309273093109
0.236778973607
0.207736485876
0.207317334528
0.20675459758
0.207317334528
0.226593806373
0.312879063165
0.321297509396
0.763633546019
0.666296118723
0.658181860836
0.650999121609
0.644945092769
0.622347277194
0.570406006793
0.499727007092
0.42655556336
0.354110620181
0.27970120959
0.221606932999
0.207242282614