/*--------------------------------*- C++ -*----------------------------------*\
| =========                 |                                                 |
| \\      /  F ield         | OpenFOAM: The Open Source CFD Toolbox           |
|  \\    /   O peration     | Version:  2312                                  |
|   \\  /    A nd           | Website:  www.openfoam.com                      |
|    \\/     M anipulation  |                                                 |
\*---------------------------------------------------------------------------*/
FoamFile
{
    version     2.0;
    format      ascii;
    arch        "LSB;label=32;scalar=64";
    class       volScalarField;
    location    "0.99/water";
    object      p;
}
// * * * * * * * * * * * * * * * * * * * * * * * * * * * * * * * * * * * * * //

dimensions      [1 -1 -2 0 0 0 0];

internalField   nonuniform List<scalar> 
1503
(
101468.41435
101464.607235
101463.585732
101462.795071
101462.116712
101461.508005
101460.949161
101460.440872
101459.987142
101459.585777
101459.234346
101458.929317
101458.665821
101458.439248
101458.245749
101458.082149
101457.945868
101457.834909
101457.747856
101457.683758
101449.311372
101447.437555
101447.579612
101447.581704
101447.290544
101447.020077
101446.759341
101446.504034
101446.247704
101445.997204
101445.765448
101445.556738
101445.368677
101445.198895
101445.046608
101444.912015
101444.795679
101444.698242
101444.620384
101444.562764
101432.019753
101430.143596
101430.946907
101431.552239
101431.725569
101431.855587
101431.944206
101431.98231
101431.975856
101431.93349
101431.868591
101431.796101
101431.723818
101431.653197
101431.584409
101431.518377
101431.456842
101431.402002
101431.356223
101431.321678
101417.606954
101416.318132
101417.146364
101417.531151
101417.541421
101417.60265
101417.708377
101417.813226
101417.897608
101417.956426
101417.990466
101418.006997
101418.014382
101418.016805
101418.015159
101418.00968
101418.00114
101417.991018
101417.981319
101417.974096
101403.135977
101402.314886
101403.441883
101403.862372
101403.841782
101403.850321
101403.931993
101404.042875
101404.148572
101404.238184
101404.309269
101404.363812
101404.407379
101404.444566
101404.476962
101404.504545
101404.527176
101404.54522
101404.559637
101404.571581
101389.681608
101388.840857
101389.951893
101390.424292
101390.457465
101390.437775
101390.470169
101390.556109
101390.658344
101390.751698
101390.829352
101390.891066
101390.94109
101390.984314
101391.023218
101391.058194
101391.08894
101391.115297
101391.137534
101391.156075
101376.62138
101375.524336
101376.514211
101377.014851
101377.159887
101377.205164
101377.235528
101377.295365
101377.380683
101377.46245
101377.52711
101377.573965
101377.607662
101377.634303
101377.657739
101377.679267
101377.698977
101377.716717
101377.732501
101377.746259
101364.322329
101362.875953
101363.514752
101363.919831
101364.064658
101364.157172
101364.216934
101364.263008
101364.314071
101364.358415
101364.381633
101364.385333
101364.376821
101364.364071
101364.352234
101364.343329
101364.337731
101364.335222
101364.335441
101364.337814
101352.078213
101350.427988
101351.083017
101351.341484
101351.355348
101351.39373
101351.430487
101351.44307
101351.431457
101351.395673
101351.332779
101351.254075
101351.173977
101351.101399
101351.040552
101350.992462
101350.956652
101350.931872
101350.916724
101350.909703
101339.865687
101337.818392
101338.330396
101338.497487
101338.451191
101338.456304
101338.479147
101338.464392
101338.400019
101338.292665
101338.145002
101337.979587
101337.827918
101337.703125
101337.605681
101337.533342
101337.483232
101337.452166
101337.437088
101337.434935
101326.55967
101323.922336
101324.272955
101324.499725
101324.526889
101324.59715
101324.672247
101324.693704
101324.65581
101324.566535
101324.427306
101324.255994
101324.101305
101323.988339
101323.913373
101323.869255
101323.850379
101323.851962
101323.869622
101323.899244
101311.036572
101308.017368
101308.477022
101308.889667
101309.095039
101309.304019
101309.481751
101309.619432
101309.734669
101309.821325
101309.864417
101309.8574
101309.843968
101309.86334
101309.912294
101309.979229
101310.057706
101310.143852
101310.234366
101310.326147
101293.521281
101290.684723
101291.400844
101292.039169
101292.439493
101292.812105
101293.168655
101293.529883
101293.905603
101294.284028
101294.641765
101294.959392
101295.237572
101295.504477
101295.765023
101296.009228
101296.233052
101296.437407
101296.623457
101296.791744
101275.006343
101273.699917
101275.334526
101276.18062
101276.684934
101277.152791
101277.638189
101278.1571
101278.708115
101279.269775
101279.819988
101280.369998
101280.911583
101281.414184
101281.869139
101282.27111
101282.62004
101282.92173
101283.182465
101283.406974
101263.185555
101262.49898
101263.828408
101264.275422
101264.443162
101264.652918
101264.947637
101265.307434
101265.71299
101266.150102
101266.594117
101267.054377
101267.580895
101268.130028
101268.634264
101269.0738
101269.450226
101269.769627
101270.039236
101270.265154
101252.215866
101251.629922
101253.07733
101253.591812
101253.747573
101253.884441
101254.045164
101254.215314
101254.406268
101254.617189
101254.844607
101255.087708
101255.394277
101255.786403
101256.175905
101256.512734
101256.796814
101257.034852
101257.231305
101257.390528
101243.746349
101242.791874
101243.676014
101243.91325
101243.84535
101243.775643
101243.747752
101243.731887
101243.699385
101243.677693
101243.731856
101243.84588
101243.981606
101244.156276
101244.33501
101244.469415
101244.566618
101244.640466
101244.693331
101244.72646
101233.419209
101232.020696
101232.808112
101233.191204
101233.252169
101233.268264
101233.270089
101233.206044
101233.040538
101232.856969
101232.787132
101232.843353
101232.914699
101232.914064
101232.850329
101232.720748
101232.567644
101232.421013
101232.283362
101232.152065
101224.164585
101222.527285
101223.224802
101223.395047
101223.271005
101223.135919
101222.976998
101222.68393
101222.207597
101221.837264
101221.66249
101221.685324
101221.734494
101221.624451
101221.342801
101220.942671
101220.521659
101220.140214
101219.802044
101219.500811
101212.339055
101210.53352
101211.740749
101212.124117
101212.079173
101211.940578
101211.636982
101210.994638
101210.457102
101210.071007
101209.855915
101209.827572
101209.881321
101209.748224
101209.32598
101208.717239
101208.083778
101207.51737
101207.021879
101206.589075
101200.913519
101198.875254
101199.95605
101200.192108
101199.947381
101199.548089
101198.844238
101198.142089
101197.599203
101197.280221
101197.034749
101196.851656
101196.961017
101196.8726
101196.405184
101195.695499
101194.959362
101194.311757
101193.750734
101193.2653
101187.657994
101185.193949
101186.242572
101186.446669
101186.072674
101185.479116
101184.731852
101183.999316
101183.600723
101183.206217
101182.476825
101182.435622
101182.654431
101182.670513
101182.307084
101181.666497
101180.981887
101180.39118
101179.888079
101179.455227
101173.520094
101170.727814
101171.301903
101171.317827
101170.826171
101170.199438
101169.402218
101168.761699
101168.132407
101166.942886
101166.517193
101166.730662
101166.968298
101167.089865
101166.994199
101166.642953
101166.187776
101165.793595
101165.469906
101165.193588
101157.86649
101154.960962
101155.540071
101155.387024
101154.793348
101154.060146
101153.106242
101151.990296
101150.770443
101150.32182
101150.466017
101150.625396
101150.737607
101150.878321
101150.984237
101151.001721
101150.878206
101150.75419
101150.677035
101150.622152
101141.129928
101137.887001
101138.298808
101138.000877
101137.234227
101136.329131
101135.277061
101134.375277
101134.146822
101134.320655
101134.397526
101134.4886
101134.596057
101134.725262
101134.934508
101135.195538
101135.407445
101135.561386
101135.740337
101135.925072
101121.498813
101117.58694
101117.90868
101117.760719
101117.40453
101117.150491
101116.961974
101117.092365
101117.547626
101117.938338
101118.27174
101118.516222
101118.712324
101118.962787
101119.248112
101119.564278
101120.008781
101120.42328
101120.845819
101121.263854
101099.550507
101095.649395
101096.284233
101096.758504
101097.22411
101097.92124
101098.709642
101099.631271
101100.586875
101101.412137
101102.05431
101102.543493
101102.974246
101103.426097
101103.852347
101104.27232
101104.816846
101105.467765
101106.125903
101106.767739
101080.290491
101077.012944
101077.780389
101078.475983
101079.136082
101080.093214
101081.273133
101082.564886
101083.855989
101085.018292
101085.934397
101086.730309
101087.483483
101088.177541
101088.874041
101089.445585
101090.031757
101090.85249
101091.722162
101092.567107
101063.923844
101062.007869
101063.221779
101063.81394
101064.250348
101064.945541
101065.987422
101067.240876
101068.548145
101069.740866
101070.756764
101071.772912
101072.784248
101073.710518
101074.529124
101075.223853
101075.883721
101076.779951
101077.800686
101078.801266
101050.992489
101050.011685
101051.336772
101051.804719
101052.065147
101052.477189
101053.230082
101054.249294
101055.349161
101056.351671
101057.283803
101058.287572
101059.294782
101060.231155
101061.034283
101061.782495
101062.511287
101063.409366
101064.498061
101065.586611
101040.347789
101039.867011
101041.187393
101041.608077
101041.797831
101042.04079
101042.545939
101043.283463
101044.098146
101044.806826
101045.509135
101046.309209
101047.108235
101047.849079
101048.508336
101049.183653
101049.936194
101050.807365
101051.88896
101052.995152
101031.077067
101030.853671
101032.065831
101032.482567
101032.651173
101032.797652
101033.122143
101033.639427
101034.192302
101034.573
101034.99915
101035.536723
101036.064161
101036.524258
101036.919166
101037.411667
101038.171813
101039.013433
101040.016987
101041.068167
101022.578684
101022.53021
101023.491886
101023.866434
101024.018033
101024.117614
101024.359919
101024.753793
101025.049992
101025.127143
101025.317626
101025.611289
101025.880887
101026.057128
101026.155771
101026.530725
101027.312567
101028.07848
101028.907972
101029.815752
101013.461902
101014.13982
101015.34497
101015.744977
101015.874317
101015.922139
101016.083032
101016.297212
101016.273182
101016.086114
101016.095578
101016.183763
101016.243052
101016.19787
101016.069412
101016.485177
101017.218211
101017.860243
101018.474731
101019.166603
101004.186831
101005.617468
101007.030991
101007.477409
101007.556757
101007.531854
101007.593121
101007.609279
101007.303877
101006.985771
101006.891444
101006.846354
101006.765621
101006.570855
101006.419882
101006.719199
101007.337556
101007.98381
101008.460773
101008.93435
100994.173121
100996.304864
100997.922616
100998.412441
100998.408164
100998.31464
100998.314212
100998.19678
100997.77087
100997.492865
100997.394767
100997.317117
100997.197047
100996.94859
100996.688172
100997.011355
100997.692788
100998.294603
100998.664652
100998.941494
100983.224375
100985.751579
100987.589625
100988.142761
100988.119119
100988.066692
100988.127997
100987.998295
100987.687807
100987.603293
100987.611908
100987.607505
100987.542601
100987.304496
100987.15469
100987.488512
100988.027582
100988.617312
100988.933575
100989.065271
100972.213296
100974.072061
100975.999173
100976.754962
100976.974283
100977.237432
100977.593824
100977.666339
100977.691454
100977.862615
100978.020947
100978.12507
100978.137712
100977.903832
100977.787839
100978.110922
100978.605412
100979.075361
100979.318512
100979.318538
101457.642997
101457.625432
101457.628707
101457.650262
101457.688249
101457.741417
101457.809013
101457.890687
101457.986416
101458.096462
101458.221361
101458.362015
101458.519915
101458.697509
101458.898198
101459.123913
101459.371478
101459.646306
101460.018549
101463.770254
101444.526496
101444.511873
101444.516911
101444.539047
101444.57623
101444.626826
101444.689488
101444.763054
101444.846506
101444.938991
101445.039951
101445.149331
101445.267735
101445.395985
101445.532985
101445.672824
101445.808323
101445.941345
101446.089797
101446.09746
101431.299964
101431.292182
101431.297921
101431.315472
101431.342988
101431.378718
101431.421038
101431.468475
101431.519773
101431.573999
101431.630645
101431.689602
101431.750706
101431.812444
101431.870229
101431.917344
101431.950439
101431.974747
101432.000879
101431.897995
101417.970312
101417.971209
101417.977982
101417.990251
101418.007005
101418.027169
101418.049744
101418.073903
101418.099101
101418.125129
101418.152074
101418.18003
101418.208439
101418.235181
101418.256585
101418.270277
101418.279572
101418.294078
101418.313713
101418.223643
101404.580838
101404.588286
101404.596098
101404.604872
101404.614471
101404.624647
101404.635186
101404.646012
101404.657255
101404.669232
101404.682292
101404.696451
101404.710854
101404.723419
101404.731698
101404.735725
101404.740559
101404.75158
101404.757977
101404.679916
101391.169802
101391.179224
101391.186712
101391.193116
101391.198747
101391.203829
101391.208607
101391.213416
101391.218697
101391.22491
101391.232338
101391.240753
101391.249061
101391.255351
101391.258189
101391.259247
101391.264138
101391.272637
101391.272013
101391.211773
101377.756522
101377.763472
101377.768867
101377.773198
101377.776709
101377.77966
101377.782383
101377.785291
101377.788838
101377.7934
101377.799068
101377.805383
101377.811169
101377.814854
101377.816015
101377.817551
101377.823859
101377.829222
101377.824663
101377.778568
101364.340707
101364.343521
101364.346736
101364.350082
101364.353347
101364.356526
101364.359788
101364.363419
101364.367734
101364.372931
101364.3789
101364.385037
101364.390208
101364.393284
101364.394763
101364.398215
101364.405246
101364.407363
101364.401614
101364.366129
101350.90834
101350.910552
101350.915231
101350.921155
101350.927556
101350.934087
101350.940701
101350.947518
101350.954702
101350.962298
101350.97007
101350.977376
101350.983242
101350.987054
101350.990147
101350.996043
101351.002871
101351.002541
101350.997132
101350.969243
101337.44185
101337.453841
101337.468322
101337.483536
101337.498476
101337.512704
101337.526142
101337.538896
101337.551109
101337.562802
101337.573748
101337.5834
101337.591056
101337.596687
101337.602326
101337.610568
101337.616588
101337.614964
101337.610512
101337.588113
101323.935663
101323.973276
101324.009156
101324.042194
101324.071978
101324.098562
101324.122258
101324.143466
101324.162547
101324.179696
101324.194858
101324.207714
101324.217941
101324.226142
101324.234812
101324.244842
101324.249875
101324.247945
101324.244548
101324.226169
101310.413952
101310.492014
101310.559112
101310.616451
101310.665298
101310.706926
101310.742529
101310.773144
101310.799596
101310.822438
101310.84192
101310.85805
101310.870958
101310.881876
101310.89339
101310.904293
101310.908359
101310.906636
101310.904132
101310.888735
101296.938767
101297.060541
101297.159436
101297.240143
101297.306323
101297.360899
101297.406213
101297.444104
101297.475965
101297.502765
101297.525094
101297.543297
101297.557967
101297.570874
101297.584196
101297.59476
101297.597779
101297.59623
101297.594288
101297.581088
101283.59423
101283.743036
101283.859588
101283.951708
101284.025131
101284.084166
101284.132074
101284.171303
101284.203652
101284.230369
101284.252265
101284.269926
101284.284328
101284.297572
101284.310864
101284.319663
101284.32126
101284.319407
101284.317547
101284.30589
101270.447793
101270.588296
101270.694987
101270.776822
101270.840228
101270.889903
101270.929298
101270.960923
101270.986564
101271.007427
101271.024289
101271.037796
101271.049144
101271.060425
101271.071393
101271.076961
101271.076461
101271.073573
101271.07122
101271.060511
101257.5134
101257.602794
101257.666823
101257.712982
101257.746551
101257.771294
101257.789882
101257.804169
101257.815389
101257.824298
101257.831339
101257.837003
101257.842492
101257.84944
101257.855881
101257.856982
101257.853615
101257.848937
101257.845521
101257.835206
101244.741283
101244.742268
101244.735317
101244.724166
101244.71128
101244.698263
101244.686099
101244.675311
101244.66609
101244.658382
101244.652045
101244.647236
101244.644933
101244.6458
101244.646209
101244.642145
101244.635342
101244.628325
101244.623417
101244.613006
101232.028945
101231.919501
101231.825637
101231.745633
101231.677921
101231.621065
101231.57373
101231.534662
101231.502695
101231.476759
101231.456009
101231.440182
101231.429789
101231.424084
101231.418128
101231.409009
101231.398703
101231.389198
101231.382635
101231.371753
101219.238115
101219.019315
101218.841052
101218.69544
101218.576426
101218.479241
101218.400055
101218.335758
101218.283807
101218.242156
101218.209324
101218.18464
101218.167936
101218.156805
101218.145584
101218.132468
101218.119288
101218.107671
101218.099638
101218.088086
101206.22074
101205.921466
101205.682839
101205.4917
101205.338167
101205.214664
101205.115308
101205.03551
101204.971697
101204.92116
101204.882047
101204.853391
101204.834198
101204.820445
101204.806431
101204.791303
101204.776601
101204.763784
101204.754832
101204.742632
101192.857726
101192.531732
101192.275656
101192.073552
101191.913493
101191.786421
101191.685437
101191.605289
101191.542048
101191.49289
101191.456005
101191.43031
101191.41394
101191.401638
101191.388307
101191.373837
101191.359532
101191.346854
101191.337831
101191.325226
101179.094759
101178.810274
101178.590186
101178.419448
101178.286668
101178.183193
101178.102513
101178.039808
101177.991644
101177.95575
101177.930806
101177.915812
101177.90813
101177.901904
101177.89313
101177.882261
101177.870528
101177.859531
101177.85144
101177.83886
101164.964678
101164.787708
101164.654947
101164.556037
101164.482735
101164.428674
101164.389129
101164.36077
101164.341467
101164.330098
101164.326201
101164.329028
101164.335394
101164.339582
101164.33896
101164.334428
101164.327323
101164.319484
101164.313302
101164.301278
101150.581606
101150.558356
101150.549845
101150.552425
101150.562558
101150.57736
101150.594817
101150.613805
101150.634045
101150.655938
101150.680082
101150.706075
101150.730501
101150.74846
101150.758757
101150.762684
101150.761821
101150.758314
101150.754836
101150.743905
101136.095404
101136.247133
101136.381366
101136.501123
101136.60786
101136.702541
101136.786216
101136.86026
101136.926464
101136.98687
101137.043171
101137.095333
101137.140069
101137.173799
101137.19666
101137.210324
101137.216694
101137.21825
101137.217987
101137.208611
101121.645981
101121.976373
101122.257641
101122.498724
101122.705834
101122.883737
101123.036557
101123.168198
101123.282512
101123.383128
101123.472754
101123.551711
101123.617214
101123.667276
101123.703169
101123.726953
101123.740874
101123.747747
101123.7509
101123.743413
101107.353593
101107.856363
101108.279476
101108.637532
101108.941376
101109.19948
101109.418958
101109.606137
101109.766808
101109.90604
101110.027412
101110.131597
101110.21664
101110.282213
101110.330494
101110.363922
101110.38507
101110.397056
101110.403526
101110.398118
101093.336159
101093.993604
101094.543481
101095.005699
101095.395448
101095.72464
101096.003123
101096.239403
101096.440968
101096.614095
101096.763046
101096.888838
101096.990605
101097.069546
101097.128519
101097.170309
101097.197759
101097.21423
101097.223645
101097.220354
101079.712801
101080.491697
101081.141285
101081.68537
101082.142546
101082.527455
101082.852112
101083.126738
101083.36012
101083.559415
101083.729308
101083.871161
101083.985314
101084.074218
101084.141198
101084.189304
101084.221567
101084.2415
101084.253227
101084.251948
101066.583839
101067.437836
101068.149727
101068.745072
101069.244434
101069.664118
101070.017493
101070.315843
101070.56873
101070.783778
101070.965792
101071.116462
101071.237291
101071.331619
101071.403027
101071.454713
101071.489785
101071.511794
101071.524967
101071.525447
101054.015407
101054.891249
101055.621682
101056.232107
101056.743604
101057.173011
101057.534139
101057.838606
101058.096178
101058.31448
101058.498117
101058.649059
101058.76977
101058.864077
101058.935611
101058.987572
101059.023018
101059.045409
101059.058951
101059.060799
101042.043162
101042.881841
101043.582434
101044.168025
101044.658507
101045.069974
101045.415687
101045.706816
101045.952722
101046.160532
101046.334325
101046.476242
101046.589376
101046.677647
101046.744534
101046.793081
101046.826162
101046.847014
101046.859695
101046.862378
101030.66761
101031.404576
101032.023926
101032.543169
101032.978549
101033.343802
101033.650492
101033.908517
101034.126201
101034.309633
101034.462053
101034.585598
101034.683581
101034.759668
101034.816997
101034.858306
101034.886158
101034.903447
101034.913952
101034.916816
101019.824723
101020.401833
101020.893757
101021.309578
101021.659371
101021.952979
101022.199283
101022.406241
101022.58059
101022.726911
101022.847371
101022.943904
101023.019643
101023.077737
101023.120825
101023.151214
101023.171055
101023.182794
101023.189822
101023.192126
101009.373275
101009.760637
101010.096961
101010.3844
101010.626636
101010.829317
101010.998444
101011.139846
101011.258403
101011.356922
101011.43643
101011.498503
101011.545779
101011.58072
101011.605365
101011.621497
101011.630779
101011.63513
101011.637461
101011.63842
100999.169404
100999.359735
100999.527929
100999.672681
100999.792869
100999.890747
100999.969932
101000.034335
101000.086934
101000.12872
101000.159666
101000.180861
101000.194234
101000.201466
101000.203922
101000.202797
101000.199208
101000.194493
101000.191003
101000.189818
100989.110346
100989.105352
100989.097572
100989.087888
100989.073055
100989.053288
100989.030579
100989.007182
100988.984159
100988.960729
100988.935901
100988.910106
100988.884391
100988.859574
100988.836276
100988.815034
100988.796364
100988.78097
100988.770565
100988.766359
100979.173994
100978.95176
100978.744324
)
;

boundaryField
{
    emptyPatch
    {
        type            empty;
    }
    minY
    {
        type            calculated;
        value           nonuniform List<scalar> 
40
(
101473.863844
101470.479263
101469.933529
101469.286316
101468.647416
101468.046526
101467.488964
101466.980855
101466.527141
101466.125777
101465.774346
101465.469317
101465.205821
101464.979248
101464.785749
101464.622149
101464.485868
101464.374909
101464.287856
101464.223758
101464.182997
101464.165432
101464.168707
101464.190262
101464.228249
101464.281417
101464.349013
101464.430687
101464.526416
101464.636462
101464.761361
101464.902015
101465.059915
101465.237509
101465.438198
101465.663913
101465.911478
101466.186306
101466.558549
101470.310254
)
;
    }
    maxY
    {
        type            calculated;
        value           nonuniform List<scalar> 0();
    }
    water_to_cooler
    {
        type            calculated;
        value           nonuniform List<scalar> 
37
(
101463.770254
101446.09746
101431.897995
101418.223643
101404.679916
101391.211773
101377.778568
101364.366129
101350.969243
101337.588113
101324.226169
101310.888735
101297.581088
101284.30589
101271.060511
101257.835206
101244.613006
101231.371753
101218.088086
101204.742632
101191.325226
101177.83886
101164.301278
101150.743905
101137.208611
101123.743413
101110.398118
101097.220354
101084.251948
101071.525447
101059.060799
101046.862378
101034.916816
101023.192126
101011.63842
101000.189818
100988.766359
)
;
    }
    water_to_heater
    {
        type            calculated;
        value           nonuniform List<scalar> 
61
(
101468.414721
101451.256245
101448.667406
101433.290167
101430.760049
101418.247017
101415.716902
101403.145582
101389.693102
101378.821228
101375.905937
101365.797553
101362.87813
101352.830576
101349.891323
101339.885035
101326.580555
101313.464145
101310.257518
101295.102058
101291.990708
101275.730114
101272.950203
101263.217643
101252.249831
101245.679747
101243.150312
101234.735745
101232.179165
101224.837569
101222.308389
101212.381676
101200.958568
101189.623242
101187.065701
101174.844733
101172.294321
101158.557822
101155.999207
101141.182735
101121.551895
101101.811318
101098.870471
101081.774387
101078.923295
101064.664544
101061.94923
101051.057398
101040.415413
101033.009534
101030.526838
101023.858463
101021.445728
101014.133678
101011.750637
101004.265246
100994.253973
100984.999435
100982.745115
100973.30309
100971.300276
)
;
    }
    procBoundary2to3
    {
        type            processor;
        value           nonuniform List<scalar> 
41
(
100965.710599
100967.335103
100969.368867
100969.821463
100969.774981
100969.862993
100969.954204
100969.741044
100969.645739
100969.655295
100969.648619
100969.615975
100969.500997
100969.170359
100969.062794
100969.227182
100969.435326
100969.726014
100969.887517
100969.742155
100978.557969
100978.388084
100978.233126
100978.093436
100977.969332
100977.859604
100977.761585
100977.673193
100977.59391
100977.523677
100977.462326
100977.409613
100977.365332
100977.329323
100977.301606
100977.283186
100977.275134
100969.356889
100968.85845
100978.557969
100968.403311
)
;
    }
}


// ************************************************************************* //
