/*--------------------------------*- C++ -*----------------------------------*\
| =========                 |                                                 |
| \\      /  F ield         | OpenFOAM: The Open Source CFD Toolbox           |
|  \\    /   O peration     | Version:  2312                                  |
|   \\  /    A nd           | Website:  www.openfoam.com                      |
|    \\/     M anipulation  |                                                 |
\*---------------------------------------------------------------------------*/
FoamFile
{
    version     2.0;
    format      ascii;
    arch        "LSB;label=32;scalar=64";
    class       volScalarField;
    location    "0.01/water";
    object      nut.gas;
}
// * * * * * * * * * * * * * * * * * * * * * * * * * * * * * * * * * * * * * //

dimensions      [0 2 -1 0 0 0 0];

internalField   nonuniform List<scalar> 
750
(
3.16573493272e-07
2.43386717676e-07
1.9543115864e-07
1.62435597782e-07
1.4493374344e-07
1.43527608238e-07
1.45395613414e-07
1.39765741778e-07
1.33515025401e-07
1.35316432517e-07
1.45472470644e-07
1.65995740956e-07
1.97871390898e-07
2.33483173566e-07
2.48756808431e-07
3.6074177556e-07
3.58764298588e-07
3.29662735145e-07
3.17826209203e-07
3.04538828278e-07
2.69601651328e-07
2.12958131264e-07
1.72133069335e-07
1.44243114616e-07
1.30158807036e-07
1.33018979404e-07
1.42697363617e-07
1.44299450379e-07
1.40355377721e-07
1.41044804596e-07
1.46491121655e-07
1.57977810015e-07
1.78920597117e-07
2.12881752484e-07
2.56465766864e-07
2.85076983285e-07
5.10597363849e-07
6.52534727172e-07
6.21100967483e-07
5.7457549824e-07
2.31899838177e-07
1.78445291035e-07
1.4175751734e-07
1.15672227032e-07
9.86936043974e-08
9.01836651157e-08
9.16662005873e-08
1.03452969565e-07
1.22671756352e-07
1.46365324018e-07
1.72554215349e-07
2.001108545e-07
2.2748770184e-07
2.48304609261e-07
2.47298753554e-07
2.30719855428e-07
2.19066511154e-07
2.08108911708e-07
1.9640893438e-07
1.83649307421e-07
2.36091056574e-07
1.80706516866e-07
1.43928886244e-07
1.16783529831e-07
9.89319141656e-08
8.76830680552e-08
8.33759181285e-08
8.5361204382e-08
9.29395082974e-08
1.04499702508e-07
1.18332044293e-07
1.32913917459e-07
1.46962412865e-07
1.59427546553e-07
1.70373121813e-07
1.80511945628e-07
1.87745536127e-07
1.90646963787e-07
1.88063245144e-07
1.78381597105e-07
2.64587962328e-07
2.08250189107e-07
1.6709603198e-07
1.37187645381e-07
1.17002415531e-07
1.04835200991e-07
1.00701791682e-07
1.0405475306e-07
1.13317541561e-07
1.26062961361e-07
1.39668324135e-07
1.52187461384e-07
1.63111112285e-07
1.72481360405e-07
1.80655339923e-07
1.87127380482e-07
1.90776506358e-07
1.90676330164e-07
1.860536356e-07
1.75854508627e-07
3.16181947142e-07
2.4216308522e-07
1.94319168321e-07
1.62100728853e-07
1.48149287701e-07
1.54715259233e-07
1.61460529006e-07
1.56278537531e-07
1.52949516855e-07
1.58600824614e-07
1.73053633467e-07
1.98757889787e-07
2.3505456004e-07
2.63710910942e-07
3.56395809098e-07
3.61276745834e-07
3.40425230606e-07
3.18445319261e-07
3.05210875697e-07
2.88549748898e-07
2.680660122e-07
2.1109822624e-07
1.70660669422e-07
1.44216686695e-07
1.35239887507e-07
1.48830943978e-07
1.66386732383e-07
1.69080420576e-07
1.65623528541e-07
1.67838417916e-07
1.7512394882e-07
1.89674227696e-07
2.17016050567e-07
2.6012315699e-07
3.04374780163e-07
4.40798417269e-07
6.90865830794e-07
6.50049830152e-07
6.08695361862e-07
5.61451609073e-07
2.63762085223e-07
1.83711960633e-07
1.54247947452e-07
1.25026829777e-07
1.09722061906e-07
1.02697734815e-07
1.06892107444e-07
1.19349094392e-07
1.41403932025e-07
1.67475492805e-07
1.93936053767e-07
2.19490272617e-07
2.43075723244e-07
2.60069540099e-07
2.56994933379e-07
2.40678574024e-07
2.27601377663e-07
2.15358587028e-07
2.02918861578e-07
1.89638846169e-07
2.68429849301e-07
1.87394390476e-07
1.63597555809e-07
1.33205101974e-07
1.16095381493e-07
1.04966152261e-07
1.02158074553e-07
1.0590864212e-07
1.15714826083e-07
1.29530398357e-07
1.45340343688e-07
1.61424638597e-07
1.76635946725e-07
1.89835438668e-07
1.96225102533e-07
1.96901127078e-07
1.98748878254e-07
2.00959417766e-07
1.99466875752e-07
1.91288921723e-07
2.71761987922e-07
2.12035999264e-07
1.70198842843e-07
1.40512016937e-07
1.20342171408e-07
1.08245062162e-07
1.0396985943e-07
1.07313215801e-07
1.16853009878e-07
1.30181031748e-07
1.44948385109e-07
1.59189860328e-07
1.71735294693e-07
1.82261675866e-07
1.91107065711e-07
1.9814988781e-07
2.02626376669e-07
2.03465139502e-07
1.9966966357e-07
1.90433418109e-07
3.12526850912e-07
2.38991533081e-07
1.91038448987e-07
1.56917242225e-07
1.37593968649e-07
1.37437207594e-07
1.59397412367e-07
1.78150815886e-07
1.82681790214e-07
1.87967838704e-07
2.00082802101e-07
2.20071239654e-07
2.47074494748e-07
2.66202801197e-07
3.64581172798e-07
3.59925241839e-07
3.39671247243e-07
3.2258787456e-07
3.10944461342e-07
2.93551339322e-07
2.74555125809e-07
2.11292100658e-07
1.70494129689e-07
1.4303886063e-07
1.30174081369e-07
1.38703797837e-07
1.68779569597e-07
1.92551093243e-07
1.99197666467e-07
2.0207884134e-07
2.09051303615e-07
2.22099272585e-07
2.46294006482e-07
2.8436125354e-07
3.20694161163e-07
4.686891365e-07
6.41321018227e-07
5.96152911882e-07
5.55430854012e-07
5.1257416562e-07
3.20146188089e-07
2.03314218909e-07
1.86063370555e-07
1.50274836315e-07
1.32218622738e-07
1.23884306549e-07
1.3004587448e-07
1.46131342324e-07
1.59907094857e-07
1.79919176127e-07
2.06751767661e-07
2.32197984739e-07
2.54305832103e-07
2.6946904041e-07
2.66189766467e-07
2.51271926486e-07
2.37275054198e-07
2.23322683222e-07
2.09365633486e-07
3.27075267616e-07
2.16926969992e-07
1.97103022651e-07
1.60770107157e-07
1.39499202426e-07
1.26912825132e-07
1.2420136704e-07
1.29585258437e-07
1.41815274184e-07
1.58449950384e-07
1.77204728675e-07
1.96190248312e-07
2.1396127177e-07
2.2952542331e-07
2.40088201897e-07
2.41742372542e-07
2.35009641611e-07
2.23617380168e-07
2.12410476112e-07
2.97797255482e-07
2.2965197447e-07
1.8395872573e-07
1.50370566012e-07
1.27717686969e-07
1.14320389109e-07
1.08864438929e-07
1.10034344782e-07
1.17452187711e-07
1.29844653112e-07
1.44964810191e-07
1.60527603682e-07
1.74754301399e-07
1.86815870537e-07
1.9671123684e-07
2.04208370356e-07
2.08431928003e-07
2.08602747783e-07
2.04474623887e-07
3.11575968301e-07
2.3797488426e-07
1.89577010734e-07
1.54619408262e-07
1.33981214562e-07
1.29835263085e-07
1.48733116985e-07
1.85136981203e-07
2.07249417618e-07
2.11315933658e-07
2.17146837014e-07
2.29967848873e-07
2.48177039718e-07
2.58151402021e-07
3.50998112856e-07
3.48850470448e-07
3.27827670287e-07
3.17092933432e-07
3.09597332216e-07
3.19913838992e-07
2.16174583777e-07
1.73686436455e-07
1.44900970006e-07
1.30871619591e-07
1.36759614427e-07
1.66331564618e-07
2.04285602832e-07
2.23221763921e-07
2.24984276514e-07
2.29375237121e-07
2.40014997996e-07
2.62527158903e-07
2.99441837863e-07
3.27466500285e-07
5.64879186218e-07
6.21212275386e-07
5.71198172152e-07
5.30454282781e-07
3.51509185671e-07
2.39524521877e-07
2.09341774578e-07
1.70959960047e-07
1.49995300579e-07
1.42147771616e-07
1.50364564845e-07
1.73636449564e-07
1.97473112375e-07
2.0583994317e-07
2.17640715792e-07
2.40258978223e-07
2.60343898691e-07
2.72912290845e-07
2.6924533577e-07
2.56272621261e-07
2.42652815266e-07
2.2842227443e-07
2.13863577183e-07
3.58051416059e-07
2.53357131604e-07
2.15277991e-07
1.76064628117e-07
1.52396677142e-07
1.40408094748e-07
1.39491873729e-07
1.47600263349e-07
1.62350448248e-07
1.81121698074e-07
2.01616473437e-07
2.22025103272e-07
2.40947856053e-07
2.57517756965e-07
2.70778456545e-07
2.7871407618e-07
2.78709085495e-07
2.69878889508e-07
2.53657658574e-07
3.03973831811e-07
2.26587458021e-07
1.8744167295e-07
1.48904780285e-07
1.27953466753e-07
1.160077923e-07
1.12968656113e-07
1.16536150619e-07
1.25545492122e-07
1.38329652522e-07
1.52735437956e-07
1.67513022494e-07
1.82123746429e-07
1.95704279316e-07
2.08308001063e-07
2.19121087275e-07
2.27845754872e-07
2.33464996784e-07
2.35475136745e-07
3.12098687256e-07
2.36573852834e-07
1.94234015015e-07
1.5576490034e-07
1.34657542141e-07
1.27272862062e-07
1.37618567102e-07
1.66820624734e-07
2.04439809836e-07
2.21970594664e-07
2.23379177475e-07
2.25840132678e-07
2.30923906421e-07
2.36369706308e-07
2.35330703383e-07
3.18909760505e-07
3.24521592267e-07
3.21736483571e-07
3.13798458354e-07
3.71039184136e-07
2.21393016698e-07
1.82935347666e-07
1.4870247975e-07
1.34105095337e-07
1.38857300491e-07
1.67264524865e-07
2.10018897953e-07
2.40619962284e-07
2.48796336264e-07
2.45343848043e-07
2.44568262878e-07
2.48221499878e-07
2.60645570406e-07
2.86166230319e-07
2.98371957376e-07
5.09175171263e-07
4.71518286966e-07
4.43917859211e-07
3.67738804412e-07
2.68847297435e-07
2.21484495839e-07
1.8237336368e-07
1.60767926167e-07
1.54075147287e-07
1.62525796246e-07
1.84153683001e-07
2.13377259148e-07
2.37788458832e-07
2.43219298085e-07
2.40285231057e-07
2.51032508112e-07
2.65336154269e-07
2.65995919614e-07
2.57273275071e-07
2.47477815922e-07
2.36240595429e-07
2.23533545819e-07
2.08857403602e-07
3.73649485199e-07
2.7731603552e-07
2.24933238237e-07
1.84585499253e-07
1.60873690917e-07
1.50650546923e-07
1.52186231371e-07
1.62517917166e-07
1.78746401805e-07
1.98282931911e-07
2.19107801995e-07
2.3975141546e-07
2.59063280517e-07
2.76045333811e-07
2.90426046001e-07
3.02275643572e-07
3.08667137053e-07
3.08198070031e-07
2.99531289083e-07
2.80261946538e-07
3.52799727364e-07
2.4062576553e-07
2.16352913756e-07
1.6746086674e-07
1.44531987547e-07
1.29953761021e-07
1.26364228948e-07
1.30350253506e-07
1.40425967103e-07
1.54851840043e-07
1.70582992654e-07
1.86490170909e-07
2.01804297879e-07
2.16461519549e-07
2.31191480459e-07
2.45508139191e-07
2.57039633555e-07
2.66122686633e-07
2.71554114117e-07
2.72615766374e-07
3.24301999242e-07
2.46006945062e-07
2.17527292387e-07
1.68014922423e-07
1.42942122433e-07
1.30780780269e-07
1.34733358183e-07
1.54259648935e-07
1.85908729007e-07
2.1831279122e-07
2.29314492655e-07
2.29217490979e-07
2.322056482e-07
2.35498005188e-07
2.3538148861e-07
2.31855781116e-07
3.11459790469e-07
3.17720303882e-07
3.18051952713e-07
3.08368705608e-07
3.97774849401e-07
2.30844921685e-07
2.04950293294e-07
1.61199912715e-07
1.43487342315e-07
1.43047094481e-07
1.63981795782e-07
2.01249984669e-07
2.4044100965e-07
2.57219001934e-07
2.5587225133e-07
2.52481217444e-07
2.5094698899e-07
2.52873862702e-07
2.59775772798e-07
2.73161091022e-07
2.92741635908e-07
4.24560737005e-07
3.96869405723e-07
3.77909555492e-07
3.7932080522e-07
2.83537028341e-07
2.29024086953e-07
1.89752384795e-07
1.68818918814e-07
1.63806065043e-07
1.73374212623e-07
1.94288551798e-07
2.21987586387e-07
2.5065206593e-07
2.7315127982e-07
2.79275106136e-07
2.70308289875e-07
2.6638411018e-07
2.71869924931e-07
2.69430750552e-07
2.5868530468e-07
2.4668111602e-07
2.3317151886e-07
2.17606176331e-07
3.81624264305e-07
2.86368573347e-07
2.30005252504e-07
1.8986080164e-07
1.67318872349e-07
1.59290913181e-07
1.63514423513e-07
1.7637426007e-07
1.94596576465e-07
2.15609521801e-07
2.37558433829e-07
2.59021382756e-07
2.78936841007e-07
2.96441512502e-07
3.10672791391e-07
3.21336337939e-07
3.2866374623e-07
3.30166441776e-07
3.24395315083e-07
3.10055889074e-07
4.04987379324e-07
2.43175051571e-07
2.2290871927e-07
1.74606763094e-07
1.54468862161e-07
1.44287469331e-07
1.45048977903e-07
1.52159677213e-07
1.65147824476e-07
1.82387416894e-07
1.9975382718e-07
2.17048343468e-07
2.34398974575e-07
2.51711838196e-07
2.70527657639e-07
2.89814451911e-07
3.04410838781e-07
3.13475280555e-07
3.15515673286e-07
3.09666910019e-07
3.45082239963e-07
2.57428532713e-07
2.36360951359e-07
1.81211527601e-07
1.53672640124e-07
1.38919611194e-07
1.41333462611e-07
1.5988001113e-07
1.90209301065e-07
2.19930761333e-07
2.2968238166e-07
2.32204042257e-07
2.38576741075e-07
2.46129424164e-07
2.5035417847e-07
2.51236547654e-07
3.43845047107e-07
3.55894429833e-07
3.56603824725e-07
3.44416684978e-07
4.109536494e-07
2.46882006507e-07
2.24424775959e-07
1.76747157607e-07
1.56794526845e-07
1.53475441599e-07
1.71267569106e-07
2.06522088073e-07
2.39981100126e-07
2.55254842989e-07
2.53766865453e-07
2.50260990344e-07
2.50227501651e-07
2.54904760658e-07
2.64829143781e-07
2.8110430572e-07
3.09718696422e-07
4.42161739635e-07
4.2539722846e-07
4.08561761159e-07
3.88454376098e-07
2.90653758572e-07
2.34412360001e-07
1.95230478379e-07
1.7544358065e-07
1.72151219913e-07
1.83410929765e-07
2.05205809792e-07
2.32578054202e-07
2.60255992636e-07
2.85013645459e-07
2.9878523163e-07
2.95362867172e-07
2.84744559646e-07
2.82249974066e-07
2.83844820225e-07
2.78015271635e-07
2.69798784606e-07
2.58609921243e-07
2.43580826283e-07
3.89951584834e-07
2.92160481741e-07
2.34942683252e-07
1.95098578191e-07
1.73925182649e-07
1.6785638952e-07
1.74370633868e-07
1.89336366507e-07
2.09352392764e-07
2.31797240494e-07
2.54924485932e-07
2.77484966048e-07
2.98635135052e-07
3.17760254841e-07
3.34225577536e-07
3.47355749988e-07
3.56229061888e-07
3.5947384665e-07
3.55468630091e-07
3.42296469222e-07
4.14176133427e-07
2.60858634788e-07
2.36785513942e-07
1.88259546056e-07
1.67731092504e-07
1.5846257584e-07
1.60629639022e-07
1.69249085413e-07
1.83629395409e-07
2.01486592174e-07
2.23350304174e-07
2.44710126451e-07
2.65195525906e-07
2.85471856274e-07
3.07109372744e-07
3.27472043478e-07
3.43246323199e-07
3.51372510198e-07
3.51940400439e-07
3.43596013967e-07
3.69469355933e-07
2.80206850957e-07
2.50948586086e-07
1.95258871486e-07
1.65748290316e-07
1.48443875669e-07
1.45932047511e-07
1.56162545443e-07
1.77805039836e-07
2.07388426878e-07
2.34234130103e-07
2.43931788819e-07
2.49347727522e-07
2.56236630564e-07
2.6185071374e-07
2.65179051928e-07
2.67940578244e-07
3.63423286602e-07
3.79483681287e-07
3.71961773312e-07
4.17724364695e-07
2.62539959401e-07
2.37238018739e-07
1.88856014123e-07
1.67656547186e-07
1.61556131648e-07
1.73359329839e-07
2.0124148115e-07
2.34134357544e-07
2.58560284233e-07
2.63076200752e-07
2.59162518297e-07
2.59197303725e-07
2.62382198427e-07
2.6973969251e-07
2.81081247279e-07
2.92040679485e-07
4.06515177608e-07
4.40136904736e-07
4.27042598364e-07
3.93587373959e-07
2.93647553037e-07
2.37014955251e-07
1.97635100479e-07
1.78373033453e-07
1.75804666433e-07
1.87417597932e-07
2.08888226961e-07
2.35864754726e-07
2.63717994215e-07
2.89065672059e-07
3.10412938743e-07
3.2147729962e-07
3.17935402836e-07
3.06677574649e-07
2.99084716382e-07
2.95295649478e-07
2.90262172944e-07
2.82472607295e-07
2.69395369856e-07
)
;

boundaryField
{
    emptyPatch
    {
        type            empty;
    }
    minY
    {
        type            calculated;
        value           nonuniform List<scalar> 0();
    }
    maxY
    {
        type            calculated;
        value           nonuniform List<scalar> 
20
(
3.93615744021e-07
2.93673641047e-07
2.37019337807e-07
1.97647952541e-07
1.78382235368e-07
1.75814951877e-07
1.87428417992e-07
2.0890066698e-07
2.3588021645e-07
2.63738780708e-07
2.89091487715e-07
3.10442657544e-07
3.21508299775e-07
3.17964990718e-07
3.06705930651e-07
2.99115919613e-07
2.95309766389e-07
2.90246005218e-07
2.82439200622e-07
2.69349898416e-07
)
;
    }
    maxX
    {
        type            nutkWallFunction;
        blending        stepwise;
        value           nonuniform List<scalar> 0();
    }
    water_to_heater
    {
        type            nutkWallFunction;
        blending        stepwise;
        value           uniform 0;
    }
    procBoundary3to0
    {
        type            processor;
        value           nonuniform List<scalar> 
20
(
2.6640556587e-07
2.09481753377e-07
1.68032896424e-07
1.38175972519e-07
1.17253504486e-07
1.03975382274e-07
9.82075945079e-08
9.98010603666e-08
1.0726904703e-07
1.17246816409e-07
1.27687948634e-07
1.38491873416e-07
1.49054919096e-07
1.5856582212e-07
1.66736336505e-07
1.7326637959e-07
1.77069129641e-07
1.77099651012e-07
1.72680567337e-07
1.62889602763e-07
)
;
    }
    procBoundary3to1
    {
        type            processor;
        value           uniform 1.10862435485e-07;
    }
    procBoundary3to2
    {
        type            processor;
        value           nonuniform List<scalar> 
39
(
2.3367989651e-07
8.2652526504e-08
7.80171777068e-08
7.54152615987e-08
1.21513987702e-07
2.51170411702e-07
9.10294771772e-08
9.58256395083e-08
9.32931635698e-08
1.39317484094e-07
1.94834767635e-07
2.48539991852e-07
1.94834767635e-07
2.00323758673e-07
1.95453432473e-07
2.92931444508e-07
4.89963629336e-07
1.98618532863e-07
2.28908734172e-07
2.34472133672e-07
2.98895984091e-07
4.17674998863e-07
4.17674998863e-07
1.0131662873e-07
1.24728234671e-07
1.53829660444e-07
1.69007370668e-07
2.17697032229e-07
1.06088536396e-07
1.48762421948e-07
1.7243952992e-07
1.90456759862e-07
2.30274952059e-07
1.19707876485e-07
1.7935787218e-07
1.9578884476e-07
2.17629741577e-07
2.48999009898e-07
1.43012951252e-07
)
;
    }
}


// ************************************************************************* //
