/*--------------------------------*- C++ -*----------------------------------*\
| =========                 |                                                 |
| \\      /  F ield         | OpenFOAM: The Open Source CFD Toolbox           |
|  \\    /   O peration     | Version:  2312                                  |
|   \\  /    A nd           | Website:  www.openfoam.com                      |
|    \\/     M anipulation  |                                                 |
\*---------------------------------------------------------------------------*/
FoamFile
{
    version     2.0;
    format      ascii;
    arch        "LSB;label=32;scalar=64";
    class       volScalarField;
    location    "0.72/water";
    object      alpha.gas_0;
}
// * * * * * * * * * * * * * * * * * * * * * * * * * * * * * * * * * * * * * //

dimensions      [0 0 0 0 0 0 0];

internalField   nonuniform List<scalar> 
1503
(
0.168907551464
0.102670024263
0.0294608454357
0.00754638754172
0.00145237110577
0.00022795427662
2.87356600925e-05
2.1636279357e-06
4.84837993781e-08
4.53996969096e-10
2.46872457227e-12
1.07093756974e-14
1e-15
1e-15
1e-15
1e-15
1e-15
1e-15
1e-15
1e-15
0.612039091973
0.2557785958
0.106531028789
0.0366318234023
0.0117351962874
0.00316257711932
0.000715536639242
0.000127120067133
1.32126932615e-05
3.25968514914e-07
1.23599232787e-09
2.22451290285e-12
3.83585891948e-15
1e-15
1e-15
1e-15
1e-15
1e-15
1e-15
1e-15
0.613304089033
0.339043959208
0.166357742531
0.0710407383981
0.0275484565085
0.00927392352423
0.002615125043
0.000594843848709
9.15277095336e-05
5.27944061864e-06
3.05443857688e-08
4.32080553122e-11
4.77357094225e-14
1.00078418515e-15
1e-15
1e-15
1e-15
1e-15
1e-15
1e-15
0.613303650933
0.417776241249
0.241805348838
0.122681842915
0.0551552207595
0.0213419034841
0.00688569954549
0.00180213683335
0.000345186720706
3.38116669138e-05
5.57238058745e-07
6.45176534181e-10
4.59519664976e-13
1.23206232289e-15
1e-15
1e-15
1e-15
1e-15
1e-15
1e-15
0.597972777418
0.465543741323
0.320865180587
0.194470457722
0.102861300207
0.0459425321558
0.0167266043475
0.0048123199575
0.00103359708723
0.000132732831707
5.1316255709e-06
9.90787604282e-09
5.28238891768e-12
3.30726829501e-15
1.0000362766e-15
1e-15
1e-15
1e-15
1e-15
1e-15
0.570306449901
0.483263829045
0.38220946535
0.272210928198
0.170311113462
0.090227470216
0.038632037485
0.0126637351145
0.0029941250666
0.000445109040781
2.76760818183e-05
1.90015120815e-07
9.90847104723e-11
3.74276027494e-14
1.00793690901e-15
1e-15
1e-15
1e-15
1e-15
1e-15
0.557576890958
0.488131953679
0.419778081643
0.337055979923
0.243202730758
0.151933011166
0.0784802607692
0.031257556526
0.00875731558069
0.00151867850063
0.000125510002515
2.44264871691e-06
1.6310682725e-09
5.6881146723e-13
1.16490434841e-15
1.00064581563e-15
1.00051039674e-15
1.00042507755e-15
1.00036385137e-15
1.00022943619e-15
0.557335994398
0.492885715036
0.439457857161
0.379539802988
0.303121177746
0.216612442466
0.13312409089
0.0658917484253
0.0235438190988
0.00519399660144
0.000565254037319
2.03340343863e-05
6.15219968706e-08
1.93584249955e-11
5.90529595343e-15
1.0023926774e-15
1.00108670816e-15
1.00087699331e-15
1.00072343839e-15
1.00041875663e-15
0.558195480805
0.493195419699
0.453242560073
0.407198344226
0.345861067856
0.271265651782
0.191163590771
0.114875602026
0.0529494428773
0.0157470624007
0.00238963709913
0.000135256545103
1.54385876923e-06
6.14062074716e-10
1.66717342675e-13
1.04028545335e-15
1.00213711016e-15
1.00158126892e-15
1.00118793967e-15
1.00070709763e-15
0.557295478861
0.490114499021
0.458188449889
0.421648830164
0.372646977052
0.311302464098
0.242273915809
0.168648725716
0.0962420641184
0.0382331771606
0.00828455751939
0.00072231836514
1.69038002521e-05
3.18311340303e-08
8.5980906145e-12
2.90275587624e-15
1.00413953735e-15
1.00309429954e-15
1.0021452744e-15
1.00135395879e-15
0.558145483492
0.480981540618
0.454210648628
0.423196598459
0.38616988718
0.338810240531
0.282066219961
0.216069448243
0.143351481067
0.0721076874188
0.0217730553827
0.00286641358283
0.00011221593043
6.88538666159e-07
2.89336242471e-10
7.23733230759e-14
1.01832474372e-15
1.00500999739e-15
1.00345482977e-15
1.00226919445e-15
0.557119724472
0.465126251604
0.44053317471
0.418344172742
0.392808728347
0.357999199904
0.310902593008
0.251598260639
0.183134469815
0.109343418381
0.0435204400681
0.00826665186386
0.000502474232154
6.29340622541e-06
5.44282837468e-09
1.39699266845e-12
1.23290837564e-15
1.00546641569e-15
1.00384084894e-15
1.00262432644e-15
0.556672927397
0.448186879773
0.423054936343
0.411761130798
0.397761079359
0.372256794859
0.330865681481
0.275900458249
0.213080403869
0.143695961628
0.0707042760731
0.0183365857174
0.00168603433558
3.74219657142e-05
8.47650580546e-08
1.77708731938e-11
2.09626221317e-15
1.00465047018e-15
1.00334825133e-15
1.00234641899e-15
0.550895996832
0.442086248013
0.424583508572
0.416640325399
0.407875328796
0.385672022343
0.345820834252
0.29477462835
0.239342069298
0.177324018819
0.103020160692
0.0350892969068
0.00481122487728
0.000187367343555
1.34694332421e-06
8.46704490752e-12
1.47219478764e-15
1.00178044206e-15
1.0016474137e-15
1.00125862613e-15
0.534769856854
0.453232643357
0.445367735842
0.439960556064
0.428476646756
0.401380241551
0.361112115678
0.315656304765
0.268794056976
0.215599193829
0.145075881466
0.0642176378329
0.0133329967562
0.000944321038138
1.68103808502e-05
4.2300898113e-09
2.60775200188e-14
1.0082114793e-15
1.00001568735e-15
1.00003118737e-15
0.550614923387
0.497389961242
0.490749139532
0.480826058429
0.457833412179
0.421583094812
0.381123771633
0.341867426756
0.302974208963
0.259157869612
0.198862940245
0.11425528304
0.03638025587
0.00460669925669
0.000171501630929
1.03635612059e-06
3.28073211314e-12
1.79263523494e-15
1e-15
1e-15
0.610112727318
0.551599089285
0.534987709571
0.519329184932
0.48793749153
0.444335937764
0.401324709229
0.363728590421
0.330327598636
0.296188737138
0.252894876916
0.182270715188
0.0861244155175
0.0186897048367
0.00132891738331
2.19924641904e-05
8.22178430818e-09
1.16387185581e-13
1.02705248718e-15
1e-15
0.618675949609
0.570242155409
0.55549934269
0.53909216626
0.506151351345
0.458731847608
0.410305919055
0.368060847446
0.334651926424
0.312551733723
0.290157081358
0.246071539394
0.157203860412
0.0542865391004
0.00687024728719
0.000228937230447
1.23481125867e-06
2.70302649665e-11
8.68708439125e-15
1e-15
0.615342402539
0.571540228021
0.566156388447
0.548104020513
0.511909581698
0.461351071617
0.410337253039
0.366089757892
0.330550479914
0.310038423293
0.306816184638
0.289638037062
0.222874427279
0.108305345483
0.0225167818731
0.0013772218965
1.78928775845e-05
7.21706575606e-09
8.39170383794e-13
1.29705846415e-15
0.619816826933
0.569126221103
0.568941514964
0.551896117933
0.512434511458
0.459519590352
0.405587737725
0.356311164171
0.316421428064
0.301248602293
0.30612580838
0.306048048572
0.263934948114
0.158147461551
0.0480074162027
0.00481982343472
0.000109795968846
3.3461037739e-07
5.89907868804e-11
2.37864935525e-14
0.615342402539
0.562268706524
0.567393189141
0.550001256782
0.507921094395
0.44982537369
0.389721832155
0.333509996437
0.298725068947
0.296917692403
0.300839062384
0.305970312725
0.280020714116
0.189402121144
0.0731594043229
0.0105684340629
0.000367188108447
2.1989366109e-06
1.37539096507e-09
6.34212364813e-13
0.619733620335
0.551179126217
0.557835627132
0.538942773059
0.492090852061
0.427470376086
0.360559478038
0.304669905575
0.296917692403
0.296526273706
0.296878201238
0.302378449255
0.285521238624
0.206669178736
0.0911630604503
0.0166928402538
0.000790945261282
6.85973529741e-06
8.31889936916e-09
5.2015302912e-12
0.615342402539
0.538074358139
0.538096057055
0.513973722806
0.462583024596
0.393518298573
0.32486024858
0.296917692403
0.296389321773
0.296878201238
0.296256481791
0.296835997317
0.29064941611
0.220743812477
0.105139713743
0.022654415312
0.00135220147398
1.49877582703e-05
2.58486312762e-08
1.96632063352e-11
0.618739803214
0.525802958897
0.516075858904
0.481581625384
0.425814786763
0.357759538817
0.300246566257
0.29658761043
0.296917692403
0.295941685683
0.296878201238
0.302197545473
0.307302735318
0.240903825808
0.122759461781
0.0308004237891
0.00230036077237
3.20149303672e-05
6.82173666828e-08
5.33847436379e-11
0.615342402539
0.514182064994
0.496086483988
0.452776364304
0.39392322371
0.332161022025
0.296911245451
0.296968060976
0.295941685683
0.296917692403
0.295835383788
0.338098582479
0.349201494281
0.277600422012
0.155821549224
0.047128433032
0.00462020549075
8.62845683052e-05
2.29536324885e-07
1.64339232067e-10
0.616543985994
0.50003621883
0.476727659141
0.432746520518
0.377593338963
0.323282727619
0.297045244235
0.296222675895
0.296968060976
0.295879084065
0.325600186255
0.359670052296
0.35891603822
0.328268631658
0.216927189039
0.081510616086
0.0109372874004
0.000303086660112
1.22009146179e-06
6.74180367656e-10
0.61524848239
0.4803258827
0.457368583446
0.421589345615
0.374511918199
0.323758882823
0.296819690796
0.297045244235
0.295957991747
0.316484360872
0.359434012411
0.35891603822
0.359601540599
0.35891603822
0.285586383908
0.139271171101
0.026628945856
0.00118223776707
8.49737796396e-06
2.78570403876e-09
0.599481747413
0.459166026901
0.445925373256
0.420704997133
0.378674676928
0.333464208693
0.305619387965
0.306502779193
0.323439838941
0.357232263852
0.35891603822
0.359552367817
0.35891603822
0.359338708536
0.33436919923
0.208060433636
0.0573406493368
0.00424709725067
5.81784825008e-05
5.59702151952e-08
0.560405161019
0.458091026202
0.456873807155
0.439329198665
0.402704689317
0.36356338083
0.344474241414
0.350165718068
0.356472818918
0.355267210336
0.350990894831
0.356147861536
0.359316557273
0.35891603822
0.353753784713
0.262422824751
0.102688768474
0.0127960270374
0.000337603427581
1.24275649627e-06
0.543958870334
0.497410412188
0.512087538579
0.500123367768
0.453700572611
0.40845390805
0.387296958202
0.377090100224
0.358258890613
0.338153224544
0.323398537948
0.332097165774
0.351637900126
0.359058003281
0.353853713623
0.295385437547
0.154647845139
0.0311450646957
0.00149967150974
1.25609734377e-05
0.583635451371
0.59521569711
0.607953719495
0.590361671967
0.521935478692
0.456913176975
0.41653232425
0.385774452987
0.350483639186
0.314180926088
0.294632381813
0.302094131781
0.326972075234
0.347031524821
0.347370664178
0.31342300051
0.204703494979
0.062270721703
0.00516915744923
8.11041554597e-05
0.672914935193
0.670907283328
0.673011789134
0.66185600495
0.59527266887
0.51481080723
0.448163863556
0.397220915501
0.348715107436
0.300884283893
0.280656928615
0.284099568208
0.299861340597
0.321455389742
0.33330428713
0.322246572151
0.250693020644
0.106325882158
0.0143685470116
0.000403958131218
0.675388370686
0.676386933323
0.675175821964
0.675601223846
0.649965611711
0.576678216107
0.490896273808
0.419333073036
0.355016955302
0.299790012607
0.276436966368
0.276893575576
0.283672021779
0.297723355836
0.317281023531
0.329829056992
0.290039189536
0.159001847521
0.0329232208602
0.00160222922799
0.680725834849
0.67528396573
0.677161805396
0.675150326656
0.674860939318
0.619970588545
0.531273683602
0.445425676901
0.3670201267
0.30130299025
0.275741812247
0.275614632747
0.276671686449
0.283461013472
0.304724215892
0.337148853343
0.321831115982
0.212764017031
0.062616854339
0.00500695752624
0.675489150061
0.677051288708
0.675278914287
0.676931562086
0.675150326656
0.637377449115
0.553707951946
0.461762350285
0.374431955493
0.301962379286
0.275620134758
0.275741812247
0.275404928233
0.276562757153
0.296132313688
0.34226041946
0.345704756285
0.259222823095
0.0994180232013
0.0122221326378
0.681305304321
0.675489150061
0.677022913309
0.675278914287
0.67585513233
0.640406953543
0.558581612997
0.46478662418
0.374149065303
0.299362270735
0.275741812247
0.275229803551
0.275741812247
0.275212981473
0.288952558148
0.343835037485
0.363135116569
0.289745785906
0.134022854818
0.0234470908386
0.675792468424
0.676407696922
0.675489150061
0.676300871989
0.675278914287
0.63615660931
0.553393149184
0.458698313565
0.364921227208
0.291130575445
0.275467518544
0.275741812247
0.274834275394
0.275741812247
0.284157700269
0.345768616804
0.366078413996
0.304036169261
0.159624032638
0.0366756097116
0.681648579605
0.675780697913
0.676369351428
0.675489150061
0.668325555921
0.615101786229
0.530163410739
0.435128269283
0.341681754317
0.28035173803
0.275741812247
0.274958454637
0.275741812247
0.274515890853
0.283575968723
0.347812587062
0.366175540944
0.309762477787
0.176689627011
0.0498458725213
1e-15
1e-15
1e-15
1e-15
1e-15
1e-15
1e-15
1e-15
1e-15
1e-15
1e-15
1e-15
1e-15
1e-15
1e-15
1e-15
1e-15
1e-15
1e-15
1e-15
1e-15
1e-15
1e-15
1e-15
1e-15
1e-15
1e-15
1e-15
1e-15
1e-15
1e-15
1e-15
1e-15
1e-15
1e-15
1e-15
1e-15
1e-15
1e-15
1e-15
1e-15
1e-15
1e-15
1e-15
1e-15
1e-15
1e-15
1e-15
1e-15
1e-15
1e-15
1e-15
1e-15
1e-15
1e-15
1e-15
1e-15
1e-15
1e-15
1e-15
1e-15
1e-15
1e-15
1e-15
1e-15
1e-15
1e-15
1e-15
1e-15
1e-15
1e-15
1e-15
1e-15
1e-15
1e-15
1e-15
1e-15
1e-15
1e-15
1e-15
1e-15
1e-15
1e-15
1e-15
1e-15
1e-15
1e-15
1e-15
1e-15
1e-15
1e-15
1e-15
1e-15
1e-15
1e-15
1.00002346872e-15
1.00242307104e-15
1e-15
1e-15
1e-15
1e-15
1e-15
1e-15
1e-15
1e-15
1e-15
1e-15
1e-15
1e-15
1e-15
1e-15
1e-15
1e-15
1e-15
1e-15
1e-15
1.00243171271e-15
1e-15
1e-15
1.0315012371e-15
1.00023314252e-15
1.00040721715e-15
1.00048440554e-15
1.00052464798e-15
1.00058229748e-15
1.00066286383e-15
1.00078348476e-15
1.00093463869e-15
1.00109549554e-15
1.00119818124e-15
1.00114276484e-15
1.00087967241e-15
1.00023311452e-15
1e-15
1.00016329916e-15
1.00640399931e-15
1.00244035438e-15
1e-15
1e-15
1.07400340977e-15
1.00044318899e-15
1.00080125235e-15
1.00093245255e-15
1.0010101828e-15
1.0011280645e-15
1.0013067439e-15
1.00157273418e-15
1.00192205593e-15
1.00226844222e-15
1.00245358701e-15
1.00226948956e-15
1.00132887746e-15
1.00030131881e-15
1.00003128051e-15
1.00190998875e-15
1.00743743375e-15
1.00002004153e-15
1e-15
1e-15
1.11275137064e-15
1.00071879554e-15
1.00115375414e-15
1.0012289376e-15
1.00129954957e-15
1.00142949546e-15
1.00166235549e-15
1.00196274143e-15
1.0024546112e-15
1.00290363962e-15
1.00314638323e-15
1.00265102868e-15
1.00122467246e-15
1.00033885086e-15
1.00054270185e-15
1.00402176889e-15
1.00743740208e-15
1e-15
1e-15
1e-15
1.14875793375e-15
1.00122840663e-15
1.00155421571e-15
1.00153756149e-15
1.0015535461e-15
1.00164048346e-15
1.00181844411e-15
1.00219885239e-15
1.00273408053e-15
1.00389927972e-15
1.00334874513e-15
1.00255351138e-15
1.0009773679e-15
1.00043826094e-15
1.00142910185e-15
1.00874467149e-15
1.00724433221e-15
1e-15
1e-15
1e-15
1.18068541034e-15
1.00186493166e-15
1.00186408958e-15
1.00175253042e-15
1.00167439233e-15
1.00168768859e-15
1.00180982224e-15
1.0021981006e-15
1.00301770069e-15
1.00479009311e-15
1.00332994259e-15
1.00224226062e-15
1.00075750963e-15
1.00063152823e-15
1.00263712409e-15
1.01031611463e-15
1.00550447016e-15
1e-15
1e-15
1e-15
1.20902952445e-15
1.00205162311e-15
1.00189086425e-15
1.00172337096e-15
1.00161517158e-15
1.00159698688e-15
1.00166191524e-15
1.00206219241e-15
1.00347803452e-15
1.00476219825e-15
1.00333137458e-15
1.00169188939e-15
1.00062089664e-15
1.00092408976e-15
1.0039192363e-15
1.0103159506e-15
1.00042802429e-15
1e-15
1e-15
1e-15
1.23348703897e-15
1.00179715954e-15
1.00157758122e-15
1.00139309626e-15
1.00127902982e-15
1.00124029104e-15
1.00126265385e-15
1.00177819802e-15
1.00422570493e-15
1.0047798517e-15
1.00348326527e-15
1.00107511316e-15
1.00053889653e-15
1.00127850547e-15
1.00521110109e-15
1.01007142487e-15
1e-15
1e-15
1.00053553595e-15
1e-15
1.2544341462e-15
1.00094578172e-15
1.00079229817e-15
1.00071069254e-15
1.00066965284e-15
1.00066599567e-15
1.00070191028e-15
1.00163749731e-15
1.0046982044e-15
1.00476219825e-15
1.00372558089e-15
1.00073587813e-15
1.00049441602e-15
1.0019091414e-15
1.00904161502e-15
1.00849611675e-15
1e-15
1e-15
1.00102795851e-15
1e-15
1.27301704361e-15
1.0000137652e-15
1.0000051058e-15
1.00001780487e-15
1.00005479609e-15
1.00010870192e-15
1.00018607709e-15
1.00178382885e-15
1.00456715994e-15
1.0047591747e-15
1.00376802057e-15
1.00072010449e-15
1.00049115289e-15
1.00252400801e-15
1.01022691997e-15
1.00546198897e-15
1e-15
1e-15
1.00484811053e-15
1e-15
1.29056459955e-15
1e-15
1e-15
1e-15
1e-15
1e-15
1e-15
1.00246543531e-15
1.00441206712e-15
1.00462317704e-15
1.00384733481e-15
1.00102327654e-15
1.00061647035e-15
1.00449205775e-15
1.01022165505e-15
1.00121693199e-15
1e-15
1e-15
1.01872399349e-15
1e-15
1.30775832153e-15
1e-15
1e-15
1e-15
1e-15
1e-15
1.00063455984e-15
1.0036626228e-15
1.00460805099e-15
1.00475266161e-15
1.00423764692e-15
1.00196606455e-15
1.00132676668e-15
1.00949759851e-15
1.0096959766e-15
1e-15
1e-15
1e-15
1.01851103672e-15
1e-15
1.32456511561e-15
1e-15
1e-15
1e-15
1e-15
1.00020934464e-15
1.00328136787e-15
1.00537549211e-15
1.00560212721e-15
1.00561167957e-15
1.00524320178e-15
1.00381339635e-15
1.00631694283e-15
1.01135783002e-15
1.00841952399e-15
1e-15
1e-15
1e-15
1.01879987769e-15
1e-15
1.34077560318e-15
1e-15
1e-15
1.00012927223e-15
1.00158121449e-15
1.00455609979e-15
1.00724780714e-15
1.00784946795e-15
1.00769197153e-15
1.00745093114e-15
1.00701921035e-15
1.00621730209e-15
1.01125142632e-15
1.01135193781e-15
1.00665631941e-15
1e-15
1e-15
1.00030664999e-15
1.01851103672e-15
1e-15
1.35656926184e-15
1.00306081379e-15
1.00663160425e-15
1.00814624979e-15
1.00932286968e-15
1.01058742503e-15
1.01099265406e-15
1.01074920349e-15
1.01029816972e-15
1.00983041701e-15
1.00936157294e-15
1.01104799973e-15
1.0120178622e-15
1.01129766874e-15
1.00446650456e-15
1e-15
1e-15
1.00080794222e-15
1.01872899017e-15
1e-15
1.3724955722e-15
1.02217958804e-15
1.01869433784e-15
1.01690215648e-15
1.01535564001e-15
1.01409589503e-15
1.01313931077e-15
1.01241345839e-15
1.01196815128e-15
1.01178458657e-15
1.01178881098e-15
1.0123500511e-15
1.01220284597e-15
1.01106513945e-15
1.00081745776e-15
1e-15
1e-15
1.00119255836e-15
1.01851103672e-15
1e-15
1.388980044e-15
1.10145740495e-15
1.02257687529e-15
1.01932076766e-15
1.0167154225e-15
1.01471048266e-15
1.01339299656e-15
1.01316890811e-15
1.01282035868e-15
1.01240525831e-15
1.01238291407e-15
1.01236035878e-15
1.01231391146e-15
1.01043814997e-15
1e-15
1e-15
1e-15
1.00128153184e-15
1.01864498858e-15
1e-15
1.40588021256e-15
1.38880093853e-15
1.02185492594e-15
1.01869603088e-15
1.01599667809e-15
1.01381967898e-15
1.01240473793e-15
1.01394446907e-15
1.01368833523e-15
1.01207908545e-15
1.01236035878e-15
1.01233789979e-15
1.01224929875e-15
1.00841948594e-15
1e-15
1e-15
1e-15
1.00118175504e-15
1.01851103672e-15
1e-15
1.42255202391e-15
1.927981726e-15
1.01734613264e-15
1.0150154931e-15
1.01259428317e-15
1.01067290154e-15
1.01127672281e-15
1.01616858514e-15
1.0180774705e-15
1.01129873351e-15
1.01135932679e-15
1.01231148766e-15
1.01175801449e-15
1.00358703778e-15
1e-15
1e-15
1e-15
1.00087213764e-15
1.01856144622e-15
1e-15
1.43839790009e-15
3.040306225e-15
1.00985775499e-15
1.00917044948e-15
1.00773743481e-15
1.0066123618e-15
1.01181394696e-15
1.02062655372e-15
1.02344668643e-15
1.011451425e-15
1.00999554024e-15
1.01168460145e-15
1.00987806172e-15
1e-15
1e-15
1e-15
1e-15
1.00042698296e-15
1.01851103672e-15
1e-15
1.45336286723e-15
4.96562364978e-15
1.0040084384e-15
1.00449304996e-15
1.00402287631e-15
1.00404559228e-15
1.01452930921e-15
1.02344668643e-15
1.02353177213e-15
1.01315138902e-15
1.00928689284e-15
1.00969851286e-15
1.006236867e-15
1e-15
1e-15
1e-15
1e-15
1.00002224335e-15
1.01760457101e-15
1e-15
1.46786571153e-15
5.11627437732e-15
1.00123878264e-15
1.00158388307e-15
1.00158277976e-15
1.00366438093e-15
1.01759102477e-15
1.02338678201e-15
1.02344668643e-15
1.01724237046e-15
1.00900293112e-15
1.00704589245e-15
1.0009139242e-15
1e-15
1e-15
1e-15
1e-15
1e-15
1.01575651551e-15
1e-15
1.48236865429e-15
1.77014213068e-14
1e-15
1.00008979511e-15
1.00019129328e-15
1.00447539987e-15
1.01848693887e-15
1.02315605023e-15
1.02345813221e-15
1.02301637878e-15
1.01054856223e-15
1.00486213644e-15
1e-15
1e-15
1e-15
1e-15
1e-15
1e-15
1.01415719286e-15
1e-15
1.49709307398e-15
6.52472388338e-13
1e-15
1e-15
1e-15
1.00699581051e-15
1.01809441701e-15
1.02282598271e-15
1.02341023999e-15
1.02338933903e-15
1.01368415805e-15
1.00342515842e-15
1e-15
1e-15
1e-15
1e-15
1e-15
1e-15
1.01330539777e-15
1e-15
1.51209790496e-15
1.38707411788e-10
1e-15
1e-15
1e-15
1.00937198554e-15
1.01746393499e-15
1.02272421627e-15
1.02321238948e-15
1.02316311647e-15
1.01477189965e-15
1.00252405485e-15
1e-15
1e-15
1e-15
1e-15
1e-15
1e-15
1.0133455629e-15
1e-15
1.52748544878e-15
2.71139988099e-08
1e-15
1e-15
1e-15
1.0108368717e-15
1.01756218794e-15
1.02258705233e-15
1.02303345118e-15
1.02291962829e-15
1.01476239277e-15
1.00202521039e-15
1e-15
1e-15
1e-15
1e-15
1e-15
1e-15
1.01446388841e-15
1e-15
1.54344168196e-15
8.57054299816e-07
1e-15
1e-15
1e-15
1.01156944505e-15
1.01860044999e-15
1.02255919393e-15
1.02301551332e-15
1.02278145126e-15
1.01509990558e-15
1.00204989795e-15
1e-15
1e-15
1e-15
1e-15
1e-15
1e-15
1.01689474055e-15
1e-15
1.55981513825e-15
9.46389931173e-06
1.01126803616e-15
1e-15
1e-15
1.01232593093e-15
1.02068849844e-15
1.02298083515e-15
1.02328401618e-15
1.02285336516e-15
1.01659771475e-15
1.00287166626e-15
1e-15
1e-15
1e-15
1e-15
1e-15
1.0007118541e-15
1.02025037585e-15
1e-15
1.57653743793e-15
6.1386337625e-05
1.05808718398e-15
1e-15
1e-15
1.0138487909e-15
1.02187755069e-15
1.02343468291e-15
1.02353630198e-15
1.02316955065e-15
1.01942383985e-15
1.00475808105e-15
1e-15
1e-15
1e-15
1e-15
1e-15
1.00709963487e-15
1.02406989556e-15
1.00859646047e-15
1.59421759775e-15
0.000275045418936
1e-15
1e-15
1e-15
1.01676229022e-15
1.02300091476e-15
1.02376456527e-15
1.02344668643e-15
1.02347800106e-15
1.02195967766e-15
1.00724828704e-15
1e-15
1e-15
1e-15
1e-15
1e-15
1.01123639631e-15
1.02779826817e-15
1.02096129767e-15
1.61297107173e-15
0.000884469604012
1.13744823618e-06
1e-15
1e-15
1.02058615101e-15
1.02360680069e-15
1.02344668643e-15
1.02387146256e-15
1.02344668643e-15
1.02276316397e-15
1.00963437699e-15
1e-15
1e-15
1e-15
1e-15
1e-15
1.01439009652e-15
1.03102458798e-15
1.02529113466e-15
1.6326055191e-15
0.00211265800784
8.57141224077e-06
1e-15
1e-15
1.01921796645e-15
1.02344041973e-15
1.0241128189e-15
1.02344668643e-15
1.0235973567e-15
1.0231721612e-15
1.01141550682e-15
1e-15
1e-15
1e-15
1.00078251596e-15
1.00756318382e-15
1.01700125362e-15
1.0339246407e-15
1.02734582692e-15
1.6526499018e-15
0.00400927432938
3.19789517778e-05
1e-15
)
;

boundaryField
{
    emptyPatch
    {
        type            empty;
    }
    minY
    {
        type            fixedValue;
        value           uniform 1e-15;
    }
    maxY
    {
        type            inletOutlet;
        phi             phi.gas;
        inletValue      nonuniform List<scalar> 0();
        value           nonuniform List<scalar> 0();
    }
    water_to_cooler
    {
        type            zeroGradient;
    }
    water_to_heater
    {
        type            zeroGradient;
    }
    procBoundary2to3
    {
        type            processor;
        value           nonuniform List<scalar> 
41
(
0.676078164661
0.671778422488
0.675489150061
0.672631512922
0.641837167969
0.573971811972
0.487397027677
0.393931399204
0.308562827145
0.275741812247
0.275243170454
0.275579983824
0.274629643055
0.275741812247
0.285865428057
0.35281028151
0.366272667587
0.313360472381
0.190894177508
0.0631663987365
1.00007468401e-15
1.00603730732e-15
1.02381005588e-15
1.02344668643e-15
1.02388021824e-15
1.02344668643e-15
1.02341401826e-15
1.01216037053e-15
1.00452781697e-15
1.0036524579e-15
1.00523261707e-15
1.00814499927e-15
1.01209356151e-15
1.01866938993e-15
1.03614799354e-15
1.0278459056e-15
1.67217059491e-15
0.00657462864352
8.14654836127e-05
1.00007468401e-15
1e-15
)
;
    }
}


// ************************************************************************* //
