/*--------------------------------*- C++ -*----------------------------------*\
| =========                 |                                                 |
| \\      /  F ield         | OpenFOAM: The Open Source CFD Toolbox           |
|  \\    /   O peration     | Version:  2312                                  |
|   \\  /    A nd           | Website:  www.openfoam.com                      |
|    \\/     M anipulation  |                                                 |
\*---------------------------------------------------------------------------*/
FoamFile
{
    version     2.0;
    format      ascii;
    arch        "LSB;label=32;scalar=64";
    class       volScalarField;
    location    "0.59/water";
    object      d.gas;
}
// * * * * * * * * * * * * * * * * * * * * * * * * * * * * * * * * * * * * * //

dimensions      [0 1 0 0 0 0 0];

internalField   nonuniform List<scalar> 
1504
(
0.00498380115319
0.00498394315342
0.00498395237968
0.0049839379491
0.00498391648509
0.00498390275711
0.00498390049692
0.0049839068056
0.00498392082505
0.00498394354317
0.00498396987595
0.00498399537804
0.00498402036636
0.00498404528128
0.00498406561676
0.00498407562141
0.00498407769239
0.00498407849415
0.00498407968806
0.00498408173078
0.00498435191882
0.00498447165673
0.00498441467486
0.00498437291668
0.00498433967733
0.00498431853192
0.0049843109724
0.00498431268109
0.00498432277434
0.00498433853536
0.00498435525201
0.00498437049075
0.00498438497947
0.00498439920994
0.0049844096423
0.00498441238548
0.00498440919958
0.0049844047609
0.00498439969707
0.00498439455901
0.00498508987391
0.0049851043191
0.00498498148116
0.0049849234657
0.00498487852719
0.00498484465923
0.00498482182416
0.0049848090256
0.00498480327133
0.00498479924716
0.00498479418724
0.00498478768485
0.00498478077218
0.00498477482735
0.00498476836679
0.00498475943972
0.00498474803242
0.0049847366076
0.00498472412393
0.00498471143806
0.00498596407991
0.00498587130725
0.00498576801591
0.00498568808498
0.00498562033293
0.0049855521741
0.0049854832669
0.00498542135501
0.00498536707352
0.00498531727552
0.00498527048382
0.00498522694998
0.00498518711069
0.00498515229216
0.00498512260618
0.00498509775381
0.00498507565389
0.00498505446796
0.0049850356514
0.00498501650815
0.00498625237937
0.00498625221538
0.00498624281347
0.00498621063947
0.00498617081014
0.00498611158221
0.00498602391208
0.00498592901901
0.00498583954472
0.00498575649179
0.00498567988366
0.00498560918317
0.00498554492915
0.00498548819162
0.0049854397368
0.00498540049505
0.00498536882415
0.00498534060766
0.00498531811086
0.00498529400918
0.00498630296713
0.00498630354012
0.0049863047312
0.0049863056756
0.00498630051179
0.00498629084237
0.00498625279008
0.00498618394691
0.00498610629701
0.004986028513
0.00498595380174
0.00498588119033
0.00498581303079
0.00498575150208
0.00498569754988
0.00498565174654
0.00498561519613
0.00498558518481
0.00498555986737
0.00498553304752
0.00498633587122
0.00498633609475
0.00498633657195
0.00498633719045
0.00498633799533
0.00498633832458
0.00498633195526
0.00498630081713
0.00498624862956
0.00498618742317
0.00498612470431
0.00498606294569
0.00498600162687
0.00498594565944
0.00498589585077
0.00498585096515
0.00498581350357
0.00498578462086
0.004985758717
0.0049857313525
0.00498636095706
0.00498636105149
0.00498636119648
0.00498636138282
0.00498636160844
0.00498636140866
0.00498636221568
0.00498635083131
0.00498632021689
0.00498627712336
0.00498622999636
0.00498618056977
0.00498613136346
0.00498608578008
0.0049860438598
0.0049860044839
0.00498597074826
0.00498594486535
0.00498591970882
0.00498589304672
0.0049863827091
0.00498638279182
0.00498638289941
0.00498638305061
0.00498638328045
0.00498638269528
0.00498638246315
0.00498637675811
0.00498635791723
0.00498632890853
0.00498629429903
0.00498625816567
0.00498622091154
0.00498618509122
0.00498615311913
0.00498612110681
0.00498609529721
0.00498607523743
0.004986052388
0.00498602659782
0.00498640255338
0.00498640261029
0.00498640266164
0.00498640273997
0.00498640287527
0.00498640187765
0.00498640051559
0.00498639610809
0.00498638249151
0.00498636229962
0.00498634006514
0.0049863130628
0.0049862849349
0.00498626210915
0.00498623674004
0.00498621204032
0.00498619606144
0.00498618566473
0.00498616488959
0.00498614035981
0.00498642070729
0.00498642074751
0.00498642075408
0.00498642078096
0.00498642086279
0.0049864188764
0.00498641697287
0.0049864131894
0.00498640300566
0.00498638994432
0.00498637561056
0.00498635860572
0.00498633930361
0.00498632248296
0.00498630605876
0.00498628865166
0.0049862827958
0.00498628090127
0.00498626468538
0.00498624305707
0.00498643845255
0.00498643839681
0.00498643825369
0.00498643805284
0.00498643780312
0.00498643433333
0.00498643189462
0.00498642746783
0.00498641869397
0.00498641147316
0.00498640703756
0.00498639544137
0.00498638532132
0.00498638064152
0.00498636814132
0.00498635864223
0.00498636276204
0.00498637081372
0.00498635809025
0.00498633814971
0.00498645799515
0.00498645785825
0.00498645752373
0.00498645728092
0.00498645386581
0.0049864500309
0.00498644586491
0.00498643971826
0.00498643346206
0.00498643625827
0.00498643906758
0.00498643657995
0.00498643654248
0.00498643520026
0.00498643097603
0.0049864307415
0.00498644517183
0.00498645950119
0.00498645109108
0.00498643625358
0.00498648338564
0.00498648335906
0.00498648184937
0.00498647423673
0.00498646797381
0.00498646322332
0.00498645800078
0.00498645268356
0.0049864577132
0.00498647239467
0.00498648232129
0.00498648353466
0.00498648858038
0.00498649798639
0.00498650293954
0.00498651182784
0.00498653704168
0.00498655707246
0.00498655044967
0.00498653896891
0.00498651212252
0.00498651174057
0.00498649166527
0.00498647828636
0.00498647313408
0.00498647007859
0.00498646819225
0.00498647736616
0.00498650209007
0.0049865246018
0.00498653304343
0.00498654344813
0.00498655690425
0.00498657203815
0.00498659006379
0.00498660953624
0.00498664188482
0.00498665776819
0.00498665571722
0.00498664856671
0.00498655098721
0.00498654515033
0.00498649991417
0.00498648318139
0.00498648088847
0.00498648502263
0.00498650413137
0.00498653924061
0.00498657125051
0.00498658654875
0.00498660458571
0.00498662058583
0.00498663999425
0.00498666963812
0.00498669538204
0.0049867226814
0.00498675477098
0.0049867716097
0.00498677405009
0.00498677087519
0.00498658617652
0.00498660231601
0.00498653068409
0.0049865100479
0.00498651959078
0.00498655286155
0.00498659667407
0.00498663263685
0.00498665072509
0.00498667359236
0.00498669571727
0.00498672101935
0.00498675002137
0.00498678222013
0.00498682001047
0.00498685212874
0.00498688576421
0.00498690610549
0.00498691526134
0.00498691705649
0.00498661706979
0.00498670075454
0.00498661127512
0.00498659331612
0.00498663659175
0.00498668219562
0.00498671513452
0.00498673191123
0.00498675696001
0.0049867818382
0.00498681108069
0.00498684327054
0.00498687727299
0.00498692402478
0.00498696341684
0.00498700152771
0.00498703982737
0.00498706648567
0.00498708194739
0.00498708948376
0.00498664330578
0.0049868037952
0.00498671909884
0.00498673397409
0.0049867771512
0.00498680598518
0.00498681944906
0.00498684718096
0.00498687433829
0.00498690635246
0.004986943735
0.0049869814427
0.0049870277274
0.00498707329068
0.00498712357335
0.00498716978973
0.0049872160482
0.00498725198808
0.00498727647654
0.00498729076069
0.00498666374616
0.0049868577014
0.00498683561979
0.00498684937049
0.00498687985959
0.00498689369105
0.00498692709953
0.0049869598208
0.00498699763578
0.00498704390939
0.00498708719748
0.00498714048243
0.00498719079773
0.00498725237395
0.00498730705803
0.00498736429904
0.00498742204084
0.00498746886025
0.00498750059304
0.00498752033592
0.00498668403336
0.00498687887794
0.00498689996478
0.00498691307133
0.0049869317361
0.0049869762353
0.00498702504581
0.00498707875688
0.00498714590869
0.00498720555916
0.00498727901554
0.00498734375823
0.00498741609407
0.00498748027153
0.00498754533466
0.00498760949355
0.00498767291351
0.0049877259632
0.00498776427645
0.00498778803488
0.00498664485599
0.0049869025476
0.00498694240973
0.00498696584016
0.00498703789045
0.00498712860194
0.00498721434748
0.00498732174592
0.00498740945262
0.00498751157337
0.00498759535596
0.00498768201359
0.00498775359231
0.00498782214512
0.00498788041743
0.00498793493073
0.00498798619639
0.00498803129709
0.00498806612385
0.00498808994515
0.00498801751903
0.00498833241013
0.00498824637866
0.00498817865136
0.00498815935109
0.00498813092418
0.00498812445215
0.00498812084916
0.00498815053149
0.00498818277762
0.00498822414459
0.00498825791993
0.00498829002192
0.00498831508321
0.00498833675019
0.00498835590227
0.00498837240239
0.00498838574147
0.00498839922091
0.00498841108921
0.0049898727038
0.00499000474867
0.00498991567907
0.00498983082053
0.00498974052184
0.0049896269402
0.0049894826538
0.00498933655755
0.00498920648386
0.0049891077411
0.00498903330202
0.00498897588857
0.00498892733653
0.00498888567572
0.00498884991368
0.00498881914544
0.0049887919265
0.00498876704371
0.00498874500675
0.00498873510794
0.00499009057429
0.00499009137983
0.00499009160088
0.00499009165734
0.00499009152137
0.00499008291121
0.00499005058387
0.004989986647
0.00498988884658
0.00498976444918
0.00498964086348
0.00498953392428
0.00498944216332
0.00498936170159
0.00498929026254
0.00498922712662
0.00498917169583
0.00498912183246
0.00498907648342
0.00498904326868
0.00499011012367
0.00499011009803
0.00499011000415
0.00499010999463
0.00499011007624
0.00499011021478
0.00499010858889
0.00499009575726
0.00499006617489
0.0049900116643
0.00498993241448
0.00498984144452
0.00498975391192
0.00498967346314
0.00498959887809
0.00498953048263
0.00498946835697
0.00498941286921
0.00498936218925
0.00498931726526
0.00499012842568
0.00499012844967
0.00499012850639
0.00499012859397
0.00499012870181
0.00499012881558
0.00499012890454
0.0049901252302
0.00499011274927
0.00499008619931
0.00499004402871
0.00498998754717
0.00498992458967
0.00498986184749
0.00498980113142
0.00498974251085
0.00498968814121
0.00498963677946
0.00498959073535
0.00498954880785
0.00499014815355
0.00499014815107
0.00499014828793
0.00499014851712
0.00499014877196
0.00499014901198
0.00499014895909
0.00499014965586
0.00499014502078
0.00499012999366
0.0049901038908
0.00499006856837
0.00499002738228
0.00498998415255
0.00498993935489
0.00498989525873
0.00498985151749
0.00498981052031
0.00498977123322
0.0049897387817
0.00499016897637
0.00499016912816
0.00499016943498
0.00499016983174
0.00499017023055
0.00499017058382
0.00499017036283
0.00499017276713
0.00499017149736
0.00499016212446
0.00499014412158
0.00499012149762
0.00499009713762
0.00499006854822
0.0049900385158
0.00499000720732
0.00498997641898
0.00498994517682
0.00498991615888
0.00498989702412
0.00499019093793
0.0049901912322
0.004990191693
0.00499019214715
0.00499019258029
0.00499019299628
0.00499019303799
0.00499019585246
0.0049901953737
0.00499018846936
0.00499017678246
0.0049901661818
0.00499015431313
0.00499013774731
0.00499011779333
0.00499009763775
0.00499007672718
0.00499005651826
0.00499003684712
0.00499002331301
0.00499022136159
0.00499021988833
0.00499021365478
0.00499021395888
0.00499021431694
0.0049902147409
0.00499021508378
0.00499021851846
0.00499021958085
0.00499021606106
0.00499021293015
0.00499021372211
0.00499021038076
0.00499019849566
0.0049901868756
0.00499017431221
0.00499016159115
0.0049901486776
0.00499013719975
0.00499013516895
0.00499024239792
0.00499024177397
0.00499023277999
0.00499023304771
0.00499023338465
0.00499023380852
0.0049902337408
0.00499023703921
0.0049902399974
0.00499024140602
0.0049902473486
0.00499025579718
0.00499025511756
0.00499025070545
0.004990244384
0.00499023883946
0.00499023350817
0.00499022833324
0.00499022584154
0.00499022645592
0.00499024805521
0.00499025239691
0.0049902486447
0.00499024894325
0.00499024929408
0.0049902497226
0.00499024905962
0.0049902509556
0.0049902540626
0.00499025837133
0.00499026959345
0.00499028299984
0.0049902900877
0.00499028954249
0.00499029034173
0.00499029086689
0.0049902915719
0.00499029335333
0.00499029844971
0.00499030858158
0.00499025966704
0.00499026245803
0.0049902620559
0.00499026246302
0.00499026282687
0.00499026317054
0.00499026168827
0.00499026163332
0.00499026330676
0.00499026830934
0.00499028312124
0.00499030297728
0.00499031356688
0.00499032038303
0.00499032556763
0.00499033218026
0.00499033950713
0.00499034715082
0.00499036420089
0.00499037150585
0.00499027868822
0.00499028864492
0.00499027887418
0.00499027674768
0.00499027696221
0.0049902768369
0.00499027484792
0.00499027293323
0.00499027259875
0.00499027692869
0.00499029429766
0.00499031786949
0.00499033508927
0.00499034392772
0.00499035505538
0.00499036627308
0.00499037792252
0.00499039793962
0.00499041355912
0.00499042259069
0.00499030050557
0.00499033484748
0.00499031218096
0.00499030693005
0.00499030528808
0.00499030287156
0.00499029842071
0.00499029297285
0.00499028840761
0.00499029026492
0.00499031028856
0.00499033937137
0.00499035568504
0.0049903706064
0.00499038496044
0.00499040090296
0.00499041994326
0.00499044188335
0.00499045939745
0.00499046779186
0.00499032909779
0.00499037997528
0.00499034318583
0.00499033105353
0.00499032779654
0.00499032486934
0.0049903194317
0.00499031158352
0.00499030449183
0.00499030933817
0.00499033855936
0.00499036909459
0.00499038958778
0.00499040593684
0.00499042477257
0.00499044665736
0.0049904733962
0.00499049879371
0.00499050710306
0.00499051745588
0.0049903706835
0.00499040475998
0.00499036818307
0.00499035423835
0.00499035165598
0.00499034874888
0.00499034288081
0.00498381712901
0.00498382168561
0.00498382511834
0.00498382759682
0.0049838293298
0.00498383054756
0.00498383145384
0.00498383220024
0.00498383286627
0.00498383349236
0.00498383409398
0.00498383467736
0.00498383523806
0.00498383575982
0.00498383620594
0.00498383654042
0.00498383692944
0.00498408493674
0.00498408709631
0.00498408790997
0.00498408826851
0.00498408827159
0.00498408784578
0.00498408704978
0.00498408602772
0.00498408494196
0.00498408393548
0.00498408309266
0.00498408244571
0.00498408199376
0.00498408172361
0.00498408161388
0.00498408164032
0.00498408176655
0.00498408193796
0.00498408209707
0.00498408240935
0.00498438631994
0.00498437847472
0.00498437096548
0.00498436440819
0.00498435868994
0.00498435349674
0.00498434872399
0.00498434439737
0.00498434057605
0.00498433730761
0.00498433459404
0.00498433240419
0.00498433068907
0.00498432939644
0.00498432847392
0.00498432787087
0.00498432752994
0.00498432737441
0.00498432732426
0.00498432753582
0.00498469144753
0.00498467172455
0.00498465451173
0.00498464004592
0.00498462788543
0.00498461740753
0.00498460828816
0.0049846003895
0.00498459363315
0.00498458794842
0.00498458324244
0.00498457941314
0.00498457635731
0.00498457398006
0.00498457219432
0.00498457092129
0.00498457007999
0.0049845695739
0.00498456929787
0.00498456938888
0.00498498819019
0.00498495710007
0.00498493022773
0.00498490794296
0.00498488946238
0.00498487385665
0.00498486056343
0.00498484926248
0.00498483972468
0.00498483175607
0.00498482516942
0.00498481979336
0.00498481547202
0.00498481206937
0.00498480946522
0.00498480755395
0.00498480623403
0.00498480538992
0.0049848048957
0.00498480485865
0.00498526219588
0.00498522357697
0.00498518896704
0.0049851603041
0.00498513666542
0.00498511690025
0.00498510024509
0.00498508621794
0.00498507445675
0.00498506466256
0.0049850565708
0.00498504995424
0.00498504461507
0.00498504038472
0.00498503711666
0.00498503468415
0.00498503296894
0.00498503184421
0.00498503116752
0.00498503100868
0.00498550150871
0.00498546133378
0.00498542279736
0.00498539045332
0.00498536376113
0.00498534152496
0.00498532287887
0.00498530724135
0.0049852941654
0.00498528328668
0.00498527429445
0.00498526692951
0.00498526097016
0.00498525622963
0.00498525254648
0.00498524978219
0.0049852478107
0.00498524649988
0.00498524570141
0.00498524544344
0.00498570167139
0.004985664963
0.00498562713983
0.00498559449324
0.0049855673604
0.00498554472979
0.00498552576666
0.00498550987588
0.00498549658994
0.00498548552922
0.00498547637501
0.00498546886448
0.00498546277413
0.00498545791615
0.00498545412805
0.00498545127063
0.00498544921824
0.00498544784359
0.0049854470006
0.00498544667761
0.00498586598886
0.00498583517357
0.00498580189233
0.00498577214003
0.00498574709043
0.00498572608801
0.00498570844965
0.00498569364685
0.00498568125166
0.00498567091557
0.00498566234649
0.00498565530423
0.00498564958361
0.00498564501196
0.00498564143897
0.00498563873572
0.00498563678678
0.00498563547623
0.00498563467044
0.00498563432446
0.0049860022599
0.00498597758919
0.00498595092102
0.00498592637102
0.00498590536122
0.00498588759563
0.00498587261487
0.00498586000881
0.00498584942949
0.00498584059112
0.00498583325235
0.00498582721403
0.00498582230439
0.00498581837815
0.0049858153077
0.00498581298306
0.0049858113058
0.00498581017824
0.00498580948472
0.00498580915751
0.00498611905405
0.00498610000146
0.0049860804244
0.0049860622434
0.00498604646137
0.00498603297173
0.00498602154346
0.00498601190257
0.00498600379756
0.00498599701959
0.00498599138919
0.00498598675778
0.00498598299495
0.00498597999022
0.00498597764502
0.0049859758745
0.00498597460227
0.00498597375284
0.0049859732324
0.00498597296185
0.00498622419769
0.00498620991529
0.00498619704221
0.00498618550953
0.00498617547757
0.00498616678476
0.00498615938966
0.00498615314873
0.00498614790655
0.00498614353213
0.00498613990961
0.00498613694304
0.00498613454619
0.00498613264613
0.00498613117662
0.00498613008057
0.00498612930689
0.00498612880344
0.00498612850008
0.00498612831665
0.00498632298236
0.00498631339889
0.00498630676461
0.00498630171395
0.00498629752337
0.00498629378197
0.00498629058897
0.00498628792029
0.0049862857093
0.00498628389764
0.00498628242925
0.00498628125885
0.0049862803433
0.00498627964725
0.00498627913708
0.00498627878482
0.00498627856447
0.00498627844977
0.00498627839241
0.00498627831984
0.00498642372167
0.00498641726367
0.00498641550723
0.00498641616334
0.00498641749356
0.00498641855997
0.00498641950629
0.00498642039369
0.00498642122522
0.00498642200291
0.00498642272309
0.00498642338618
0.00498642398936
0.00498642453287
0.00498642501497
0.00498642543563
0.00498642579551
0.00498642609101
0.00498642629707
0.00498642635355
0.00498652868381
0.00498652412788
0.00498652652278
0.00498653258657
0.00498653930533
0.00498654509301
0.00498655011029
0.00498655449917
0.00498655833009
0.00498656166377
0.00498656454725
0.00498656702573
0.00498656913544
0.00498657091168
0.00498657238354
0.00498657357919
0.00498657452291
0.00498657523758
0.00498657571712
0.00498657591804
0.00498663929245
0.00498663649622
0.00498664307308
0.00498665469783
0.00498666688556
0.00498667739016
0.00498668641502
0.00498669421341
0.00498670094209
0.00498670673121
0.00498671168496
0.00498671589632
0.0049867194424
0.00498672239365
0.00498672481017
0.00498672674679
0.00498672825378
0.00498672937512
0.00498673012787
0.00498673048792
0.00498676526924
0.00498676304237
0.00498677255496
0.00498678879489
0.00498680580218
0.00498682052113
0.00498683312367
0.00498684395452
0.00498685324903
0.00498686120396
0.00498686797812
0.00498687371028
0.00498687851551
0.00498688249702
0.00498688574262
0.00498688833217
0.00498689033596
0.00498689182434
0.00498689283305
0.00498689336032
0.00498691282998
0.00498691189164
0.00498692252228
0.00498694148882
0.0049869618829
0.00498697968922
0.00498699494759
0.00498700804421
0.00498701925812
0.00498702883286
0.00498703696851
0.00498704383833
0.00498704958648
0.00498705434027
0.00498705820834
0.00498706128769
0.00498706366767
0.00498706543678
0.00498706665813
0.0049870673542
0.00498709163054
0.00498708996964
0.00498709885397
0.00498711784672
0.00498713959047
0.00498715890241
0.004987175524
0.0049871898206
0.00498720205878
0.00498721249866
0.00498722136154
0.0049872288405
0.00498723509549
0.00498724026699
0.00498724447326
0.00498724781997
0.00498725040236
0.00498725233135
0.00498725369772
0.00498725455617
0.0049872953262
0.00498729434862
0.00498730203516
0.0049873196835
0.00498734103801
0.00498736037948
0.00498737700108
0.00498739130073
0.0049874035253
0.00498741393612
0.00498742276463
0.00498743021204
0.00498743644303
0.00498744159896
0.00498744579661
0.00498744913615
0.00498745170894
0.00498745363021
0.0049874550376
0.00498745604382
0.00498752690362
0.00498753031979
0.00498753718464
0.00498755110017
0.00498756913921
0.00498758628638
0.0049876009924
0.0049876136753
0.00498762453468
0.00498763378465
0.00498764163369
0.00498764826715
0.00498765383347
0.00498765845761
0.00498766223787
0.00498766525455
0.00498766757002
0.00498766928693
0.00498767059077
0.00498767171173
0.00498779775311
0.00498780432552
0.00498780683986
0.00498781459712
0.0049878256616
0.00498783733938
0.0049878475435
0.0049878565053
0.00498786431622
0.00498787104727
0.00498787681577
0.00498788174397
0.0049878859303
0.00498788945536
0.00498789237726
0.00498789473591
0.00498789655042
0.00498789786397
0.00498789888257
0.00498790004709
0.00498809885003
0.00498810331367
0.00498810176935
0.00498810337329
0.00498810626247
0.00498810974617
0.00498811304309
0.00498811623955
0.00498811936924
0.00498812228519
0.00498812493596
0.00498812732985
0.00498812947854
0.00498813139186
0.00498813306423
0.00498813447929
0.00498813560126
0.00498813639742
0.00498813695497
0.00498813796828
0.00498841418622
0.004988412037
0.00498840731207
0.00498840365746
0.00498840002662
0.00498839501296
0.00498839014687
0.00498838625413
0.00498838353443
0.0049883816873
0.00498838044707
0.00498837966882
0.00498837925311
0.00498837912116
0.00498837919305
0.0049883793878
0.00498837962664
0.00498837985463
0.00498837994473
0.00498838067916
0.00498873036579
0.00498872059062
0.00498871281838
0.00498870313079
0.00498869392482
0.0049886822318
0.00498866958842
0.00498865830633
0.00498864921362
0.00498864212826
0.00498863658989
0.00498863227512
0.00498862895538
0.00498862645834
0.00498862462901
0.00498862333269
0.00498862247825
0.00498862199934
0.00498862182181
0.00498862222886
0.0049890285122
0.00498901364685
0.00498900085193
0.00498898725745
0.00498897367677
0.00498895832032
0.0049889405912
0.00498892325572
0.00498890841277
0.00498889642741
0.00498888685617
0.004988879233
0.00498887321389
0.00498886853789
0.0049888650253
0.00498886252894
0.00498886089243
0.00498885995057
0.00498885955678
0.00498885979143
0.0049892928395
0.00498927517761
0.00498926017655
0.00498924468133
0.00498922870912
0.00498921208164
0.00498919283605
0.00498917238711
0.00498915360646
0.00498913787396
0.00498912509961
0.00498911482045
0.00498910662172
0.00498910025251
0.00498909549312
0.00498909210156
0.00498908983642
0.00498908847514
0.00498908780054
0.0049890877716
0.00498952121693
0.00498950310721
0.00498948598379
0.00498947128162
0.0049894560536
0.00498943930647
0.00498942048975
0.00498939978154
0.0049893794593
0.00498936160431
0.0049893467489
0.00498933464647
0.00498932501107
0.00498931755405
0.00498931194752
0.00498930789228
0.00498930513632
0.00498930341215
0.00498930246401
0.00498930220472
0.00498971618335
0.00498969719924
0.00498968217886
0.00498967087143
0.00498965767564
0.00498964103375
0.00498962278048
0.00498960332352
0.0049895835016
0.00498956513787
0.00498954935901
0.00498953636198
0.00498952598771
0.0049895179176
0.00498951182826
0.00498950740833
0.00498950434767
0.00498950235803
0.00498950119296
0.00498950081348
0.00498987936344
0.00498986313556
0.00498985319251
0.00498984539855
0.00498983330255
0.00498981758411
0.00498980033168
0.00498978293706
0.00498976510311
0.00498974777091
0.00498973225951
0.00498971920987
0.0049897086618
0.00498970046025
0.00498969428521
0.0049896897572
0.00498968654185
0.00498968436817
0.00498968304998
0.00498968267748
0.00499001568105
0.00499000524552
0.00499000154496
0.00498999615302
0.00498998453322
0.00498997080887
0.00498995579846
0.00498994077246
0.00498992562919
0.00498991052244
0.00498989640955
0.00498988412788
0.00498987406164
0.00498986619749
0.00498986022381
0.00498985574455
0.0049898524429
0.00498985012566
0.00498984868709
0.00498984839842
0.00499013024234
0.00499012693811
0.00499013056004
0.00499012856658
0.00499011853358
0.00499010744577
0.0049900952196
0.0049900825066
0.0049900701573
0.00499005794109
0.00499004612694
0.00499003532444
0.00499002610896
0.00499001868846
0.00499001288421
0.0049900083311
0.0049900047802
0.00499000215764
0.00499000049266
0.00499000031063
0.00499022774357
0.00499023210731
0.00499024526027
0.00499024867294
0.00499024250197
0.00499023457093
0.00499022559282
0.00499021601602
0.00499020650524
0.00499019711694
0.00499018770031
0.00499017829731
0.00499016950047
0.00499016189531
0.00499015562232
0.00499015042213
0.00499014606179
0.00499014264597
0.00499014041067
0.00499014034224
0.00499031058523
0.00499032314161
0.00499034553168
0.00499035623239
0.00499035527819
0.00499035115176
0.00499034657445
0.00499034119975
0.00499033539425
0.0049903290409
0.00499032225677
0.00499031534724
0.00499030810785
0.00499029768449
0.00499028723457
0.00499027906285
0.00499027250495
0.00499026727683
0.00499026374474
0.00499026361812
0.00499037879714
0.00499039758558
0.00499042612326
0.00499044358291
0.00499044628829
0.00499044559582
0.00499044529168
0.0049904442094
0.00499044211287
0.00499043950176
0.00499043432978
0.00499042764012
0.00499041244189
0.00499039614399
0.0049903809326
0.00499036813783
0.00499036006365
0.00499035383303
0.00499034928368
0.00499034884955
0.00499043420677
0.00499045455687
0.00499048229384
0.0049905016563
0.00499050480613
0.00499050294836
0.00499050117127
0.00499049783051
0.00499049467022
0.00499048529891
0.00499047278428
0.00499044986853
0.00499043229518
0.0049904260008
0.0049904202948
0.00499040302999
0.00499039128058
0.00499038532769
0.00499038091101
0.00499037991058
0.00499048058493
0.00499049805995
0.00499051902827
0.00499053460897
0.00499053523494
0.00499052775087
0.00499051691766
0.00499050561893
0.00499048718997
0.00499047140576
0.00499045038857
0.00499043188992
0.00499041538624
0.00499040405147
0.00499041428023
0.00499040642936
0.00499038224056
0.00499037179423
0.00499036731146
0.00499036569185
0.00499052958239
0.0049905419823
0.00499055441758
0.00499056330761
0.00499056046073
0.00499054775361
0.00499053074729
0.00499051091389
0.00499049011043
0.00499046694056
0.00499044332831
0.00499042056082
0.00499039730702
0.00499037898949
0.0049903776815
0.00499038125525
0.00499034920822
0.00499032606292
0.00499031672021
0.0049903136372
)
;

boundaryField
{
    emptyPatch
    {
        type            empty;
    }
    minY
    {
        type            calculated;
        value           nonuniform List<scalar> 0();
    }
    maxY
    {
        type            calculated;
        value           nonuniform List<scalar> 0();
    }
    maxX
    {
        type            calculated;
        value           nonuniform List<scalar> 
38
(
0.00498383692944
0.00498408240935
0.00498432753582
0.00498456938888
0.00498480485865
0.00498503100868
0.00498524544344
0.00498544667761
0.00498563432446
0.00498580915751
0.00498597296185
0.00498612831665
0.00498627831984
0.00498642635355
0.00498657591804
0.00498673048792
0.00498689336032
0.0049870673542
0.00498725455617
0.00498745604382
0.00498767171173
0.00498790004709
0.00498813796828
0.00498838067916
0.00498862222886
0.00498885979143
0.0049890877716
0.00498930220472
0.00498950081348
0.00498968267748
0.00498984839842
0.00499000031063
0.00499014034224
0.00499026361812
0.00499034884955
0.00499037991058
0.00499036569185
0.0049903136372
)
;
    }
    water_to_heater
    {
        type            calculated;
        value           nonuniform List<scalar> 
60
(
0.0049837871374
0.00498383802742
0.00498435060769
0.00498508851579
0.00498593258522
0.00498597247745
0.00498624005125
0.00498626171336
0.00498629740626
0.00498631463765
0.00498633475461
0.00498635990357
0.00498636911677
0.0049863858588
0.00498639294358
0.0049864100977
0.00498641545858
0.00498643224982
0.00498643737299
0.00498645685649
0.00498646931137
0.00498648650798
0.00498650253024
0.00498651932481
0.0049865455007
0.00498656270321
0.00498658499595
0.00498661590546
0.00498662923169
0.00498664641091
0.00498665203906
0.00498667240726
0.00498667400201
0.0049867063655
0.00498664296459
0.00498801557634
0.0049898381908
0.00498988133335
0.00499007612528
0.0049901010355
0.00499010480966
0.00499012001955
0.00499012708929
0.00499014683061
0.00499015295262
0.0049901722611
0.00499017464117
0.00499020312113
0.00499020991124
0.00499024640246
0.00499023984118
0.00499024537894
0.00499023569072
0.00499026404481
0.00499026196291
0.00499029008265
0.00499029074187
0.00499031909715
0.00499032636267
0.00499036789648
)
;
    }
    procBoundary3to1
    {
        type            processor;
        value           nonuniform List<scalar> 
41
(
0.0049903348155
0.00499033238495
0.00499035608986
0.0049903955004
0.00499042565368
0.00499044543419
0.00499046753606
0.00499049797748
0.00499052843318
0.00499055283779
0.00499056315085
0.00499057516088
0.00499058619552
0.00499042384671
0.00499043636869
0.0049903906359
0.00499038245646
0.00499038616502
0.00499038908873
0.0049903348155
0.00499039058457
0.00499059652603
0.00499060373972
0.00499060741489
0.00499060689134
0.00499059759178
0.0049905788867
0.00499055482141
0.00499052759149
0.00499049744264
0.00499046435625
0.00499043034683
0.00499039330728
0.00499036011792
0.00499032890073
0.00499031094549
0.00499031999617
0.00499026465173
0.00499021475974
0.00499019416083
0.00499018616049
)
;
    }
    procBoundary3to2
    {
        type            processor;
        value           nonuniform List<scalar> 
41
(
0.00498340813909
0.00498353793395
0.00498356277876
0.00498357466808
0.00498357026966
0.00498356353543
0.00498356341408
0.00498357016387
0.00498358255246
0.00498360380914
0.00498363232219
0.00498366147758
0.00498368981043
0.00498371857664
0.00498374446624
0.00498375941697
0.00498376446473
0.00498376737887
0.00498377317483
0.00498378238827
0.00498355455266
0.00498356236566
0.00498356862169
0.00498357353645
0.00498357735779
0.00498358033627
0.00498358271634
0.00498358468801
0.00498358637188
0.00498358783313
0.00498358911193
0.00498359023151