/*--------------------------------*- C++ -*----------------------------------*\
| =========                 |                                                 |
| \\      /  F ield         | OpenFOAM: The Open Source CFD Toolbox           |
|  \\    /   O peration     | Version:  2312                                  |
|   \\  /    A nd           | Website:  www.openfoam.com                      |
|    \\/     M anipulation  |                                                 |
\*---------------------------------------------------------------------------*/
FoamFile
{
    version     2.0;
    format      ascii;
    arch        "LSB;label=32;scalar=64";
    class       volScalarField;
    location    "0.05/water";
    object      alphat.gas;
}
// * * * * * * * * * * * * * * * * * * * * * * * * * * * * * * * * * * * * * //

dimensions      [1 -1 -1 0 0 0 0];

internalField   nonuniform List<scalar> 
1496
(
2.0038941879e-06
2.3127736178e-06
2.77377101176e-06
2.88836101796e-06
2.50357901467e-06
1.98422984855e-06
1.38580022574e-06
6.47579733364e-07
3.82925806911e-07
3.78843162404e-07
3.90854041296e-07
3.15730541199e-07
1.81148597043e-07
7.72512365689e-08
1.60898627979e-08
1.45912502274e-09
1.20406018896e-10
3.49482961733e-11
3.14296561183e-11
4.69553178011e-11
2.01655549116e-06
2.34380912507e-06
2.81477389319e-06
2.93408301492e-06
2.54029327142e-06
2.0084754778e-06
1.38489691469e-06
5.94127321358e-07
3.60226426999e-07
3.7992900735e-07
3.93062717905e-07
3.12473736825e-07
1.74841934179e-07
7.30661606158e-08
1.4268722531e-08
1.24907898347e-09
1.07206212634e-10
3.40741289579e-11
3.15952042386e-11
4.73809250846e-11
2.06892407382e-06
2.41944386802e-06
2.88340867261e-06
3.00338397529e-06
2.58266381949e-06
2.02837005396e-06
1.35986531052e-06
5.22218367789e-07
3.37545792383e-07
3.86203820193e-07
3.97644074037e-07
3.08448563878e-07
1.66950144401e-07
6.82254763469e-08
1.22698689983e-08
1.03438597595e-09
9.41458760691e-11
3.31993169013e-11
3.17808685885e-11
4.78717303639e-11
2.1350162004e-06
2.49023318978e-06
2.93867567604e-06
3.07299404008e-06
2.59764624108e-06
2.01368610629e-06
1.29236320037e-06
4.3611792789e-07
3.18974121056e-07
3.98619076327e-07
4.04015950234e-07
3.03697076885e-07
1.58087973504e-07
6.32612752721e-08
1.03275745346e-08
8.41864117902e-10
8.28385824978e-11
3.24732464719e-11
3.20148713405e-11
4.84227301949e-11
2.17999308193e-06
2.53571111596e-06
2.97276985148e-06
3.10975704017e-06
2.57477893858e-06
1.96201230615e-06
1.18553514092e-06
3.42317200164e-07
3.05454716119e-07
4.16699445595e-07
4.11698699371e-07
2.99073180571e-07
1.49663207319e-07
5.87697947399e-08
8.71717161396e-09
6.95281664458e-10
7.46702950086e-11
3.20447238799e-11
3.23177610327e-11
4.89998696321e-11
2.22292137156e-06
2.57492358678e-06
2.99600649523e-06
3.09850998359e-06
2.51442411024e-06
1.88278315268e-06
1.05919214113e-06
2.59064625948e-07
3.02501718262e-07
4.38864791605e-07
4.20549595547e-07
2.96454070385e-07
1.44193703006e-07
5.55191080218e-08
7.69096016938e-09
6.10412519087e-10
7.06459005809e-11
3.20375911071e-11
3.26851652798e-11
4.9525121348e-11
2.26920005218e-06
2.62436434721e-06
3.02808065042e-06
3.05054007265e-06
2.4216040312e-06
1.78325176134e-06
9.27103327086e-07
1.97773183025e-07
3.10978042844e-07
4.6147454982e-07
4.30718289678e-07
2.981274846e-07
1.47268895208e-07
5.48232647658e-08
7.4501784408e-09
5.97847045712e-10
7.16174809159e-11
3.25436562226e-11
3.30714395436e-11
4.98732153271e-11
2.31000940037e-06
2.69283985748e-06
3.09312025082e-06
3.00116874072e-06
2.30738575584e-06
1.66787951122e-06
8.07959722366e-07
1.62477697863e-07
3.23556437792e-07
4.78147253074e-07
4.41846938607e-07
3.05709032673e-07
1.60816558426e-07
5.82103528856e-08
8.20294770701e-09
6.73840398652e-10
7.8854098147e-11
3.36605613299e-11
3.34246847884e-11
4.99185507196e-11
2.35699978477e-06
2.8022417664e-06
3.19033231377e-06
2.72364395965e-06
2.13344083137e-06
1.52869119879e-06
7.09433940084e-07
1.55451738109e-07
3.30548712824e-07
4.83161963756e-07
4.52664717895e-07
3.19169773803e-07
1.75719777389e-07
6.65905986952e-08
1.02401474304e-08
8.73604889065e-10
9.48364068064e-11
3.56194533492e-11
3.38116325324e-11
4.97231270766e-11
2.4652749668e-06
3.03439258957e-06
3.42543980212e-06
2.79903351258e-06
2.05108242688e-06
1.43079550007e-06
6.38133568104e-07
1.72773396551e-07
3.20343899883e-07
4.74421604903e-07
4.61403829157e-07
3.36931795886e-07
1.92282205353e-07
8.01379901509e-08
1.39484486279e-08
1.26456619488e-09
1.24324478095e-10
3.88626383246e-11
3.43634147528e-11
4.94183757865e-11
2.87958321317e-06
3.51435070686e-06
3.58030531085e-06
2.71739904765e-06
1.97269116394e-06
1.35406901435e-06
6.01895341986e-07
2.06583006282e-07
3.09641711285e-07
4.57817543849e-07
4.66784786873e-07
3.56573315523e-07
2.05160771675e-07
9.7904086514e-08
1.96517934247e-08
1.95256565864e-09
1.75140116366e-10
4.38535211042e-11
3.50602746645e-11
4.89009533227e-11
2.98751152301e-06
3.70151112769e-06
3.60202581844e-06
2.76504649375e-06
1.96720042449e-06
1.32941503586e-06
6.21270905133e-07
2.86518429382e-07
3.2746507931e-07
4.44138268734e-07
4.69199599076e-07
3.75861497218e-07
2.21588291756e-07
1.17846303186e-07
2.73109803415e-08
3.05776906812e-09
2.58048110847e-10
5.11317911732e-11
3.59312770997e-11
4.82067079118e-11
2.95555971837e-06
3.70063216032e-06
3.6765817705e-06
2.99780681975e-06
2.10189192534e-06
1.38157794978e-06
7.46319876251e-07
4.23176827973e-07
3.80176252552e-07
4.42647630678e-07
4.71014349914e-07
3.93624758185e-07
2.43780754814e-07
1.36695229076e-07
3.6422076322e-08
4.65572057735e-09
3.85056670111e-10
6.13322109911e-11
3.70836713629e-11
4.75098665477e-11
3.10184502597e-06
3.73104169054e-06
3.76528082696e-06
3.30353035215e-06
2.37458875996e-06
1.56679576472e-06
9.79433296954e-07
6.16047430043e-07
4.67424141535e-07
4.57850249005e-07
4.74890244813e-07
4.0979042732e-07
2.65469135164e-07
1.51682726434e-07
4.63007413871e-08
6.73289135551e-09
5.66283877412e-10
7.50400285222e-11
3.85973816885e-11
4.69399910199e-11
3.25125549751e-06
3.84692872535e-06
3.87556660567e-06
3.57109135895e-06
2.74443267626e-06
1.88040448017e-06
1.2871769636e-06
8.56143427295e-07
5.85895211085e-07
4.89374629075e-07
4.81946507085e-07
4.24608167799e-07
2.85756891591e-07
1.63255387938e-07
5.64579727745e-08
9.21389041869e-09
8.0867514684e-10
9.27654781302e-11
4.04996030462e-11
4.65388322181e-11
3.34686210618e-06
3.9360426254e-06
3.98677412857e-06
3.788509475e-06
3.12600253036e-06
2.27566997267e-06
1.64137641057e-06
1.12962924341e-06
7.30095079307e-07
5.34833298319e-07
4.91700048186e-07
4.37890912134e-07
3.04639353849e-07
1.72903893996e-07
6.6706781739e-08
1.20301793325e-08
1.11812203413e-09
1.15106159579e-10
4.28073643817e-11
4.63079141973e-11
3.38258505511e-06
3.9758094285e-06
4.06417518907e-06
3.95409936815e-06
3.46149098148e-06
2.6878440614e-06
2.00783484982e-06
1.41716573406e-06
8.92342813771e-07
5.92013443665e-07
5.03418673172e-07
4.48961440486e-07
3.2184888422e-07
1.81093375852e-07
7.69917359166e-08
1.51365826509e-08
1.50081554861e-09
1.42825474927e-10
4.55442470715e-11
4.62371226887e-11
3.37325951106e-06
3.95178004091e-06
4.08487078288e-06
4.0600218978e-06
3.72292987452e-06
3.0615355584e-06
2.35500301169e-06
1.69813207664e-06
1.06171464697e-06
6.57750130643e-07
5.16720260849e-07
4.57048404381e-07
3.36669054711e-07
1.87919610317e-07
8.71390087848e-08
1.84674925244e-08
1.95940360195e-09
1.7655025488e-10
4.87085201728e-11
4.63081387796e-11
3.38817946547e-06
3.9191377635e-06
4.08043049397e-06
4.1189878515e-06
3.90861406854e-06
3.37095732156e-06
2.67958872738e-06
1.99007420765e-06
1.22773973168e-06
7.24105259065e-07
5.3000809251e-07
4.61545256528e-07
3.48148270054e-07
1.94299942391e-07
9.66757099691e-08
2.18784775571e-08
2.48394168473e-09
2.16031543285e-10
5.22149687945e-11
4.64900739233e-11
3.45184891132e-06
3.94015109647e-06
4.11237459336e-06
4.17909901025e-06
4.03981763824e-06
3.59200031852e-06
2.92854252292e-06
2.20965117001e-06
1.38162644347e-06
7.85703641046e-07
5.40503290472e-07
4.61780935305e-07
3.55382901526e-07
2.01318369775e-07
1.04654497437e-07
2.51062049788e-08
3.03762726589e-09
2.5899077182e-10
5.58276119702e-11
4.67370572873e-11
3.47517610959e-06
3.9821022303e-06
4.15451777336e-06
4.23475928546e-06
4.1352543595e-06
3.7464933871e-06
3.11240263431e-06
2.3705407942e-06
1.4935195955e-06
8.31303439819e-07
5.46534791894e-07
4.58163850076e-07
3.57914149892e-07
2.07511847955e-07
1.09316262535e-07
2.77478519058e-08
3.54566174676e-09
2.99758925382e-10
5.90892557521e-11
4.69883287553e-11
3.36712090109e-06
3.93503927933e-06
4.14800346496e-06
4.26090209523e-06
4.19390293618e-06
3.84388696188e-06
3.22922315805e-06
2.46147364786e-06
1.54593454981e-06
8.49261366587e-07
5.45368296634e-07
4.51380217261e-07
3.55815419312e-07
2.10166490902e-07
1.08288700948e-07
2.9307824096e-08
3.89428448771e-09
3.28747615105e-10
6.1321877498e-11
4.7180245611e-11
3.1705214256e-06
3.77964451644e-06
4.08319062858e-06
4.24877369629e-06
4.21269745335e-06
3.88612742217e-06
3.27841151031e-06
2.48110347201e-06
1.534425286e-06
8.34346704e-07
5.34783641203e-07
4.41908254719e-07
3.49515234107e-07
2.08118919155e-07
1.01689466846e-07
2.93551324804e-08
3.96406405578e-09
3.35037590107e-10
6.17890288483e-11
4.72667177502e-11
2.98726427706e-06
3.59608553342e-06
3.96760109414e-06
4.19167542009e-06
4.18976899847e-06
3.87896734943e-06
3.26500494985e-06
2.43433927252e-06
1.4597726321e-06
7.8773584398e-07
5.15411213264e-07
4.30552103104e-07
3.39601895834e-07
2.01224170378e-07
9.40854182055e-08
2.771340813e-08
3.69478916061e-09
3.12762195979e-10
6.00766977042e-11
4.71973311104e-11
2.81575089345e-06
3.40535507255e-06
3.8272081765e-06
4.10469767036e-06
4.13178727685e-06
3.82625621718e-06
3.18913810018e-06
2.319029438e-06
1.32454351453e-06
7.1722948894e-07
4.91266497264e-07
4.18524384699e-07
3.2655422068e-07
1.89752564563e-07
8.6174945197e-08
2.44904557033e-08
3.12567349992e-09
2.66267358464e-10
5.65286962663e-11
4.70175052609e-11
2.67416561405e-06
3.22107795768e-06
3.68747748356e-06
3.9904492258e-06
4.04224367982e-06
3.72945227767e-06
3.0385303789e-06
2.13043912571e-06
1.14662998976e-06
6.37752532363e-07
4.67945933712e-07
4.06867749456e-07
3.10572134507e-07
1.74161678284e-07
7.63783234553e-08
2.00888815532e-08
2.38768274217e-09
2.08271164131e-10
5.20449348223e-11
4.69206618019e-11
2.57193956996e-06
3.07140373404e-06
3.57142385e-06
3.9280393674e-06
3.94270851044e-06
3.54793038228e-06
2.74145758859e-06
1.86288358334e-06
9.57200524828e-07
5.64198037072e-07
4.50121636749e-07
3.96068594912e-07
2.91654837404e-07
1.55136287171e-07
6.64256605387e-08
1.52202725344e-08
1.64691576415e-09
1.52844542088e-10
4.76215821906e-11
4.7050076558e-11
2.52068438752e-06
2.98406360527e-06
3.51592085993e-06
3.88830215186e-06
3.83441177425e-06
3.34724963895e-06
2.45371634021e-06
1.54825734887e-06
7.75405132045e-07
5.04909542481e-07
4.40687898169e-07
3.86007893119e-07
2.69909225918e-07
1.33846558406e-07
5.59610446504e-08
1.06326706746e-08
1.03583061756e-09
1.09109321557e-10
4.39920295337e-11
4.74780730963e-11
2.50370088603e-06
2.9384831912e-06
3.48532871694e-06
3.87058516728e-06
3.71936136295e-06
3.19257153158e-06
2.28477581797e-06
1.19577463794e-06
6.10918095878e-07
4.66868849624e-07
4.41435771625e-07
3.7631715211e-07
2.46099905182e-07
1.13600256828e-07
4.35445166495e-08
6.88600355344e-09
6.12064513905e-10
7.93767201407e-11
4.14808329834e-11
4.82150192716e-11
2.50726677614e-06
2.91936298202e-06
3.45727743647e-06
3.81508034814e-06
3.4902991653e-06
2.87714623878e-06
2.03070158984e-06
8.45966403637e-07
4.82565268413e-07
4.5933536859e-07
4.53160826918e-07
3.67178545806e-07
2.22170198768e-07
1.0603954117e-07
3.16736230792e-08
4.22928159215e-09
3.60483385996e-10
6.14374132218e-11
4.00779123324e-11
4.92164174693e-11
2.52876152765e-06
2.92605815378e-06
3.43213441271e-06
3.65380358154e-06
3.13028523646e-06
2.43551913479e-06
1.69925153546e-06
5.5284688895e-07
4.16445770922e-07
4.86998216489e-07
4.74317742185e-07
3.60516963985e-07
2.0222590971e-07
1.01502606378e-07
2.3018797484e-08
2.62495559202e-09
2.30594851435e-10
5.18623322496e-11
3.96080343059e-11
5.03943977628e-11
2.56551959646e-06
2.95888410559e-06
3.41281582854e-06
3.39175675257e-06
2.70956699589e-06
1.9840326915e-06
1.3289735391e-06
3.58142628694e-07
4.20272183951e-07
5.41087787801e-07
5.02496932985e-07
3.60621622167e-07
2.18290274878e-07
9.05624912277e-08
1.79786888721e-08
1.84239961709e-09
1.74803632783e-10
4.79286475853e-11
3.9839319417e-11
5.15802172912e-11
2.60789915203e-06
3.038403001e-06
3.4210271602e-06
3.07747740762e-06
2.34429512438e-06
1.64324464639e-06
9.67582510511e-07
2.67764403441e-07
4.74476164226e-07
6.01820233518e-07
5.36287449164e-07
3.75302260993e-07
2.5587494393e-07
8.83771600245e-08
1.65280333437e-08
1.64852611136e-09
1.65793129053e-10
4.81371663747e-11
4.04841876709e-11
5.2448415837e-11
2.73570967024e-06
3.27051315286e-06
3.52106065555e-06
2.61827689856e-06
2.12328473611e-06
1.46073998606e-06
6.77486232517e-07
2.57721931158e-07
5.25326790978e-07
6.48033365822e-07
5.73845666384e-07
4.14621288756e-07
2.8172916316e-07
9.76860313419e-08
1.90255888714e-08
1.98698706214e-09
1.98769548869e-10
5.23432700494e-11
4.14051850587e-11
5.2790806356e-11
3.12961775374e-06
3.84559760461e-06
3.76714443947e-06
2.50364456463e-06
2.00317576753e-06
1.40504741799e-06
5.30019788953e-07
2.73949307972e-07
5.23466179181e-07
6.66356271715e-07
6.10913979052e-07
4.54536902281e-07
3.24205059117e-07
1.20789781682e-07
2.65542125498e-08
3.09559228041e-09
2.95678734728e-10
6.25029147584e-11
4.30514875873e-11
5.29571345858e-11
3.63398887581e-06
4.44125220213e-06
3.79741451435e-06
2.47872807181e-06
1.87227276055e-06
1.30960035008e-06
5.23200678316e-07
2.97815237389e-07
4.89431209982e-07
6.5846890877e-07
6.41413249377e-07
4.90230666875e-07
3.78997132709e-07
1.57584798599e-07
4.07023574325e-08
5.63582841233e-09
5.26548452888e-10
8.39372416119e-11
4.60604542832e-11
5.30866189007e-11
3.55364822806e-06
4.67472931694e-06
4.0993663077e-06
2.68568054241e-06
1.80247815412e-06
1.1966723649e-06
6.04364111468e-07
3.80247685416e-07
4.98536464436e-07
6.50526665259e-07
6.63389090269e-07
5.34961643748e-07
3.54474447759e-07
2.02016435981e-07
6.15426980786e-08
1.07408026111e-08
1.06404793062e-09
1.28852273215e-10
5.12314031765e-11
5.27468874219e-11
5.35667549961e-09
6.70064061123e-09
7.92856167283e-09
1.0851134865e-08
1.38548002543e-08
1.85738073897e-08
2.83188124736e-08
3.19710227784e-08
3.23630175393e-08
3.17746010724e-08
5.16845342696e-08
7.86494251661e-07
2.29431787837e-06
3.26480022431e-06
3.89126415836e-06
4.45446657193e-06
1.09268233596e-10
3.18448173833e-10
1.13375673925e-09
3.2633088741e-09
5.40656587104e-09
6.75560277211e-09
7.97514892362e-09
1.09347959534e-08
1.39507096518e-08
1.86360477433e-08
2.8374334515e-08
3.1970791424e-08
3.23564218991e-08
3.17163234483e-08
5.38019389713e-08
8.06388798432e-07
2.31797484278e-06
3.28554042142e-06
3.90928963784e-06
4.47189152817e-06
1.10409722423e-10
3.22526112982e-10
1.14686656094e-09
3.29244202662e-09
5.45915518719e-09
6.81191655685e-09
8.02755130469e-09
1.10508527901e-08
1.40866845002e-08
1.87168928177e-08
2.84384979992e-08
3.19714396956e-08
3.23501276678e-08
3.16547121334e-08
5.60054701041e-08
8.26444190214e-07
2.34179593938e-06
3.30726134878e-06
3.92996644493e-06
4.48924427331e-06
1.11808883369e-10
3.27680033218e-10
1.16284915967e-09
3.32353646962e-09
5.51271861691e-09
6.86878132055e-09
8.08505851452e-09
1.11884219498e-08
1.4252485e-08
1.88029433381e-08
2.84945280569e-08
3.19705975428e-08
3.23441304893e-08
3.15902931579e-08
5.82727506249e-08
8.46447326652e-07
2.36547352116e-06
3.32896630917e-06
3.94930548575e-06
4.50621901959e-06
1.13377333254e-10
3.33528922154e-10
1.17948632231e-09
3.35230136713e-09
5.56451799562e-09
6.92468838923e-09
8.14589175621e-09
1.13366766669e-08
1.44257484406e-08
1.88700791004e-08
2.85225995979e-08
3.19655545776e-08
3.2338436676e-08
3.15238049203e-08
6.0574951611e-08
8.66121563098e-07
2.38859157898e-06
3.35020108415e-06
3.96785204434e-06
4.52284057349e-06
1.14936029508e-10
3.39348279332e-10
1.19336176949e-09
3.37321513081e-09
5.61065733295e-09
6.97729879952e-09
8.20731090937e-09
1.148468134e-08
1.45870781468e-08
1.88939807839e-08
2.85015205212e-08
3.19532977332e-08
3.23330379923e-08
3.14561885173e-08
6.28774445871e-08
8.8515113903e-07
2.4107224706e-06
3.37069910969e-06
3.98583697678e-06
4.53915990145e-06
1.16187599323e-10
3.43889463035e-10
1.2002938806e-09
3.3813177914e-09
5.64657470963e-09
7.02380830544e-09
8.26553525365e-09
1.16148299973e-08
1.47179529206e-08
1.8858631091e-08
2.84100027318e-08
3.19305029225e-08
3.23278695173e-08
3.13885079742e-08
6.51428896511e-08
9.03219132497e-07
2.43147397421e-06
3.39024873651e-06
4.0032963696e-06
4.55521042102e-06
1.16679377965e-10
3.45329668941e-10
1.19571542608e-09
3.37204082632e-09
5.66780751765e-09
7.061593966e-09
8.31446650639e-09
1.17085529977e-08
1.48258976432e-08
1.87454311102e-08
2.82288943653e-08
3.18935090851e-08
3.23227617105e-08
3.13218146807e-08
6.73362455428e-08
9.20054295445e-07
2.4505347923e-06
3.40867719125e-06
4.02018767183e-06
4.57100867178e-06
1.15948346587e-10
3.42142314456e-10
1.17683609407e-09
3.33832314346e-09
5.67079625844e-09
7.08875249743e-09
8.34656267342e-09
1.17763867133e-08
1.48938401239e-08
1.85449468019e-08
2.79445961796e-08
3.18383377219e-08
3.23173985681e-08
3.12569724607e-08
6.94307841383e-08
9.35479186491e-07
2.46772117964e-06
3.42587417157e-06
4.03645457152e-06
4.58656185261e-06
1.14154088131e-10
3.35344278069e-10
1.14683755031e-09
3.2771220894e-09
5.65362721767e-09
7.10421639526e-09
8.36585835883e-09
1.17987668757e-08
1.48868232957e-08
1.82669545752e-08
2.75519185962e-08
3.17608626971e-08
3.23113000239e-08
3.11944875162e-08
7.14133886006e-08
9.49445769571e-07
2.48300869395e-06
3.44181546268e-06
4.05206210546e-06
4.60187364285e-06
1.11587008556e-10
3.25080619515e-10
1.10521493293e-09
3.19590960317e-09
5.61621633147e-09
7.10756014293e-09
8.37825987192e-09
1.1752011616e-08
1.48024986651e-08
1.79338943862e-08
2.70560231848e-08
3.16572079912e-08
3.23038382703e-08
3.11343907695e-08
7.32873674578e-08
9.62046568664e-07
2.49653574007e-06
3.4565693302e-06
4.06701107547e-06
4.61694685456e-06
1.07989884289e-10
3.10578602005e-10
1.05093949188e-09
3.0966274743e-09
5.55998631838e-09
7.09946171573e-09
8.37658983138e-09
1.16485549971e-08
1.46573235438e-08
1.7572181602e-08
2.64728155013e-08
3.15243673133e-08
3.22942937253e-08
3.10762074912e-08
7.50718729204e-08
9.73497617568e-07
2.50857641243e-06
3.47028316868e-06
4.08133813874e-06
4.63178427818e-06
1.0366940976e-10
2.93357251386e-10
9.88178677624e-10
2.98105965095e-09
5.48807496705e-09
7.08215328889e-09
8.36315997937e-09
1.15153701022e-08
1.44695271962e-08
1.72059560348e-08
2.58269934218e-08
3.13608940975e-08
3.22819426685e-08
3.1019014167e-08
7.67983659772e-08
9.84100304306e-07
2.51949273653e-06
3.48315726628e-06
4.09510779803e-06
4.64638946044e-06
9.92714282131e-11
2.75817712579e-10
9.23030176637e-10
2.85450368575e-09
5.40348239653e-09
7.05871566853e-09
8.34765679063e-09
1.1374837646e-08
1.42580865975e-08
1.68534514458e-08
2.51479503568e-08
3.11674205846e-08
3.22661612442e-08
3.09615570768e-08
7.85055591099e-08
9.9419515867e-07
2.52968138579e-06
3.49541533893e-06
4.10840179168e-06
4.66076827007e-06
9.52336066978e-11
2.59545857431e-10
8.60236374254e-10
2.72361505391e-09
5.31287444779e-09
7.03204078394e-09
8.33749086758e-09
1.12421314068e-08
1.40426752702e-08
1.65264518125e-08
2.44648495211e-08
3.09467837001e-08
3.22465205743e-08
3.09023902167e-08
8.02345493431e-08
1.00412104963e-06
2.53952918253e-06
3.50728032152e-06
4.12130969008e-06
4.67493077402e-06
9.17025832465e-11
2.45176950922e-10
8.026072002e-10
2.59408437009e-09
5.21916092513e-09
7.00436728589e-09
8.33502421771e-09
1.11259460389e-08
1.38406441445e-08
1.62320438293e-08
2.38025848371e-08
3.07037217242e-08
3.22228540903e-08
3.08399906075e-08
8.20255355247e-08
1.01418957025e-06
2.54938706826e-06
3.51896103766e-06
4.13392338889e-06
4.6888929068e-06
8.86747456479e-11
2.3276882675e-10
7.51316306793e-10
2.4697653999e-09
5.12512959886e-09
6.97722443387e-09
8.33988407492e-09
1.10296066618e-08
1.36648713415e-08
1.59747130224e-08
2.31797611506e-08
3.04443549715e-08
3.2195293474e-08
3.07728149067e-08
8.39168269178e-08
1.02467856882e-06
2.55956570847e-06
3.5306512391e-06
4.14633637671e-06
4.70267740667e-06
8.60948234441e-11
2.22113815019e-10
7.06381748436e-10
2.35277714781e-09
5.03279200994e-09
6.95143212318e-09
8.35092229016e-09
1.09528174672e-08
1.35228715038e-08
1.57571280921e-08
2.26087033532e-08
3.01757797701e-08
3.21642935009e-08
3.06992832344e-08
8.59460216042e-08
1.03584229698e-06
2.57034888514e-06
3.54253849045e-06
4.15864725655e-06
4.71631439903e-06
8.38999196265e-11
2.12951895297e-10
6.67308613023e-10
2.24417631345e-09
4.94351746784e-09
6.92759344657e-09
8.36642130395e-09
1.08935041773e-08
1.34166714329e-08
1.55796588688e-08
2.20966819815e-08
2.99059637462e-08
3.21306703842e-08
3.06177036157e-08
8.8152484175e-08
1.04793006247e-06
2.58201473931e-06
3.55481673186e-06
4.17096503369e-06
4.72984169779e-06
8.20393952784e-11
2.05079805417e-10
6.33558203541e-10
2.14518246828e-09
4.85886591993e-09
6.90681695448e-09
8.38501669637e-09
1.08502343631e-08
1.33461040345e-08
1.54413385527e-08
2.16480794337e-08
2.96438205491e-08
3.2095658874e-08
3.05261766914e-08
9.0579884272e-08
1.06120326047e-06
2.59485333248e-06
3.56769572099e-06
4.18341332012e-06
4.74330493719e-06
8.04838058083e-11
1.98409474042e-10
6.04791144173e-10
2.05737479628e-09
4.78185579385e-09
6.89098989853e-09
8.41113531075e-09
1.08238013235e-08
1.3308832431e-08
1.53400421491e-08
2.12683469536e-08
2.9399362029e-08
3.20609541533e-08
3.04225302457e-08
9.32775944054e-08
1.07594202199e-06
2.60917119613e-06
3.58140207689e-06
4.19613106963e-06
4.7567573551e-06
7.92317198089e-11
1.92980103756e-10
5.81120068042e-10
1.98290014188e-09
4.71732275859e-09
6.88312263224e-09
8.44564687807e-09
1.08155000799e-08
1.32951853284e-08
1.52770311159e-08
2.09640263694e-08
2.91841618718e-08
3.2028674144e-08
3.03043293562e-08
9.63000870926e-08
1.0924364872e-06
2.62527849852e-06
3.59616990943e-06
4.20926903139e-06
4.7702593858e-06
7.83288989355e-11
1.88992077938e-10
5.63258759952e-10
1.92542387563e-09
4.67125523862e-09
6.88696565536e-09
8.48893721326e-09
1.08211619133e-08
1.33003142779e-08
1.52577079959e-08
2.07413267938e-08
2.90104257003e-08
3.20011661805e-08
3.01689966865e-08
9.97038386609e-08
1.11096146604e-06
2.64345895642e-06
3.61222145448e-06
4.22298182238e-06
4.78387780637e-06
7.78704088329e-11
1.86776836153e-10
5.52349987473e-10
1.8895810874e-09
4.64811221445e-09
6.90646713995e-09
8.54333038199e-09
1.08348706043e-08
1.33549226882e-08
1.5281644384e-08
2.06047153754e-08
2.88895215059e-08
3.19806397659e-08
3.00140695852e-08
1.0354148554e-07
1.13173589359e-06
2.66392557589e-06
3.62973923688e-06
4.23741518672e-06
4.79768307683e-06
7.78537680419e-11
1.86335279617e-10
5.48226369333e-10
1.87520879666e-09
4.65527979526e-09
6.94527719236e-09
8.61147426742e-09
1.08687904737e-08
1.34736219028e-08
1.53748647898e-08
2.05562518574e-08
2.88291370665e-08
3.19686674848e-08
2.98376090571e-08
1.07853209107e-07
1.15487087462e-06
2.68676786683e-06
3.64883234739e-06
4.25268811744e-06
4.81174313134e-06
7.82753536269e-11
1.87568318089e-10
5.50022585882e-10
1.8813631588e-09
4.69755191237e-09
7.00579261037e-09
8.69527128494e-09
1.09316596781e-08
1.36130643194e-08
1.55657304952e-08
2.06186567333e-08
2.88335963514e-08
3.19657012267e-08
2.96387455478e-08
1.12655805619e-07
1.18031343661e-06
2.71189948133e-06
3.66950169455e-06
4.26887139803e-06
4.82611335776e-06
7.93848668291e-11
1.91213351657e-10
5.60391343475e-10
1.91647686864e-09
4.77701582583e-09
7.08829048424e-09
8.79543433112e-09
1.10229710868e-08
1.37861632734e-08
1.57927148251e-08
2.07696298243e-08
2.8899195894e-08
3.19707851248e-08
2.94182917441e-08
1.17930652541e-07
1.20779664042e-06
2.73901817691e-06
3.69161183614e-06
4.28596718585e-06
4.84082549663e-06
8.1243940054e-11
1.97422485065e-10
5.80111823441e-10
1.98081350515e-09
4.89044809675e-09
7.19030601669e-09
8.91096575783e-09
1.11385350907e-08
1.40091049869e-08
1.60665223195e-08
2.09796128977e-08
2.90112864217e-08
3.19816196919e-08
2.91792807978e-08
1.23612671242e-07
1.23680851654e-06
2.76758987638e-06
3.71487762413e-06
4.30389564579e-06
4.8558797118e-06
8.37427473315e-11
2.05809533775e-10
6.07793591223e-10
2.06775948854e-09
5.02847948155e-09
7.30629610357e-09
9.03870219521e-09
1.12735238697e-08
1.42766843399e-08
1.64008827656e-08
2.12378070277e-08
2.91514265078e-08
3.19949583789e-08
2.89272375702e-08
1.29583128648e-07
1.26659135554e-06
2.79686518445e-06
3.73887201752e-06
4.32249376375e-06
4.87124346421e-06
8.67075065759e-11
2.15843168432e-10
6.41402217879e-10
2.16823021333e-09
5.17709833709e-09
7.4280433803e-09
9.17343351205e-09
1.14219427149e-08
1.45719259599e-08
1.67803723926e-08
2.15125450004e-08
2.92944289791e-08
3.20071496761e-08
2.86699936244e-08
1.35669595584e-07
1.29618002968e-06
2.82593166886e-06
3.76305778226e-06
4.34152870716e-06
4.88685814466e-06
8.99306506141e-11
2.26879027652e-10
6.78337955668e-10
2.27070826882e-09
5.31883271317e-09
7.54584110539e-09
9.3086240851e-09
1.15756800688e-08
1.48727087694e-08
1.71724634989e-08
2.17553213233e-08
2.94110104961e-08
3.20145970887e-08
2.84169418047e-08
1.41656235127e-07
1.32448391362e-06
2.85380057177e-06
3.78684206018e-06
4.36072538045e-06
4.90265251701e-06
9.31437824223e-11
2.37926274491e-10
7.1442928947e-10
2.36025643672e-09
5.43515682284e-09
7.65028488753e-09
9.43722397867e-09
1.17248768364e-08
1.51521834097e-08
1.75297192958e-08
2.19084793021e-08
2.94705738541e-08
3.20139212652e-08
2.81778012463e-08
1.47305928894e-07
1.35040834995e-06
2.87951940078e-06
3.80964758024e-06
4.37980450756e-06
4.91856020428e-06
9.5896834872e-11
2.47171344544e-10
7.42525302092e-10
2.41844022765e-09
5.51217306406e-09
7.73348611582e-09
9.55175097141e-09
1.1857840757e-08
1.53741170448e-08
1.77852668616e-08
2.19211489907e-08
2.94441176473e-08
3.20017529422e-08
2.79611533135e-08
1.52392595709e-07
1.37300096652e-06
2.90229522794e-06
3.83098984607e-06
4.39852511682e-06
4.93453787962e-06
9.73977827396e-11
2.51600011806e-10
7.52890531658e-10
2.42710870766e-09
5.54019500765e-09
7.78884628152e-09
9.64476841752e-09
1.19549501029e-08
1.54915591786e-08
1.7910291105e-08
2.17853489969e-08
2.93086570782e-08
3.1974278708e-08
2.77731061456e-08
1.56738193343e-07
1.3915984047e-06
2.92160924116e-06
3.85054721706e-06
4.41672413281e-06
4.9505814356e-06
9.7086960407e-11
2.49378799445e-10
7.42408937851e-10
2.38417939292e-09
5.50285699099e-09
7.80811555241e-09
9.70689505259e-09
1.19917918913e-08
1.55080108143e-08
1.79488361773e-08
2.14894590487e-08
2.90450603733e-08
3.19268249042e-08
2.7616392653e-08
1.60246213963e-07
1.40594652201e-06
2.93730654702e-06
3.86821445301e-06
4.43434845251e-06
4.96674128367e-06
9.56253106228e-11
2.42718216644e-10
7.18327289592e-10
2.30469935823e-09
5.39492675161e-09
7.79047246973e-09
9.73837853565e-09
1.19801331802e-08
1.54559009366e-08
1.78518537488e-08
2.10435196258e-08
2.86430550747e-08
3.18537936258e-08
2.74900106094e-08
1.62924721356e-07
1.41628232736e-06
2.94966184013e-06
3.88414048656e-06
4.45148110116e-06
4.98314078285e-06
9.3207611257e-11
2.31976325392e-10
6.80301226681e-10
2.1898143583e-09
5.23835212557e-09
7.72667975668e-09
9.72571574271e-09
1.19457673922e-08
1.53059723334e-08
1.76348325139e-08
2.05124856386e-08
2.81081863977e-08
3.17493133591e-08
2.73892957293e-08
1.64898452261e-07
1.42340531779e-06
2.95944321405e-06
3.89867295194e-06
4.46828499599e-06
5.00001037751e-06
8.85587744951e-11
2.1304203255e-10
6.14421846026e-10
2.00865518707e-09
5.02417229473e-09
7.63821080975e-09
9.69977908804e-09
1.18566941722e-08
1.4933932211e-08
1.70810033487e-08
1.9775170291e-08
2.74239055881e-08
3.16012565581e-08
2.73011613388e-08
1.66390441736e-07
1.4285850483e-06
2.96761067734e-06
3.9115212099e-06
4.48276396416e-06
5.01457422959e-06
)
;

boundaryField
{
    emptyPatch
    {
        type            empty;
    }
    minY
    {
        type            zeroGradient;
    }
    maxY
    {
        type            calculated;
        value           nonuniform List<scalar> 
40
(
3.55355217702e-06
4.67461897312e-06
4.09926797564e-06
2.68561711794e-06
1.8024363658e-06
1.196645058e-06
6.04350326573e-07
3.80239818635e-07
4.98531093061e-07
6.50520649738e-07
6.63379187035e-07
5.34949687621e-07
3.54464029968e-07
2.02009342052e-07
6.15402664468e-08
1.07403405888e-08
1.06399899205e-09
1.28846015271e-10
5.12288013866e-11
5.27441088918e-11
8.85539718417e-11
2.13030214437e-10
6.14387151229e-10
2.00854015072e-09
5.02388129211e-09
7.63776435069e-09
9.69920787613e-09
1.1855991613e-08
1.49330427729e-08
1.70799816092e-08
1.97739828367e-08
2.74222530463e-08
3.15993457679e-08
2.72995048622e-08
1.66380323055e-07
1.4284981805e-06
2.96743047128e-06
3.91128396747e-06
4.4824926346e-06
5.01426952933e-06
)
;
    }
    maxX
    {
        type            compressible::alphatPhaseChangeJayatillekeWallFunction;
        Prt             0.85;
        Cmu             0.09;
        kappa           0.41;
        E               9.8;
        dmdt            uniform 0;
        value           uniform 0;
    }
    water_to_heater
    {
        type            compressible::alphatWallBoilingWallFunction;
        phaseType       vapor;
        relax           constant 1;
        partitioningModel
        {
            type            Lavieville;
            alphaCrit       0.2;
        }
        otherPhase      liquid;
        dmdt            uniform 0;
        dDep            uniform 1e-05;
        qQuenching      uniform 0;
        alphatConv      uniform 0;
        value           nonuniform List<scalar> 
59
(
7.66200848942e-08
7.66200848942e-08
6.59795296215e-08
4.53441121699e-08
3.39423866681e-08
3.39423866681e-08
3.18387057426e-08
3.18387057426e-08
3.15192420249e-08
3.15192420249e-08
3.18024337146e-08
3.03300483101e-08
3.18024337146e-08
3.18024337146e-08
2.99123069455e-08
2.99123069455e-08
3.18024337146e-08
3.18024337146e-08
2.94675800459e-07
1.25551280669e-06
1.30703417362e-06
1.30703417362e-06
1.25551280669e-06
1.25551280669e-06
1.28397455745e-06
1.28397455745e-06
1.25551280669e-06
1.176342241e-06
7.04270536343e-07
7.04270536343e-07