/*--------------------------------*- C++ -*----------------------------------*\
| =========                 |                                                 |
| \\      /  F ield         | OpenFOAM: The Open Source CFD Toolbox           |
|  \\    /   O peration     | Version:  2312                                  |
|   \\  /    A nd           | Website:  www.openfoam.com                      |
|    \\/     M anipulation  |                                                 |
\*---------------------------------------------------------------------------*/
FoamFile
{
    version     2.0;
    format      ascii;
    arch        "LSB;label=32;scalar=64";
    class       volScalarField;
    location    "0.765/water";
    object      nut.gas;
}
// * * * * * * * * * * * * * * * * * * * * * * * * * * * * * * * * * * * * * //

dimensions      [0 2 -1 0 0 0 0];

internalField   nonuniform List<scalar> 
6000
(
3.10827953144e-07
1.18057951224e-07
4.86967453126e-08
3.28083631665e-08
1.32120759559e-07
9.8643692458e-07
4.13451158591e-06
9.240621658e-06
1.38655148897e-05
1.67822459799e-05
1.8304438625e-05
1.90109589052e-05
1.93056291081e-05
1.94106702092e-05
1.94357661912e-05
1.94311298637e-05
1.94181246362e-05
1.94049902661e-05
1.93943835292e-05
1.93868020067e-05
1.6195412745e-06
9.72430350584e-07
4.6732533896e-07
2.43008715254e-07
1.00964677872e-07
7.64961617242e-08
1.6888856437e-07
1.0003975084e-06
4.28379566694e-06
9.65799477852e-06
1.42576421928e-05
1.70453071034e-05
1.84595651259e-05
1.90957443133e-05
1.93474503027e-05
1.94266003267e-05
1.94360205956e-05
1.94219190479e-05
1.94034724073e-05
1.93878012313e-05
2.25696594612e-06
1.63077718217e-06
1.00796728298e-06
5.52298515248e-07
2.98662036612e-07
1.42223243542e-07
1.02834451547e-07
2.5123881837e-07
1.35332136424e-06
4.79548451085e-06
9.79915640026e-06
1.41117706331e-05
1.68812700864e-05
1.83781398014e-05
1.90899837298e-05
1.93854744016e-05
1.94831512449e-05
1.94970460626e-05
1.94814728768e-05
1.94601823623e-05
2.67403614985e-06
2.03425447154e-06
1.38738128778e-06
8.50800101015e-07
5.58181684779e-07
2.59838200868e-07
1.39052794988e-07
1.34978712746e-07
5.14978458858e-07
2.37687645813e-06
6.41705707287e-06
1.11248501359e-05
1.4870696986e-05
1.7255236675e-05
1.8563661221e-05
1.91967553511e-05
1.94613475134e-05
1.95463871261e-05
1.95543631586e-05
1.9535773984e-05
2.9630297615e-06
2.33015291208e-06
1.66621353071e-06
1.10888813015e-06
6.64261572718e-07
4.42304605953e-07
1.90843961132e-07
1.24666710555e-07
2.44897546743e-07
1.20725138925e-06
4.1460689659e-06
8.57090561203e-06
1.28013177834e-05
1.58989323387e-05
1.78142420801e-05
1.88545996389e-05
1.9352827804e-05
1.95548534613e-05
1.96126766335e-05
1.96097374595e-05
3.12285559711e-06
2.53684251419e-06
1.88092375437e-06
1.31309968595e-06
8.53662616536e-07
4.86850741755e-07
2.98497709308e-07
1.29962478238e-07
1.46667472314e-07
6.10858238756e-07
2.62413663521e-06
6.50503175851e-06
1.08679538126e-05
1.44615561691e-05
1.69143828153e-05
1.83767658698e-05
1.91500458965e-05
1.95073465837e-05
1.96412132807e-05
1.96687522766e-05
3.17443835377e-06
2.64532097585e-06
2.0211305437e-06
1.46212364038e-06
1.00211903707e-06
6.28714363169e-07
3.33455645328e-07
1.76088422119e-07
9.9762011165e-08
2.98399606738e-07
1.5850611643e-06
4.84902109064e-06
9.13859297308e-06
1.30461114996e-05
1.59385039879e-05
1.77991289113e-05
1.8862847166e-05
1.9401389111e-05
1.9633547787e-05
1.97060762492e-05
3.17904449239e-06
2.6655637064e-06
2.07515975413e-06
1.54594075659e-06
1.10545638418e-06
7.41844259306e-07
4.373007859e-07
2.19745832497e-07
9.63640446892e-08
1.32183202849e-07
8.64361085035e-07
3.51118339989e-06
7.62016705428e-06
1.17101207373e-05
1.49448316141e-05
1.71588541325e-05
1.85074926989e-05
1.92401906073e-05
1.95870017281e-05
1.9717295504e-05
3.17350045176e-06
2.66595243949e-06
2.0903190822e-06
1.58656027909e-06
1.17286922914e-06
8.28630262922e-07
5.30371648081e-07
2.75871825488e-07
1.31332187817e-07
6.90005147537e-08
3.68850780585e-07
2.37642845122e-06
6.27224672548e-06
1.04681068006e-05
1.3967224389e-05
1.64851202637e-05
1.81006388249e-05
1.90297045503e-05
1.9501337326e-05
1.96996048141e-05
3.15636436916e-06
2.64712099512e-06
2.08078959971e-06
1.6018427703e-06
1.21744704583e-06
8.95086834774e-07
6.07064753311e-07
3.4869587551e-07
1.45269986602e-07
6.78071483525e-08
1.24996808946e-07
1.36635722599e-06
5.01984613696e-06
9.28557727921e-06
1.3001717536e-05
1.57872000549e-05
1.76514189442e-05
1.87745065872e-05
1.93766590545e-05
1.96510011916e-05
3.11124326506e-06
2.60247479719e-06
2.05445817573e-06
1.60768652086e-06
1.25341603197e-06
9.48858991271e-07
6.69366520186e-07
4.11954866e-07
1.9038612548e-07
6.37870811676e-08
5.95949929801e-08
5.69941349686e-07
3.71272478062e-06
8.02998446795e-06
1.19746262252e-05
1.50379450671e-05
1.71523512565e-05
1.84718756629e-05
1.92123945892e-05
1.95718875298e-05
3.05362591859e-06
2.54926998537e-06
2.03706907402e-06
1.6270214794e-06
1.29375103752e-06
9.96154713764e-07
7.20448979675e-07
4.6594600639e-07
2.33627495612e-07
7.55527163563e-08
4.62370305986e-08
1.85704543123e-07
2.26602837216e-06
6.49250908753e-06
1.07395508767e-05
1.4165367149e-05
1.65787373432e-05
1.8119067794e-05
1.90113658822e-05
1.94648437744e-05
3.02322238174e-06
2.54409752188e-06
2.06922776534e-06
1.67635437412e-06
1.34227709407e-06
1.03900540679e-06
7.64253129811e-07
5.13875750782e-07
2.76297277943e-07
9.63305860292e-08
3.64618701929e-08
6.51962710638e-08
9.57656180952e-07
4.5972228127e-06
9.17433802611e-06
1.31039385339e-05
1.5907416899e-05
1.77117792342e-05
1.87758932329e-05
1.93335549727e-05
3.11067562324e-06
2.66517781325e-06
2.18457470538e-06
1.75890558017e-06
1.39287987517e-06
1.07591078306e-06
8.03576578719e-07
5.59778118072e-07
3.22866367224e-07
1.27099674324e-07
3.99321418517e-08
3.9728632449e-08
2.74860752065e-07
2.63580930618e-06
7.23984612152e-06
1.17789722353e-05
1.51003443842e-05
1.72377650479e-05
1.850527263e-05
1.91809964606e-05
3.3622739462e-06
2.90350384503e-06
2.34685899871e-06
1.8386189716e-06
1.42818492838e-06
1.10303256376e-06
8.38458490727e-07
6.06404423689e-07
3.79588429136e-07
1.69128309332e-07
5.07936959596e-08
2.92541038563e-08
7.29311585502e-08
1.10229198906e-06
5.05964969007e-06
1.01324210785e-05
1.41102529439e-05
1.66762201872e-05
1.81935193487e-05
1.90072643194e-05
3.66378029966e-06
3.09209903781e-06
2.42684714442e-06
1.86388169668e-06
1.43839460534e-06
1.1182503308e-06
8.6739463566e-07
6.53872270554e-07
4.42974162814e-07
2.2198017237e-07
6.71687226765e-08
2.74727710183e-08
4.09211395611e-08
2.8069635751e-07
2.94356943983e-06
8.19605794549e-06
1.29036435151e-05
1.60024107982e-05
1.78288167803e-05
1.88081320055e-05
3.75322236741e-06
3.13930493247e-06
2.45549901827e-06
1.87455018663e-06
1.44088505942e-06
1.1258475783e-06
8.89325201861e-07
6.95151558284e-07
5.02281379593e-07
2.79157160126e-07
8.93482869271e-08
3.03920971779e-08
2.67165877898e-08
7.58454771358e-08
1.2049727884e-06
6.09037755949e-06
1.14719771248e-05
1.51917794272e-05
1.73944023899e-05
1.85749855977e-05
3.82425228636e-06
3.19397911446e-06
2.48761422581e-06
1.8895918313e-06
1.44671910452e-06
1.13240966981e-06
9.05880810992e-07
7.27826667089e-07
5.50840682161e-07
3.28769633284e-07
1.11544198195e-07
3.38614240019e-08
2.56342192869e-08
4.62947488381e-08
2.92551024164e-07
3.94259834875e-06
9.85311185246e-06
1.42296733036e-05
1.68718554181e-05
1.82961772933e-05
3.84226056947e-06
3.21516478076e-06
2.50214065272e-06
1.89709412768e-06
1.45034677225e-06
1.13707537041e-06
9.17913151317e-07
7.52862561502e-07
5.88840681871e-07
3.67413583894e-07
1.28861650198e-07
3.6107269505e-08
2.46639115665e-08
3.22645494542e-08
1.06681356844e-07
1.96215707624e-06
8.11540780438e-06
1.31104470828e-05
1.62417533768e-05
1.79580731508e-05
3.85440096203e-06
3.22477534758e-06
2.50729052907e-06
1.89695494601e-06
1.44853854461e-06
1.13810247275e-06
9.26737791902e-07
7.74007883194e-07
6.20261715532e-07
3.95317645037e-07
1.39638119018e-07
3.69071562453e-08
2.36273604729e-08
2.85389071552e-08
7.35619452699e-08
7.17006460304e-07
6.30000587727e-06
1.18228474806e-05
1.54816129621e-05
1.75451901285e-05
3.85214417956e-06
3.23123919218e-06
2.51105451666e-06
1.89400645572e-06
1.44427852096e-06
1.13843622196e-06
9.36839961245e-07
7.97099325951e-07
6.48255523822e-07
4.13698094709e-07
1.45722863543e-07
3.70944335723e-08
2.28282087545e-08
2.57307502246e-08
4.54425246583e-08
3.07060402037e-07
4.54221999895e-06
1.03633415869e-05
1.45695914622e-05
1.70407991834e-05
3.86451383704e-06
3.2416980303e-06
2.51643953238e-06
1.89354354636e-06
1.44347500433e-06
1.14336212007e-06
9.53052150441e-07
8.2356150219e-07
6.71827697673e-07
4.25829760542e-07
1.51210698313e-07
3.78840300611e-08
2.25349870021e-08
2.39696902659e-08
3.30871315461e-08
1.59851236989e-07
2.92602741301e-06
8.70834324213e-06
1.34775494017e-05
1.64252531351e-05
3.8746820233e-06
3.25351216771e-06
2.52248851132e-06
1.89763686156e-06
1.4498372518e-06
1.15641307326e-06
9.76404420736e-07
8.50399916176e-07
6.90605299909e-07
4.35287271884e-07
1.59286491845e-07
4.00816802965e-08
2.28082526341e-08
2.33140852036e-08
2.81829555246e-08
8.96062735731e-08
1.65472922349e-06
6.8962203574e-06
1.21804257094e-05
1.56769514926e-05
3.9075850011e-06
3.26641682503e-06
2.5253195464e-06
1.90294326619e-06
1.46218656225e-06
1.17744298523e-06
1.00352602342e-06
8.74983870898e-07
7.05311891742e-07
4.43738336901e-07
1.70690165441e-07
4.36982094781e-08
2.34929628305e-08
2.34815776515e-08
2.66066593617e-08
5.82450818393e-08
8.2203790135e-07
5.06882039451e-06
1.06762223411e-05
1.47775130708e-05
3.92780372642e-06
3.26610109394e-06
2.52034159271e-06
1.90803575692e-06
1.48097662608e-06
1.20533729288e-06
1.03224821343e-06
8.96718043695e-07
7.14343800964e-07
4.49407539263e-07
1.81816901858e-07
4.81466381445e-08
2.42669473767e-08
2.40423404613e-08
2.67563133466e-08
4.60886119624e-08
3.4438395143e-07
3.38150171023e-06
8.98623565382e-06
1.3715075751e-05
3.9018205504e-06
3.2201279603e-06
2.4972073112e-06
1.9196638553e-06
1.51455269835e-06
1.24284481514e-06
1.06262444672e-06
9.1323802806e-07
7.14434588378e-07
4.48575750157e-07
1.89980451151e-07
5.36089919404e-08
2.50311932155e-08
2.45262722903e-08
2.73711935203e-08
3.22439584368e-08
1.27993335443e-07
2.00136746033e-06
7.19252490796e-06
1.24924965556e-05
3.7970291758e-06
3.14448282775e-06
2.49473648803e-06
1.968850617e-06
1.57678176137e-06
1.29204111564e-06
1.09205755957e-06
9.18841554472e-07
7.0215499469e-07
4.42022548254e-07
2.01659294572e-07
6.03940562482e-08
2.57919748106e-08
2.45970472668e-08
2.77440567095e-08
3.16761043652e-08
6.81607035439e-08
1.01405635464e-06
5.43946122677e-06
1.11297692397e-05
3.7381833806e-06
3.16666296241e-06
2.58521449574e-06
2.08018704658e-06
1.66461186832e-06
1.34309133204e-06
1.10883919029e-06
9.06182329121e-07
6.84635425172e-07
4.45634629718e-07
2.19673560885e-07
6.90383046495e-08
2.67828387704e-08
2.44603491205e-08
2.74714670318e-08
3.11026775112e-08
4.86486773205e-08
3.90227003267e-07
3.82449923948e-06
9.64838585155e-06
3.87031751683e-06
3.38076273875e-06
2.8027541687e-06
2.23986610458e-06
1.74769032437e-06
1.37367762731e-06
1.10613970665e-06
8.89263227676e-07
6.8067397741e-07
4.6547593136e-07
2.46871108659e-07
8.14874266715e-08
2.84627803634e-08
2.43163005021e-08
2.68739827786e-08
3.00307683806e-08
3.59406263609e-08
1.37986509854e-07
2.37875975955e-06
8.06844836995e-06
4.23527013417e-06
3.77375248203e-06
3.09911837567e-06
2.3888484162e-06
1.80839671108e-06
1.39238825498e-06
1.10426399424e-06
8.86817757822e-07
6.97970108886e-07
5.04781363461e-07
2.88717919309e-07
1.01066503298e-07
3.15589969054e-08
2.43805152642e-08
2.63576600263e-08
2.88117360603e-08
3.27632781371e-08
7.85995145452e-08
1.1786770658e-06
6.42859648722e-06
4.76401197071e-06
4.20709205622e-06
3.3357689629e-06
2.49756070948e-06
1.86460107498e-06
1.42288427429e-06
1.1197975649e-06
9.03704726399e-07
7.32732705125e-07
5.60941757307e-07
3.48233645552e-07
1.32085538166e-07
3.71998458275e-08
2.48825243179e-08
2.61282473767e-08
2.78448200559e-08
3.03851645565e-08
4.97112499334e-08
4.29369478751e-07
4.77546748211e-06
5.0657143175e-06
4.33446804832e-06
3.40651312112e-06
2.57052234797e-06
1.92794564514e-06
1.46790643306e-06
1.14977280279e-06
9.3135067892e-07
7.73078231623e-07
6.2256697322e-07
4.19835897517e-07
1.7657429991e-07
4.6756163705e-08
2.60211780849e-08
2.62160340235e-08
2.73157933567e-08
2.87126150643e-08
3.65599795977e-08
1.59556637943e-07
3.12804877096e-06
5.16058317998e-06
4.39086601495e-06
3.45104626599e-06
2.62470823945e-06
1.9828376393e-06
1.51027387442e-06
1.18002507302e-06
9.57674864255e-07
8.07152423025e-07
6.75518884556e-07
4.89294491865e-07
2.29669236261e-07
6.09834866757e-08
2.79570247468e-08
2.6549871463e-08
2.71695904263e-08
2.7662607067e-08
3.23509491864e-08
9.38904345128e-08
1.61633387131e-06
5.26965418343e-06
4.47368103968e-06
3.50771998121e-06
2.66862105117e-06
2.01659667898e-06
1.53403613707e-06
1.19875984469e-06
9.75331998064e-07
8.2995753756e-07
7.11879039784e-07
5.419722872e-07
2.8000859232e-07
7.91356873527e-08
3.08387919733e-08
2.70357624067e-08
2.72404541783e-08
2.70338658656e-08
2.9736013372e-08
5.94426403657e-08
6.24261650227e-07
5.32622513703e-06
4.53692091846e-06
3.55898592677e-06
2.70238812284e-06
2.03589065172e-06
1.54675688833e-06
1.21023198133e-06
9.87390486278e-07
8.45304690711e-07
7.34718329235e-07
5.73730543857e-07
3.13785072975e-07
9.61922262645e-08
3.44100868603e-08
2.76009651167e-08
2.73725319652e-08
2.66454808908e-08
2.79591987491e-08
4.14022230881e-08
2.43949299466e-07
5.382859098e-06
4.58821537309e-06
3.59161667211e-06
2.71348250222e-06
2.03470843756e-06
1.54731769743e-06
1.2152021984e-06
9.95471598258e-07
8.56543658137e-07
7.49200297163e-07
5.8946993854e-07
3.29145652478e-07
1.06189901224e-07
3.7145683303e-08
2.80877237718e-08
2.74872067928e-08
2.64342807338e-08
2.67340545239e-08
3.48384616791e-08
1.35927088809e-07
5.40935444248e-06
4.6175349035e-06
3.59626174726e-06
2.69621745667e-06
2.01347597832e-06
1.53678393794e-06
1.21381953653e-06
9.99815851653e-07
8.65001851187e-07
7.57554650236e-07
5.91949920336e-07
3.28327647312e-07
1.08572997761e-07
3.84944893305e-08
2.83847377865e-08
2.75611356751e-08
2.63797780526e-08
2.59635385225e-08
3.05119929484e-08
9.4874458634e-08
5.43956570052e-06
4.61228577973e-06
3.56246473049e-06
2.64929139113e-06
1.9779960708e-06
1.51951609491e-06
1.20807063716e-06
1.00165586125e-06
8.71438654188e-07
7.59902118591e-07
5.8220292423e-07
3.14612926754e-07
1.05201954379e-07
3.86982781905e-08
2.85036395985e-08
2.76168712497e-08
2.64552933319e-08
2.55845667204e-08
2.78260961466e-08
6.78248264959e-08
5.44794576994e-06
4.57813760371e-06
3.50138638416e-06
2.58569807895e-06
1.93588061657e-06
1.49774337942e-06
1.19875479536e-06
1.00170331252e-06
8.75375538691e-07
7.55015874045e-07
5.60910253128e-07
2.9197099922e-07
9.86771082002e-08
3.8262602298e-08
2.85010873267e-08
2.76555176391e-08
2.6613858823e-08
2.55467295367e-08
2.63943836057e-08
4.62676938779e-08
5.47728708753e-06
4.53842932704e-06
3.43795615027e-06
2.52644235387e-06
1.89481676748e-06
1.47289427355e-06
1.18682340871e-06
1.00065227235e-06
8.7520598859e-07
7.41248616443e-07
5.29175862122e-07
2.64484601697e-07
9.11889441663e-08
3.75925054488e-08
2.84091170941e-08
2.76541997429e-08
2.68050753055e-08
2.57862062789e-08
2.58687274499e-08
3.36339686709e-08
5.4383446468e-06
4.46938114311e-06
3.37090137665e-06
2.47432128266e-06
1.8569409079e-06
1.447862022e-06
1.17565659699e-06
9.98580094054e-07
8.68979488637e-07
7.17807737495e-07
4.89129996668e-07
2.36051137662e-07
8.41994827118e-08
3.68963419902e-08
2.82372273467e-08
2.75924336062e-08
2.69551219329e-08
2.60946003254e-08
2.59241301151e-08
2.97476223084e-08
5.3581682999e-06
4.36116369656e-06
3.2833934063e-06
2.41707311314e-06
1.8204050256e-06
1.42784051859e-06
1.16916968396e-06
9.94652093984e-07
8.56457416385e-07
6.85078152286e-07
4.44665481483e-07
2.10294497752e-07
7.86614219611e-08
3.63412305565e-08
2.80355679495e-08
2.74454591715e-08
2.698480875e-08
2.63137579106e-08
2.62577549789e-08
2.83767409954e-08
5.16187284802e-06
4.18146230848e-06
3.15586399082e-06
2.34426218044e-06
1.78822394018e-06
1.42118984995e-06
1.16946157168e-06
9.90566322555e-07
8.39049820718e-07
6.44513813503e-07
4.01540732472e-07
1.90344105944e-07
7.53726349762e-08
3.62226544077e-08
2.78869217282e-08
2.71886676865e-08
2.68791425361e-08
2.6413484537e-08
2.66703568585e-08
2.80454480618e-08
4.9097474649e-06
3.93760525979e-06
2.98522846752e-06
2.2653354638e-06
1.77894863706e-06
1.43833497032e-06
1.18154534155e-06
9.90885472688e-07
8.16105543438e-07
6.00853709556e-07
3.66795235279e-07
1.78753500266e-07
7.52587361661e-08
3.7007087652e-08
2.79008849985e-08
2.68439193333e-08
2.66664434037e-08
2.64454684736e-08
2.70055783683e-08
2.81858651886e-08
4.53698293136e-06
3.605558723e-06
2.81157881096e-06
2.24565931533e-06
1.83562419171e-06
1.49585060294e-06
1.21316882456e-06
9.93594903988e-07
7.86710448056e-07
5.63110422316e-07
3.46530571523e-07
1.77316927838e-07
7.94204621179e-08
3.93466377659e-08
2.82775700092e-08
2.64750203688e-08
2.63665422726e-08
2.64575411873e-08
2.72374967407e-08
2.84849085218e-08
4.0770184512e-06
3.36016338027e-06
2.83666540415e-06
2.40771422764e-06
1.99810928739e-06
1.59796952484e-06
1.2554597558e-06
9.87347844677e-07
7.56961772045e-07
5.42542212471e-07
3.45686322507e-07
1.88400185378e-07
8.96042870651e-08
4.38955369816e-08
2.92203388398e-08
2.61905906829e-08
2.60137657835e-08
2.64331008401e-08
2.73532263807e-08
2.88423676674e-08
3.98738637653e-06
3.623438129e-06
3.25551375761e-06
2.77598047326e-06
2.2249905031e-06
1.70271581439e-06
1.28283021406e-06
9.76060950638e-07
7.45572082091e-07
5.48746802031e-07
3.67825624805e-07
2.14395857352e-07
1.07513379045e-07
5.14941067546e-08
3.10943205201e-08
2.6181439725e-08
2.56893108617e-08
2.63378683117e-08
2.7398720405e-08
2.91419192855e-08
4.61780341769e-06
4.41585586132e-06
3.89608554414e-06
3.16027494331e-06
2.42276113588e-06
1.80097928007e-06
1.32007044364e-06
9.87547069765e-07
7.6293706432e-07
5.83863239595e-07
4.16017123451e-07
2.60638851843e-07
1.38092608101e-07
6.46931811178e-08
3.47647089483e-08
2.67288991329e-08
2.55519731482e-08
2.62084383382e-08
2.74396643993e-08
2.91690230036e-08
5.65095134945e-06
5.2664383107e-06
4.38462080285e-06
3.44201862978e-06
2.63891906684e-06
1.96780131369e-06
1.42611453038e-06
1.053131523e-06
8.17476044567e-07
6.48487312036e-07
4.9289142933e-07
3.34405099226e-07
1.89543884766e-07
8.81750502462e-08
4.18386462315e-08
2.83261506904e-08
2.58013885664e-08
2.61945704292e-08
2.74314409491e-08
2.89033086592e-08
6.22169267164e-06
5.50607926655e-06
4.50433174888e-06
3.63810558105e-06
2.90637045256e-06
2.23342069698e-06
1.63287424222e-06
1.19478995339e-06
9.13653194296e-07
7.33704174678e-07
5.88219991127e-07
4.33730497868e-07
2.68021443883e-07
1.28156316845e-07
5.44457216789e-08
3.1618242399e-08
2.66908408483e-08
2.64763085938e-08
2.74213936872e-08
2.85930089008e-08
5.90594857775e-06
5.18773164173e-06
4.37807616032e-06
3.7135583795e-06
3.1499718479e-06
2.5563577261e-06
1.91879870974e-06
1.39229859807e-06
1.03463442846e-06
8.20934366007e-07
6.78027154132e-07
5.36831728166e-07
3.63833156232e-07
1.85682587701e-07
7.41606417128e-08
3.67228004561e-08
2.82696840709e-08
2.70324910561e-08
2.75119925872e-08
2.8362517359e-08
5.57518030943e-06
4.98122688817e-06
4.25937556492e-06
3.69885357598e-06
3.26400028453e-06
2.79595281511e-06
2.21897672177e-06
1.61135188792e-06
1.1479113445e-06
8.89944506803e-07
7.43741407181e-07
6.18671179172e-07
4.52606442301e-07
2.49182685272e-07
9.91481929841e-08
4.32053360932e-08
3.00071438818e-08
2.76573772765e-08
2.77281832448e-08
2.8220755951e-08
5.30389983013e-06
4.80631671922e-06
4.14351425867e-06
3.65493239584e-06
3.30115488525e-06
2.89971531781e-06
2.36008992524e-06
1.75721579087e-06
1.22859055166e-06
9.32060258833e-07
7.82961327115e-07
6.72521407245e-07
5.19132580821e-07
3.04549526004e-07
1.24751394922e-07
5.03020303185e-08
3.16084749771e-08
2.8143913391e-08
2.79495765335e-08
2.81114804176e-08
5.14081360817e-06
4.67726106616e-06
4.04911189717e-06
3.60998816364e-06
3.30247285556e-06
2.92496833774e-06
2.39459138568e-06
1.79826743353e-06
1.26009640954e-06
9.51660498739e-07
8.0387700277e-07
7.04552694319e-07
5.62035474975e-07
3.45171527041e-07
1.47417793276e-07
5.74718232405e-08
3.31367794629e-08
2.83840131403e-08
2.80571834425e-08
2.8003218427e-08
5.04867785163e-06
4.60258167912e-06
3.98451800301e-06
3.57192333314e-06
3.28481904853e-06
2.90157431725e-06
2.35663655649e-06
1.76438137644e-06
1.25355664205e-06
9.62014394589e-07
8.21202230085e-07
7.27345575099e-07
5.87496677967e-07
3.68290796584e-07
1.62582742839e-07
6.33862983747e-08
3.45443299204e-08
2.84606043194e-08
2.80085419698e-08
2.786548887e-08
5.02935856531e-06
4.57977566656e-06
3.95739552814e-06
3.5487392264e-06
3.25720723412e-06
2.84616612239e-06
2.27291631309e-06
1.68245639037e-06
1.22846061838e-06
9.69814856462e-07
8.40520796307e-07
7.47777390811e-07
6.0223666273e-07
3.76934153938e-07
1.68498372307e-07
6.62929372959e-08
3.53013173355e-08
2.83586183941e-08
2.7800430314e-08
2.76172668952e-08
5.03511374309e-06
4.59872891142e-06
3.96934960823e-06
3.54215259406e-06
3.22298967168e-06
2.77212464285e-06
2.17392438357e-06
1.60218433362e-06
1.20501395883e-06
9.80832654197e-07
8.62858852957e-07
7.6627967811e-07
6.07921661697e-07
3.73871502674e-07
1.66635244576e-07
6.63297698184e-08
3.53192244969e-08
2.80699826498e-08
2.74271402717e-08
2.72328434511e-08
5.09545261565e-06
4.67332042424e-06
4.0305182529e-06
3.55946916425e-06
3.18416880912e-06
2.67870138648e-06
2.06080006957e-06
1.53762003877e-06
1.19358793379e-06
9.97522741535e-07
8.86702580815e-07
7.80626725707e-07
6.04533915189e-07
3.61556626492e-07
1.5928310913e-07
6.4312964386e-08
3.47629274727e-08
2.76175851514e-08
2.69063623697e-08
2.67364223426e-08
5.18925596246e-06
4.81533806516e-06
4.15407384974e-06
3.60212787048e-06
3.13715333795e-06
2.57111989483e-06
1.95735417904e-06
1.49680276383e-06
1.1949762133e-06
1.01764130077e-06
9.08689395271e-07
7.8817035312e-07
5.92252777664e-07
3.42491319065e-07
1.48811046849e-07
6.12061700547e-08
3.38877339805e-08
2.7052138472e-08
2.62630064793e-08
2.61672115591e-08
5.38513160773e-06
5.05697381277e-06
4.33444622847e-06
3.64698345309e-06
3.06827884674e-06
2.45890855192e-06
1.89185194201e-06
1.47560769782e-06
1.20089332407e-06
1.03646409204e-06
9.25494646794e-07
7.87291955921e-07
5.71916835734e-07
3.19266431003e-07
1.37276176144e-07
5.78241645106e-08
3.29273853288e-08
2.64294998686e-08
2.55321996796e-08
2.55584450449e-08
5.71581425554e-06
5.41953835939e-06
4.53661405245e-06
3.65862511552e-06
2.96680208401e-06
2.34587489374e-06
1.83353477459e-06
1.4537790567e-06
1.20169503345e-06
1.05055311226e-06
9.35407142186e-07
7.77833562403e-07
5.44903362565e-07
2.94397124613e-07
1.26226642938e-07
5.47238008805e-08
3.20442190001e-08
2.58028136462e-08
2.47537183556e-08
2.49359733978e-08
6.18020467077e-06
5.77403374755e-06
4.63552592977e-06
3.60191920156e-06
2.83524966371e-06
2.23104748894e-06
1.76006587235e-06
1.41776106528e-06
1.19579058058e-06
1.06073214259e-06
9.38984084175e-07
7.60378194659e-07
5.13014538716e-07
2.70152955221e-07
1.16706877303e-07
5.22393411362e-08
3.13370119666e-08
2.52208882433e-08
2.39659184779e-08
2.4334578399e-08
6.39568972492e-06
5.85871071494e-06
4.58672079368e-06
3.45737617624e-06
2.6555184299e-06
2.08514924074e-06
1.66818552707e-06
1.37515918777e-06
1.19209248894e-06
1.07186758379e-06
9.3775853184e-07
7.35164676203e-07
4.78584893869e-07
2.48592355582e-07
1.09441220729e-07
5.05956220204e-08
3.08773518698e-08
2.47338398539e-08
2.32146280359e-08
2.38089381172e-08
6.3969665023e-06
5.60980966497e-06
4.33949530248e-06
3.22971367184e-06
2.45849467112e-06
1.94186423411e-06
1.58486562487e-06
1.34786055194e-06
1.20341035147e-06
1.08878310615e-06
9.31548335131e-07
7.02885113509e-07
4.45264086819e-07
2.31887154562e-07
1.05160295434e-07
5.0066672942e-08
3.07654941358e-08
2.44073365556e-08
2.25759749107e-08
2.34294947627e-08
6.29007746934e-06
5.32473948842e-06
4.08780757616e-06
3.03154235539e-06
2.30657408976e-06
1.84148967294e-06
1.54171860282e-06
1.35854916832e-06
1.24017209492e-06
1.11190087978e-06
9.17354485833e-07
6.66838720082e-07
4.18144126478e-07
2.22423910801e-07
1.04857333444e-07
5.11161879981e-08
3.11997064812e-08
2.43489829746e-08
2.21743964161e-08
2.32749107375e-08
5.89703291454e-06
4.90361715741e-06
3.7949151093e-06
2.86419887126e-06
2.22094259385e-06
1.81338242811e-06
1.56765558629e-06
1.42417455051e-06
1.30465013749e-06
1.13446118853e-06
8.94329909472e-07
6.3513295133e-07
4.0328397785e-07
2.22922323097e-07
1.0993076088e-07
5.4609617517e-08
3.26174003141e-08
2.47493310231e-08
2.21570052307e-08
2.34125449161e-08
5.35233603205e-06
4.48030896328e-06
3.57799975914e-06
2.80630072222e-06
2.24903056125e-06
1.89105979545e-06
1.68391284248e-06
1.54764889956e-06
1.3857165322e-06
1.1489969078e-06
8.73075636008e-07
6.20296150253e-07
4.06960853435e-07
2.3636853871e-07
1.23092543171e-07
6.2384256533e-08
3.57911396332e-08
2.58305075639e-08
2.25944724996e-08
2.38021435612e-08
5.02057125448e-06
4.35715265475e-06
3.62643715713e-06
2.95069331068e-06
2.42736879822e-06
2.0879036795e-06
1.88269898088e-06
1.70591298723e-06
1.46783610398e-06
1.1684617314e-06
8.7762697756e-07
6.36273178004e-07
4.35563658829e-07
2.69613850453e-07
1.49594882904e-07
7.67824749358e-08
4.14708777738e-08
2.77448753736e-08
2.34255145064e-08
2.44253948299e-08
5.21242546853e-06
4.68412324435e-06
3.96874021162e-06
3.25735418245e-06
2.70505936773e-06
2.3479840956e-06
2.10663627047e-06
1.86870226879e-06
1.56830079312e-06
1.2345236863e-06
9.33737846367e-07
6.90236763093e-07
4.93713656063e-07
3.30051371599e-07
1.96279714565e-07
1.02098822135e-07
5.15116468719e-08
3.1043615256e-08
2.4593900508e-08
2.50420258132e-08
5.74455250687e-06
5.17345583594e-06
4.32868890577e-06
3.53398061531e-06
2.95133742338e-06
2.57270057989e-06
2.30289345335e-06
2.0359953297e-06
1.71223649113e-06
1.35779862002e-06
1.03854576832e-06
7.83974192457e-07
5.86926287945e-07
4.22545183073e-07
2.71770602749e-07
1.46797790417e-07
7.00545083486e-08
3.71158053997e-08
2.64251024402e-08
2.53612602725e-08
5.97763473943e-06
5.25855618806e-06
4.39380223611e-06
3.63682874541e-06
3.07062263839e-06
2.68866195152e-06
2.41832339106e-06
2.16512648782e-06
1.85740742878e-06
1.50601256405e-06
1.1803074201e-06
9.16330391631e-07
7.08259949346e-07
5.35564607199e-07
3.73566498834e-07
2.18444025007e-07
1.03809718746e-07
4.86850161387e-08
2.98620565077e-08
2.5695568192e-08
5.60772738932e-06
4.98968464628e-06
4.31150942318e-06
3.66099487109e-06
3.11842644657e-06
2.72125419861e-06
2.44014882889e-06
2.20629551531e-06
1.94579598917e-06
1.63778317873e-06
1.33071153083e-06
1.06177135138e-06
8.34320339015e-07
6.44687994263e-07
4.76698791393e-07
3.06932007092e-07
1.56334044288e-07
6.95941441033e-08
3.65274741043e-08
2.71507775297e-08
5.30497346566e-06
4.90882365849e-06
4.31045104203e-06
3.6796332805e-06
3.12845944526e-06
2.71236074824e-06
2.41574629032e-06
2.1888602804e-06
1.96836569926e-06
1.71290110058e-06
1.43941030767e-06
1.17549860349e-06
9.35427665436e-07
7.30894235034e-07
5.57124071803e-07
3.86263096268e-07
2.17021290272e-07
9.94987836823e-08
4.71221898259e-08
3.02361388151e-08
5.03060259431e-06
4.82601211861e-06
4.29033919635e-06
3.6496979476e-06
3.07488097934e-06
2.64278650986e-06
2.33886514603e-06
2.1191891114e-06
1.92639182527e-06
1.71352172549e-06
1.47809311569e-06
1.23475137236e-06
9.97497168452e-07
7.88433712646e-07
6.1108266077e-07
4.41179085671e-07
2.65697081087e-07
1.28331779373e-07
5.87657506216e-08
3.39768724351e-08
4.91778338828e-06
4.79011378316e-06
4.25975581713e-06
3.58668097173e-06
2.98305051253e-06
2.53245128596e-06
2.22164727785e-06
2.01058671645e-06
1.83848416829e-06
1.6567645687e-06
1.45414210175e-06
1.23782392283e-06
1.01796865063e-06
8.16213269257e-07
6.40983264947e-07
4.71914187127e-07
2.9420062631e-07
1.47495031345e-07
6.76523762883e-08
3.71547074299e-08
4.98256743456e-06
4.84056244209e-06
4.21871724018e-06
3.48324601907e-06
2.86127253628e-06
2.40230436484e-06
2.09173556028e-06
1.89011236254e-06
1.73370893486e-06
1.57312744979e-06
1.39406204261e-06
1.20195825769e-06
1.00409696449e-06
8.1774714966e-07
6.49996183397e-07
4.81875533224e-07
3.02858483515e-07
1.54186798511e-07
7.15748470766e-08
3.88749050009e-08
5.21373251935e-06
4.93482543916e-06
4.13239745859e-06
3.32906170519e-06
2.71032085139e-06
2.26110400101e-06
1.96394336504e-06
1.7765375995e-06
1.63313390572e-06
1.48609596512e-06
1.3222738213e-06
1.148156519e-06
9.70792870096e-07
8.02083431727e-07
6.43360060598e-07
4.74996450603e-07
2.9506374729e-07
1.49942986586e-07
7.07361507375e-08
3.90783299976e-08
5.32168323354e-06
4.89872318134e-06
3.96676280098e-06
3.13562036451e-06
2.54004762477e-06
2.1209255164e-06
1.85108124145e-06
1.6826038122e-06
1.55122480557e-06
1.41249914995e-06
1.25706957686e-06
1.09491093961e-06
9.34091932315e-07
7.80694974849e-07
6.27898601559e-07
4.56071568975e-07
2.75782492964e-07
1.38749074583e-07
6.70761293363e-08
3.84649313617e-08
5.33532728643e-06
4.72082103385e-06
3.75080164965e-06
2.92822128094e-06
2.37245555845e-06
1.99991022634e-06
1.76462710734e-06
1.61725237169e-06
1.49699249796e-06
1.36258897117e-06
1.21023556696e-06
1.05511453426e-06
9.06094548847e-07
7.62636794801e-07
6.09492967118e-07
4.30382998247e-07
2.51432462956e-07
1.25878782941e-07
6.32424493435e-08
3.80558826699e-08
5.30315354554e-06
4.56963103035e-06
3.61234955264e-06
2.80162546489e-06
2.26675520183e-06
1.92910453053e-06
1.7228146544e-06
1.59242817178e-06
1.47816802245e-06
1.34277496916e-06
1.18905061796e-06
1.03676696189e-06
8.9407216823e-07
7.5315856082e-07
5.92483532598e-07
4.04290743189e-07
2.29869158237e-07
1.16646620544e-07
6.16334664116e-08
3.87783713393e-08
5.2558477731e-06
4.52640375252e-06
3.60271761341e-06
2.80520247415e-06
2.26737033933e-06
1.94080700775e-06
1.74653882893e-06
1.61892179009e-06
1.4994002839e-06
1.35661233366e-06
1.19804509519e-06
1.04458122707e-06
9.01827308214e-07
7.55197573679e-07
5.82189377365e-07
3.87314754393e-07
2.19625100108e-07
1.15370957981e-07
6.40239717573e-08
4.1342294999e-08
5.32215223579e-06
4.6521862873e-06
3.74761725066e-06
2.93893729585e-06
2.37946034785e-06
2.04162537796e-06
1.8328309888e-06