/*--------------------------------*- C++ -*----------------------------------*\
| =========                 |                                                 |
| \\      /  F ield         | OpenFOAM: The Open Source CFD Toolbox           |
|  \\    /   O peration     | Version:  2312                                  |
|   \\  /    A nd           | Website:  www.openfoam.com                      |
|    \\/     M anipulation  |                                                 |
\*---------------------------------------------------------------------------*/
FoamFile
{
    version     2.0;
    format      ascii;
    arch        "LSB;label=32;scalar=64";
    class       volScalarField;
    location    "0.23/water";
    object      k.gas;
}
// * * * * * * * * * * * * * * * * * * * * * * * * * * * * * * * * * * * * * //

dimensions      [0 2 -2 0 0 0 0];

internalField   nonuniform List<scalar> 
750
(
0.0530838148963
0.0467970400467
0.0427883817553
0.0351173110858
0.0257436587419
0.0262759455259
0.0413760768649
0.106969616845
0.236091453274
0.314447474017
0.0196910643612
0.017331567144
0.0143614697289
0.0110976964725
0.00715567525096
0.0026801647399
0.000966920656401
0.000541733571283
0.000454749341015
0.000444751303263
0.000591689285494
0.00140817685823
0.00431246227544
0.0113030698978
0.0385244842193
0.0896933472305
0.180537812427
0.357390444228
0.743273377121
1.68143429291
0.0152844342749
0.0148028819912
0.0135007996171
0.0108221851528
0.00687165432179
0.00264656424869
0.00100033938551
0.000534247703287
0.000439392555281
0.000578729436812
0.0011271525728
0.00234113466169
0.00980308007534
0.0255573541473
0.0490406199616
0.0839448019458
0.146727676496
0.27247101394
0.552451158526
1.23042222074
0.0120830589293
0.0128335164248
0.0125543887403
0.0102855965348
0.0059343054258
0.00219762504858
0.000886839974258
0.000508463201968
0.000538716163309
0.00114044007551
0.00295329882152
0.00483230180533
0.0141529081709
0.0292082751338
0.0466739611961
0.0710592054952
0.114461824481
0.207746783967
0.426418040872
0.965420103535
0.0110249315386
0.0119368792924
0.0120304235938
0.00970607889617
0.00437285298236
0.00163577790756
0.000754346453529
0.000596277579765
0.000993995370119
0.0031110359221
0.00554253891051
0.00892612034084
0.0185737241586
0.0326753127029
0.0478821730473
0.0664724251233
0.101187584703
0.182899310747
0.385782145026
0.893800440777
0.012810028386
0.0126993870011
0.0128605981448
0.00885052243018
0.00305692744443
0.00124793132573
0.00077250066058
0.000992137386378
0.00203570835716
0.00594249500059
0.0119553570514
0.0140227021681
0.0248576878988
0.0386169816284
0.0524005258387
0.0686558881891
0.100610944682
0.181062773295
0.383630464046
0.889630229492
0.019441900296
0.0166255220691
0.0149099688447
0.0067508852438
0.00230319815655
0.00113364951864
0.00107311709364
0.00179681725904
0.0042259737129
0.00949476142881
0.0172347322401
0.0198439428435
0.0328585747609
0.0472447953693
0.0599255739372
0.0747330484104
0.106577883078
0.187584316038
0.385873165799
0.891134503663
0.0293082350206
0.0232703626289
0.0135156955646
0.00448775060854
0.00187548555233
0.00130858888562
0.00172791811898
0.00299536690523
0.00654647315203
0.0141914847184
0.0209160536346
0.0291378279122
0.044797519635
0.0580398583188
0.0683054928704
0.0820985651859
0.114949489524
0.194793805017
0.382157359962
0.87787842071
0.0377980660539
0.0293524244058
0.00801781071147
0.00303662487472
0.00173933784752
0.00182482208442
0.00276726833064
0.004595041994
0.00972767704959
0.0207023794274
0.0262710812771
0.0458405554712
0.0600286849584
0.0692958222787
0.0757640274351
0.0871137047054
0.116874390233
0.195877835911
0.390213484937
0.897098444221
0.0430793823827
0.0267833844654
0.00477371824496
0.00222399883609
0.00203476954212
0.00277334655771
0.00419535732723
0.00668732669184
0.0144382954272
0.0246414375109
0.0462349743903
0.0693689535929
0.0771234058633
0.0749288586608
0.0710263754208
0.0787123047878
0.115695610725
0.218542399061
0.453110257259
1.02743902994
0.0529315090522
0.0149914344218
0.00321626412093
0.00208481601979
0.002812248231
0.00398006701695
0.00563398730059
0.00884075456104
0.0206994380734
0.0381258663968
0.0774748943858
0.0931424133301
0.078248342903
0.0622626976196
0.0531356980843
0.0646623186968
0.118288088911
0.24567800675
0.530249349516
1.21323524999
0.0609545275921
0.00908963595729
0.00252740627808
0.0024591866613
0.00374382310749
0.00500361531359
0.00654819547067
0.0115914090549
0.0249409600853
0.0651585838212
0.122970823051
0.0946123248507
0.0586634999201
0.0395668420239
0.0364258012108
0.0552178692923
0.117965105433
0.262568351137
0.589078472599
1.37117425673
0.0539505516889
0.00919974982747
0.00267577275452
0.00309603966384
0.00455460571412
0.00563915902535
0.0066044890086
0.0125032932099
0.0243974400555
0.120273920217
0.135181954414
0.0713556054027
0.0382474695622
0.0242210002964
0.0232380295865
0.0398245078783
0.0919840547091
0.210830186784
0.474625828924
1.08618822071
0.0390617799733
0.00916042707889
0.00328966117589
0.00425178915742
0.00634700027351
0.00734951395627
0.00794145248286
0.0118643180715
0.0191556016842
0.198068008919
0.109992718231
0.054712024847
0.0280067335644
0.0171964145428
0.01389370258
0.0164052218923
0.0320082446835
0.0803184438175
0.202928138402
0.523759004974
0.021553776288
0.00741260084617
0.00388784738532
0.0054124161482
0.00836056817989
0.00903759400073
0.00857380969061
0.0118984396239
0.0204179953444
0.274680849089
0.0915138904049
0.0450280016155
0.0248560812569
0.0157918024022
0.0121135502021
0.0111192029736
0.0134266047292
0.0254213020136
0.0669598997496
0.191224834082
0.0132527763558
0.00611218177957
0.00457657235293
0.00764120258823
0.0111022421875
0.0129883734219
0.013946674332
0.0181699691436
0.0375488721918
0.329354162916
0.0865797813788
0.0430647975341
0.0255560173272
0.0167839562313
0.0127391363571
0.0111010419926
0.0110373046886
0.0139975115664
0.0280915273977
0.075034772267
0.0120431500427
0.0059554772506
0.00583386948871
0.0100208088465
0.0244408715417
0.0292731909944
0.0301417061486
0.0243360508932
0.0712665384658
0.25331958483
0.0879277848496
0.0439007419821
0.0279528479636
0.0190285591988
0.0142341536295
0.0121536033526
0.0115496331517
0.012494417244
0.0185567480784
0.0410922310108
0.0103327997799
0.00799013957099
0.0117226380481
0.0280062841492
0.0389765792453
0.0417003546069
0.0164208856899
0.0326244035724
0.0758729119136
0.135303552057
0.0742853690529
0.0418345262348
0.0303152596774
0.0220287266482
0.0161163907771
0.0134684040837
0.0125409245203
0.0128175970116
0.0207723493255
0.0293336562174
0.0295681349653
0.0292068837571
0.0435187304815
0.0481446940809
0.0404856154043
0.0119062454734
0.0151014631664
0.0288459126732
0.0493184506363
0.0676037395847
0.0540464843057
0.0368217531468
0.0310437886664
0.025407734772
0.0178697632932
0.0145001734335
0.013149233303
0.0130805261763
0.0257592662168
0.0445896682894
0.0433475587426
0.0362767666649
0.0458350233358
0.0470524212691
0.0353566361668
0.00954128372563
0.0113069350957
0.0204969260545
0.0300906250664
0.0354425310452
0.0350157433719
0.0301491886713
0.0310412875405
0.0271937522187
0.0181897676582
0.0142646249887
0.0128373701238
0.0170012902393
0.0354027830839
0.0577706427065
0.0564103591135
0.0328762400373
0.0395983326226
0.0449085894347
0.0392782623971
0.010133142112
0.00738728522811
0.0114517499222
0.0171800150631
0.0213290309974
0.024613663796
0.0303041558495
0.0438392822313
0.0271064969429
0.014653516829
0.0120490779586
0.0136007724144
0.0171607902755
0.0321902335674
0.0507726865388
0.0557191851306
0.0341540220983
0.031784562812
0.0395383210867
0.0439023934416
0.0349562744849
0.0201264200187
0.0118054646011
0.0117035618354
0.0116238336314
0.0198011098927
0.0309269099172
0.103624852909
0.0218607415948
0.0086959297452
0.00903795304366
0.00972566813493
0.0112917578949
0.0166292763291
0.0275337059332
0.06510077832
0.0351605154
0.0295699530986
0.0347353655367
0.0402306903214
0.0418569073739
0.0441303967791
0.0474966265526
0.0512586930217
0.0553943717478
0.0987998723789
0.013933954266
0.136924059839
0.0538579446208
0.00542935467103
0.00656445700624
0.00764594720474
0.00928907576532
0.0136627164503
0.0255318155885
0.134380229281
0.0199254946365
0.0243234176953
0.0272362472348
0.0294134339522
0.0339261008955
0.0413174393212
0.0494511000916
0.0634525853389
0.0896983663987
0.111569026873
0.00817834540055
0.143337161405
0.0490731700017
0.00545836650075
0.00638841182995
0.00734035943489
0.00954665649596
0.0180503260439
0.0495343497152
0.184811117151
0.0579685842333
0.0178651472176
0.012564366615
0.0122893415979
0.0197527315892
0.0347025591251
0.0480954788505
0.0658920756261
0.096966863126
0.0428843201549
0.00612599624035
0.205215965063
0.0145552020147
0.00747821427314
0.00701962654131
0.0076884433389
0.0101108826736
0.0197532314804
0.0552169708745
0.160782313546
0.0872830409444
0.0413158349598
0.0215039794023
0.0135738964095
0.0123912694241
0.0166692495229
0.0376572009381
0.0685809673932
0.104504078644
0.017455631879
0.026474453881
0.160804966553
0.00528467858195
0.00702616465772
0.00720079262677
0.00793447946479
0.0107521425523
0.021197851596
0.0525472748131
0.10628823002
0.0845903764085
0.0553559711411
0.0374381220467
0.026700535068
0.0177066135674
0.0110476378507
0.014091150246
0.059377221327
0.0915617301072
0.0163824343507
0.05777013976
0.0919053778234
0.00479762139366
0.00733266283146
0.00739173180331
0.00812004537599
0.0114239312286
0.0230402070313
0.0536032957253
0.0581027082038
0.061902966722
0.0525776126451
0.0430783251506
0.0350533743304
0.0266032330926
0.0182441379745
0.0139984038739
0.0252195974908
0.0268714737523
0.0331960652352
0.0608599043026
0.0462819175943
0.00863427810985
0.0079546276846
0.00753809728588
0.0083898401487
0.0123449889444
0.0253732291479
0.0580152775552
0.0304214176736
0.0426615520217
0.0450690190093
0.0423623107168
0.0367880849872
0.0295332818005
0.0223878761323
0.0195577706213
0.0222245281425
0.0289624915872
0.062905640102
0.0599044896273
0.0171931588485
0.00984685330419
0.00788966306619
0.00749264605611
0.00861353939052
0.0133011061828
0.0276991237461
0.061984925782
0.020309185419
0.0333600795454
0.0411754447184
0.0423821800447
0.0380532569299
0.0302371747109
0.0246429991348
0.0235131226266
0.025344452478
0.0323171503001
0.0436013811688
0.0337960475603
0.0135596305479
0.0092154502423
0.00764982440985
0.00737881314561
0.00869172927969
0.0140922691534
0.0301538277647
0.0664940570104
0.0167522925798
0.0284336878625
0.0383195112967
0.0420854339712
0.0398793270737
0.0331556799361
0.0275931388637
0.0258371431339
0.0253923526663
0.025091308692
0.0227460590335
0.0148415604763
0.010981437213
0.00854075710227
0.00750114153758
0.00734720106504
0.00862287739584
0.014552457193
0.0327609661057
0.0728896501295
0.0172342191317
0.0264015110036
0.0359114848806
0.0399940694432
0.0387594219231
0.0339337232898
0.0300713991245
0.0283084947732
0.0259329385009
0.0204932315153
0.0159050662592
0.0115556156016
0.00942262182532
0.00806956335897
0.00743630812605
0.00740999695543
0.00858990011128
0.0145106170702
0.0346311402378
0.0801477463009
0.021615112934
0.0271804158133
0.0347029560974
0.0379115258892
0.0369635237589
0.0338658851662
0.0314197895593
0.0292519768079
0.0239424315614
0.0152337363849
0.00935800599361
0.00808406407404
0.00800153634132
0.00763836796348
0.00737655965289
0.00751236854076
0.00869077928334
0.0143629451919
0.0355536444249
0.0860504649842
0.0270593523354
0.0302198285289
0.0342432539186
0.0359061065439
0.0347678983484
0.0323151233289
0.0302720493015
0.0271409544331
0.0193275204023
0.0110046862405
0.00548333625911
0.00528784757022
0.00685584468889
0.00726797284482
0.00732140075382
0.00762733959284
0.00896520462544
0.0150174014316
0.03795943028
0.0928383739502
0.0302288855538
0.0328280630143
0.0338450346893
0.033299494472
0.0313043106257
0.0282376056941
0.0252656404102
0.0204126004769
0.0131268339664
0.00822157000806
0.00400059209443
0.0043913509437
0.00627878126545
0.00707173580618
0.00732454021449
0.0077738663157
0.00934612215178
0.0161711484736
0.0413466120542
0.100337122861
0.0301567096788
0.0343601210359
0.0337871338306
0.0305301993926
0.027126573677
0.0228390933985
0.0186289299102
0.0130877614391
0.00775525451711
0.00564930913529
0.00334996567159
0.00415329043344
0.00610460394105
0.00702895632814
0.00738178916386
0.00795238902173
0.00977947646111
0.0174268171373
0.0446571219229
0.107332795826
0.0276366475902
0.0351923736861
0.033907616231
0.0285399817568
0.0236191902703
0.0181315338309
0.0117516862167
0.00779450242712
0.00462778135726
0.00364207726426
0.00305591764802
0.00397133240642
0.0061807779865
0.00707701492482
0.00748318865808
0.00817041665669
0.0102027439351
0.0183452483161
0.0469726131907
0.113060109558
0.0258441577783
0.0355616136783
0.0344141823655
0.0279190930661
0.0219207251378
0.0154179546662
0.0075149935796
0.00479732428195
0.00305821040172
0.00245192669641
0.00291608711554
0.00437901347303
0.0065401966678
0.00730198651822
0.00772912397348
0.00854180206561
0.010671579145
0.0180071660625
0.0436782220965
0.107734453501
)
;

boundaryField
{
    emptyPatch
    {
        type            empty;
    }
    minY
    {
        type            fixedValue;
        value           nonuniform List<scalar> 0();
    }
    maxY
    {
        type            inletOutlet;
        inletValue      uniform 1e-05;
        value           nonuniform List<scalar> 
20
(
0.0258441577783
0.0355616136783
0.0344141823655
0.0279190930661
0.0219207251378
0.0154179546662
0.0075149935796
0.00479732428195
0.00305821040172
0.00245192669641
0.00291608711554
0.00437901347303
0.0065401966678
0.00730198651822
0.00772912397348
0.00854180206561
0.010671579145
0.0180071660625
0.0436782220965
0.107734453501
)
;
    }
    maxX
    {
        type            kqRWallFunction;
        value           nonuniform List<scalar> 
37
(
1.68143429291
1.23042222074
0.965420103535
0.893800440777
0.889630229492
0.891134503663
0.87787842071
0.897098444221
1.02743902994
1.21323524999
1.37117425673
1.08618822071
0.523759004974
0.191224834082
0.075034772267
0.0410922310108
0.0293336562174
0.0445896682894
0.0577706427065
0.0507726865388
0.0275337059332
0.0255318155885
0.0495343497152
0.0552169708745
0.0525472748131
0.0536032957253
0.0580152775552
0.061984925782
0.0664940570104
0.0728896501295
0.0801477463009
0.0860504649842
0.0928383739502
0.100337122861
0.107332795826
0.113060109558
0.107734453501
)
;
    }
    water_to_heater
    {
        type            kqRWallFunction;
        value           nonuniform List<scalar> 0();
    }
    procBoundary2to1
    {
        type            processor;
        value           nonuniform List<scalar> 
20
(
0.023852643296
0.0195387373781
0.0148975715865
0.0108476989267
0.00670166475701
0.00219962222502
0.000782203746036
0.000516567732524
0.000492115327795
0.000501719552931
0.000610887772831
0.0014463590255
0.00448335100579
0.00952116703876
0.0227188107588
0.0875703766543
0.22338148668
0.452505731268
0.954020966653
2.22346859506
)
;
    }
    procBoundary2to3
    {
        type            processor;
        value           nonuniform List<scalar> 
39
(
0.0222801022146
0.0153697458892
0.0112509368942
0.010424781661
0.0148890417472
0.0238674630407
0.0333450370226
0.0421727456547
0.0486958755839
0.0537398937278
0.0563102805721
0.0563102805721
0.0528286086537
0.0499983684168
0.0475715439681
0.0386323463755
0.0290027448284
0.0297761390487
0.0399918679709
0.155021008797
0.375885591476
0.28072598709
0.191296411898
0.191296411898
0.311727128709
0.293435814498
0.102067750036
0.0392787886232
0.0163108010766
0.00749242119274
0.00554399698924
0.0050446497823
0.00510533608395
0.00628403999649
0.00607143111171
0.00840133496092
0.0121442206156
0.0136957990941
0.0159968724381
)
;
    }
}


// ************************************************************************* //
