/*--------------------------------*- C++ -*----------------------------------*\
| =========                 |                                                 |
| \\      /  F ield         | OpenFOAM: The Open Source CFD Toolbox           |
|  \\    /   O peration     | Version:  2312                                  |
|   \\  /    A nd           | Website:  www.openfoam.com                      |
|    \\/     M anipulation  |                                                 |
\*---------------------------------------------------------------------------*/
FoamFile
{
    version     2.0;
    format      ascii;
    arch        "LSB;label=32;scalar=64";
    class       volScalarField;
    location    "0.805/water";
    object      rhom;
}
// * * * * * * * * * * * * * * * * * * * * * * * * * * * * * * * * * * * * * //

dimensions      [1 -3 0 0 0 0 0];

internalField   nonuniform List<scalar> 
6000
(
915.856312225
949.198875043
985.611000725
996.374972387
999.304451154
999.888159011
999.985143675
999.998785664
999.999971425
999.999999738
999.999999999
1000
1000
1000
1000
1000
1000
1000
1000
1000
697.39237334
873.163315223
947.441366568
982.077959632
994.265371267
998.428684062
999.631924075
999.932036204
999.992695911
999.999817918
999.999999373
999.999999999
1000
1000
1000
1000
1000
1000
1000
1000
693.68785985
830.551793788
917.006689326
964.727304795
986.349955254
995.350877572
998.652871769
999.684107164
999.950418961
999.997084242
999.999984622
999.999999982
1000
1000
1000
1000
1000
1000
1000
1000
693.688150128
790.60846285
878.505270658
938.395096462
972.371653902
989.254327711
996.467171223
999.051838652
999.814924017
999.981583533
999.999690249
999.99999967
1000
1000
1000
1000
1000
1000
1000
1000
700.667988022
765.859527966
838.239196793
901.95203001
948.263374397
976.882195081
991.488278386
997.496249085
999.449525799
999.927862413
999.997076855
999.999994781
999.999999997
1000
1000
1000
1000
1000
1000
1000
712.607880927
755.819205408
807.000944178
862.901297676
914.43691193
954.650176866
980.41268258
993.449131264
998.410328092
999.757649074
999.984366638
999.999881137
999.999999933
1000
1000
1000
1000
1000
1000
1000
721.776890265
755.795530725
789.898113615
831.865261015
878.729450095
923.900197648
960.280704386
983.91520462
995.405844209
999.189728156
999.931894626
999.99862518
999.99999892
1000
1000
1000
1000
1000
1000
1000
723.96626422
757.716730439
785.010418448
814.478438322
850.924679797
892.467558225
933.328002372
966.826034315
988.151477899
997.40791126
999.722895472
999.990424429
999.999972376
999.999999992
1000
1000
1000
1000
1000
1000
728.033337231
763.601096293
783.357171359
804.059908763
831.273052448
866.352746278
906.014996533
944.370856425
975.039858547
992.874789935
998.983020271
999.947899175
999.999539657
999.999999911
1000
1000
1000
1000
1000
1000
736.621381895
771.740202983
782.020589895
795.21223243
816.078050888
846.532087794
883.176673102
921.533947643
957.205656243
984.043243298
996.866248964
999.764609963
999.995685341
999.999998566
1000
1000
1000
1000
1000
1000
745.549693144
774.803914839
777.84698979
785.258343104
802.86404351
831.235837228
865.185394222
901.050420568
937.127431941
970.315310319
991.973236724
999.089538419
999.969357226
999.99988432
1000
1000
1000
1000
1000
1000
744.311025108
768.011018877
768.806337101
774.009019277
790.73381476
817.844027676
849.211956926
881.61036302
915.532908343
951.347003914
982.09657862
996.888943473
999.812061361
999.997441326
999.999999964
1000
1000
1000
1000
1000
725.48641523
748.047583451
756.891552597
764.403196396
780.153426035
804.361671809
832.488415582
861.744836405
892.604878183
927.265374411
964.327980235
990.477470145
998.979569632
999.968312067
999.999900435
999.999999999
1000
1000
1000
1000
698.468410052
730.515742608
745.014306481
755.704131307
770.81480622
791.831998002
816.446241605
842.913722392
870.500602409
901.044916538
938.132525845
975.344516706
995.481360439
999.723617959
999.996302549
999.999999838
1000
1000
1000
1000
695.929585435
726.173453682
736.804550031
748.327142305
764.581297426
785.732663503
808.378927815
830.600479093
853.691684046
877.983480976
908.814152127
949.762424695
985.204316473
998.38062889
999.953602082
999.999841496
999.999999996
1000
1000
1000
697.223915192
726.219841666
733.410519748
744.718198624
762.679515221
785.457560819
808.454240147
829.250215856
845.870941438
862.181534247
883.60215694
919.845880237
965.794157162
993.812856903
999.673642724
999.996576466
999.999999496
1000
1000
1000
695.316984922
728.263377485
734.147166175
745.245537272
763.585787985
787.222030303
811.019274509
831.248517662
845.486941172
854.121734792
866.445793179
894.70554139
942.29815851
984.408923558
998.622755674
999.97288113
999.999943191
999.999999993
1000
1000
697.223596568
733.067120769
738.559299552
749.847504441
768.888204397
793.790180644
818.361526824
837.529124817
847.638097616
850.753041198
856.851066902
878.745930725
923.05954845
972.366126853
996.34866889
999.886151056
999.99942976
999.99999978
1000
1000
695.41320625
740.255843633
745.995990498
759.786618899
780.770609919
806.752836269
831.221140071
847.886608954
850.189836812
850.21378747
852.082967258
869.801770713
910.842119357
961.881717064
993.307261152
999.703052889
999.997672793
999.999997927
999.999999999
1000
697.316230756
747.374876767
755.14632692
772.922686393
797.039898319
823.934333168
846.232460985
850.141775422
850.16554684
850.189833568
849.43407557
863.345378395
902.318658677
953.844170572
990.122194012
999.42392326
999.993863024
999.999991598
999.999999995
1000
696.198974539
753.04951001
764.234845499
784.835851892
810.68084793
836.265206291
850.097960767
850.118691246
850.147968029
849.674448322
843.541211061
855.574404871
892.672343734
945.002697819
986.111358456
998.953872179
999.984875657
999.99997283
999.999999985
1000
697.52650635
757.839332526
772.73923651
792.760208478
816.21134831
838.764288366
850.118579968
850.147898367
850.167280699
840.029249987
833.008142034
843.129443836
876.331007364
929.174374321
978.293906278
997.777398138
999.952081593
999.99986008
999.999999962
1000
697.210212379
762.532205038
779.643974862
796.283945543
816.463409984
837.145541844
848.751639474
847.653533039
838.885877745
825.611350925
823.543695339
828.494611907
850.440175599
899.323612914
960.422115019
994.111225135
999.789973861
999.998751035
999.999999917
1000
703.671021654
766.751320538
778.59738949
792.755648547
810.491805611
827.64785677
835.501543648
831.664757373
822.281386016
822.126291013
822.219035347
822.694530414
827.368471982
860.491890361
926.399644366
983.347698308
998.982704958
999.987835513
999.999992679
1000
719.516548001
766.09358674
767.331967462
774.754854852
789.868603584
807.030184243
815.051178365
815.41509618
817.297018146
822.132144582
824.717327244
823.594949535
823.714879292
831.456993569
883.186406694
959.935231991
995.745620288
999.89781014
999.999637858
999.999999997
726.495034227
752.692773487
741.630450318
741.555256307
757.754805833
782.056316882
797.419957257
806.802630763
817.862225255
828.136682244
833.380414229
828.979796778
824.170395711
824.286805723
852.434130853
927.125136137
986.749354419
999.388810346
999.994379922
999.999999725
722.206695858
728.186110506
711.092696966
708.668740937
727.621971083
759.495915909
784.255824102
802.771101597
821.150143932
839.025710421
845.964329883
839.582225122
828.198866247
824.706592355
839.180981317
898.347172576
970.706606757
997.573605897
999.957358495
999.999959854
710.778098679
705.900986609
689.937759461
689.133399095
707.049776947
741.3327252
773.549445506
800.473103946
825.936639979
848.427581168
853.057663931
849.026356625
837.781815066
829.151382502
838.593763502
879.857775452
951.067899078
993.350358254
999.797675126
999.999107206
700.278830183
691.598886881
678.0562036
678.847100637
694.986118661
728.749120307
765.560848453
799.414315654
830.516122747
852.675738528
854.753985976
853.203900779
847.411666563
839.121106984
840.786365446
867.161270277
931.408911471
986.229580271
999.322550111
999.993918858
694.506172237
683.28280762
671.741585249
672.765825383
688.222599972
721.917185573
761.620015697
799.786457781
835.493239984
854.42145936
855.027289913
854.712896483
852.312639869
847.839396845
843.291852153
857.177807052
911.848244284
975.970339198
998.221639826
999.973804673
690.489406977
677.789443727
669.680692162
669.666949636
685.147821689
719.761142479
761.337003012
802.803013679
841.605549381
855.125368553
855.133820245
855.035407006
854.464462033
851.349162189
843.546690825
847.097745132
890.528230651
961.757174346
995.917931591
999.907090291
685.736241795
672.774350724
668.962670585
669.074133909
685.431504659
720.867612981
764.301753919
809.654637997
847.551666739
855.306521012
855.24290899
855.172418875
855.04761599
853.835285245
842.443102363
833.527641352
868.600840095
943.428711576
991.433118443
999.700587595
680.414247234
667.753946356
668.613146633
670.629166899
689.806081967
727.30752986
773.373447504
820.230927275
852.348161595
855.446583903
855.361334854
855.29327503
855.172407832
854.985019012
839.176264643
820.319777987
849.866614681
922.887549014
983.910777713
999.147823742
677.384073383
665.798646748
668.890572005
675.835894742
699.86649362
739.828436861
787.215776416
832.980248954
854.974766048
855.566081356
855.469110875
855.390252615
855.297690557
855.102314302
834.151296213
820.373965644
838.872818396
904.167511844
973.802870677
997.973136382
674.98649596
665.889596234
671.175859031
684.41063535
713.472691565
755.666305161
802.951419376
844.699379567
855.695165091
855.705618186
855.566922894
855.485199064
855.390242157
855.178086294
829.633860185
820.238446127
833.822705907
891.06226519
963.041398059
995.980532578
668.333097761
665.75414806
675.983057696
695.254954961
728.789268173
773.023155243
819.425637644
852.689129132
855.985047548
855.835424324
855.670574488
855.552482137
855.462901741
854.223379171
825.210245528
820.373920183
831.862015854
882.396344703
952.771516142
993.126056044
653.163109389
665.570467718
683.757849309
708.680329629
745.89139694
791.282899415
835.488143348
855.705951388
856.159962069
855.901192538
855.709234798
855.601503015
855.482174875
849.539927381
822.093502282
820.281333508
830.478662879
874.613617343
942.372610515
989.39578966
643.940892099
667.314172119
694.354389991
725.996321516
766.136017584
810.626083301
848.825309592
856.515070044
856.345796224
855.973468365
855.755930973
855.610677558
855.383010427
842.307033506
821.323900911
820.373876965
828.145976692
864.964426525
930.651527118
984.738688356
638.929498719
672.713887027
706.708651392
746.685358932
789.739443941
831.496637085
855.384962518
856.880362997
856.450035721
856.038729729
855.738457229
855.483450779
855.00229233
837.758866267
823.723639421
820.724389238
824.034963304
852.36745581
917.180602821
979.136791371
641.128058022
682.336344393
722.872776904
770.517861245
815.052136602
849.532563798
857.329384522
857.166958778
856.557153864
855.936566664
855.482967882
855.179737071
851.731814248
839.20064538
831.140129433
822.312156278
817.088277914
839.022316707
903.173277378
972.537559437
637.955386085
698.394656213
746.233916387
798.461506236
838.763468014
856.739148438
857.659651453
857.31000717
855.956158063
852.953390531
852.805045977
854.606461725
852.25278709
847.56040249
840.560180206
822.122757318
809.050391326
827.630391364
889.349632093
964.676585707
640.486374534
725.319978569
780.361133481
830.04282569
854.256946919
858.41581912
857.847754108
853.504228228
848.189812236
848.020724451
851.896322315
858.370290791
859.716779971
858.383343909
843.288265918
818.597829436
803.793605635
818.855882579
875.463809298
955.217640574
638.479813201
768.666824115
823.868099478
854.467931291
858.984636613
858.769541007
854.473174604
846.743629568
846.601747516
849.188181281
859.665031691
869.986519402
870.478639075
862.305540186
840.349217065
814.184737135
801.977417169
811.741846086
861.504965203
943.468658771
640.831190687
822.492602867
853.789295412
859.224086499
859.465876032
859.257115798
851.885946083
847.629064887
850.509074306
861.613714428
875.579843597
880.265871832
876.338879916
861.417306999
835.26874706
811.747447589
801.384866379
803.897854428
847.133076594
927.523541925
674.354247034
857.641235864
859.219308081
859.464409261
859.700183783
859.934588264
854.335682399
856.389134753
866.161609876
878.616672836
885.0494337
884.534311431
878.386911233
861.10762858
834.263652988
811.682820824
800.153467643
797.857095219
831.513706894
904.76129607
756.969272224
857.707017666
857.116020655
857.057218523
858.302835992
860.028760055
865.079436406
873.517931597
881.672637309
886.37327901
887.730596691
886.853908396
881.475165762
865.484880914
838.850081689
814.087016258
799.716848674
797.611970427
809.507141136
874.460090952
781.662976179
818.628943137
819.374536977
832.008916989
847.676702186
860.297871928
874.03489321
883.177510108
887.804455588
889.384645117
889.742485421
889.559312604
887.028810934
878.063778989
854.773671062
823.929770211
801.873628245
797.856966612
797.59154035
843.784452249
728.250609158
698.533962004
728.198407734
757.978858993
800.267912035
840.044295317
868.1553212
882.779278024
889.093569787
891.789092507
892.3607642
892.446108014
891.638503645
889.769061582
877.820817644
845.385813465
810.897421253
797.677974755
797.85689703
819.678326539
621.08660877
607.554607631
633.200588185
653.915445454
687.458920484
738.968628567
806.514363222
860.558678114
884.26901617
891.915906518
894.328068974
894.548084216
893.843861729
893.451757455
892.130092367
873.768369901
829.913914638
797.859022181
797.488301527
798.793221975
569.554666181
584.968859563
595.849000858
602.572701732
613.354572862
636.956438078
691.513366589
779.96789539
852.666035265
885.22893433
894.404100827
895.046620479
894.967174385
894.507380589
894.847177546
891.706013938
856.538714688
805.689708449
797.856775281
797.574325615
567.43423027
581.927609027
587.524233582
591.435933307
596.977537167
609.87397409
640.133476841
704.041807329
792.911917736
861.044436959
892.156148164
895.091552936
895.057086202
895.009050811
895.03226993
894.995914308
881.303735324
825.849332639
797.601268344
797.856731853
568.234498128
580.514383434
585.533835027
589.674439955
595.019972942
606.98078874
632.694353276
680.294463686
752.953372443
828.568504169
883.688552389
895.175636065
895.116172554
895.080052322
895.009044764
895.100389506
894.492560748
850.467846235
797.856685602
797.590200399
567.368909295
579.301153281
585.317619049
590.18486198
595.834960061
608.01099381
633.238731835
677.786632484
741.547777093
811.777067842
872.695251755
895.139829459
895.239535226
895.116181016
895.14958918
895.009038107
895.179881276
868.523787956
801.727801797
797.856657476
568.232812035
578.291095989
586.709685802
593.788484739
600.698345472
614.053530207
639.197443829
681.395207364
741.829383214
809.512035832
869.436060129
895.205966024
895.139850869
895.301368538
895.116183976
895.242570763
895.009031119
877.249178121
809.214281817
797.655874091
567.722444487
578.483023667
591.689737688
602.538638403
611.810248871
627.503102765
654.130628256
695.303128637
751.120343219
815.042848589
872.139202516
895.139818314
895.311321211
895.139865602
895.322979864
895.130097939
895.341574712
879.328410824
814.721828524
797.856604466
568.242960119
581.393033204
601.510055585
616.740016699
628.893962433
647.574419395
677.244658421
719.789488487
773.654243536
833.425537408
882.264252096
895.2179285
895.139843095
895.429817116
895.139870296
895.387799453
895.130092005
878.155299615
817.244813094
797.75862541
568.133714339
590.249462116
617.323874446
636.300954355
651.183928041
673.738112791
707.494351439
752.621315864
806.362037217
860.9248387
893.095741137
895.228480326
895.35248225
895.139856441
895.489778266
895.13986707
895.396545344
871.445907542
817.860368912
797.856561191
570.872274794
605.854713794
639.506030851
660.885985393
679.918834569
707.685307669
746.009612906
793.433080429
845.250283531
886.464101573
895.228452789
895.424654589
895.222541916
895.440091396
895.139857441
895.506487925
890.946857982
861.386887508
818.935451989
797.875170934
578.88599581
626.744816874
665.008606016
690.995537727
717.145564051
751.61059382
793.952299522
840.869290823
881.577684097
895.228422734
895.37576121
895.22847931
895.534745795
895.228508006
895.469824935
894.455396519
880.303777756
854.230048779
820.933272765
799.396853037
588.998561241
647.466357635
692.144472501
727.818394189
764.435121383
805.612693335
848.30800019
883.263285099
895.237334866
895.328856688
895.228453979
895.602913831
895.228491762
895.591753493
895.228502907
887.855025864
871.960676131
852.282375619
824.073000918
801.889976206
596.217291951
661.77050221
721.569721081
772.300075162
819.873647408
862.212048587
889.328483499
895.264258635
895.453041064
895.264355055
895.616724545
895.228470912
895.732285919
895.228490603
893.128491172
880.077926826
869.688647735
853.571132887
828.52508634
805.641351773
592.254023532
680.202694145
757.928599906
823.245826259
871.667858978
893.420431717
895.264123224
895.605450462
895.264316759
895.81999953
895.26437597
895.823821268
895.228473354
895.744800401
886.384818344
877.139032064
871.383722639
859.370480851
835.957515348
810.591833635
577.406971358
713.622841946
803.77586459
871.652220758
894.318940644
895.263758405
895.736938349
895.352569953
896.028575994
895.264344637
896.08394117
895.264380674
895.895530111
893.96086875
881.191386784
878.012737855
877.511093077
870.468223963
848.01344816
818.306639237
577.147714335
765.997429558
852.983521036
894.514549998
895.262828582
895.850346653
895.35247108
896.429308901
895.352616797
896.34176975
895.264350627
896.169961184
895.264373974
889.42158188
881.126320121
881.502030155
885.381770427
882.569064167
864.228870295
830.673483595
580.768872171
824.269787581
889.2994495
895.260481529
896.074054774
895.352275416
896.837759195
895.352569322
896.919374066
895.352625375
896.392138162
895.264344245
895.972559773
884.81143659
881.254183166
884.835145906
889.706163558
890.819625481
880.887332198
849.449867596
626.768954343
865.731801739
895.254356847
896.093600556
895.351784163
897.170891857
895.352507325
897.341721905
895.352583681
896.84676937
895.352615938
896.129767054
891.191317823
883.630079825
883.292320077
886.743588041
890.647297713
892.826815916
891.774080776
871.876955915
700.556386054
860.418158635
891.890009339
895.350201363
896.941020846
895.352391449
897.341658861
895.352527293
897.05850938
895.352562576
896.280182813
892.069045051
885.93858535
884.758994782
885.763178245
887.690963291
890.736285155
892.835500434
892.826782543
889.545567061
722.065796456
806.638496437
840.993861995
860.723355656
870.212679657
874.872836985
876.547139861
881.319847153
885.316700933
888.404564517
888.43528736
887.951087947
887.841098132
888.32148454
888.109097548
888.446316013
890.708019877
892.826752502
892.899538814
892.826749419
690.557545764
686.231939328
709.493985201
735.910366654
754.91666389
766.442947463
783.797001762
814.038448936
846.98451382
869.776511237
882.515434854
889.099833064
891.426213129
891.676011173
890.268480246
889.540872664
890.588058538
892.784179916
892.826719143
892.951656772
620.264724451
602.651914107
615.546553503
630.507615177
643.674757084
655.391662049
675.986103126
717.045042775
777.607426381
833.850942287
870.771678053
888.591521808
892.786006348
892.820184581
892.286787969
891.021701934
890.68497173
892.016525
892.919076252
892.826692175
581.034391979
586.41129474
595.615745257
602.499609992
609.183369221
617.224094144
631.357653866
660.313779961
714.511871618
782.806839455
842.420768336
882.644400962
892.826576733
892.845429557
892.826635145
892.603578239
891.575674296
891.8642324
892.826667337
893.009513796
577.858454288
586.328315643
593.559311144
598.436552941
602.608304479
608.658657807
620.303727285
643.876396318
687.635803667
749.482620415
813.765099864
869.463061542
892.858446948
892.826586508
892.89789607
892.826632213
892.806736033
892.431789053
892.878410797
892.826651672
577.799149521
587.719191794
593.871174163
597.705125977
600.647426364
605.470087641
616.293170458
638.80814904
678.758825461
735.483059172
798.735417116
858.066548203
892.233792139
892.929676285
892.826599727
892.967200093
892.826629531
892.863398476
892.826637121
892.945491194
580.299501946
590.523169193
596.074983499
598.220849065
600.201371577
604.125388688
614.5909782
637.120816227
675.949278269
730.126619846
792.233881892
852.428155175
890.420874097
892.826562022
893.036412255
892.826610233
893.032923701
892.826626195
892.940492033
892.826629468
580.390940853
593.676121399
600.377577791
600.77200711
601.134053054
604.310420567
614.642478468
637.460846908
676.200902442
729.493790252
790.768414073
851.028380968
889.586875303
892.933056061
892.82658525
893.127746034
892.826615612
893.095294093
892.826622333
893.022559788
580.5063875
599.365041303
607.493917915
606.642012939
605.128131793
607.118508834
617.122735094
640.837614034
679.911282371
732.185914991
792.650289412
852.440627901
889.974735145
892.826556263
893.072168798
892.826601566
893.197535907
892.826616471
893.151138445
892.826618078
580.622698231
613.040229977
620.76196648
618.361653891
614.524999961
615.605966003
625.470824762
650.329432923
690.005300097
741.482023963
800.784614618
858.902864868
891.590811013
892.937778524
892.826582685
893.183323607
892.826609253
893.242716424
892.826614167
893.196955234
580.737649826
639.093047522
644.449236501
640.17149472
632.483759266
632.988292165
642.998667739
668.691836308
708.681856124
759.671989298
817.789265505
871.934398546
892.829174422
892.826560636
893.091847706
892.826598086
893.254122165
892.826609801
893.264124214
892.826609509
581.932828682
671.74832938
680.754101617
676.067071041
663.332461873
663.228531283
673.394511486
699.345589049
739.197645505
789.687939111
845.378516834
887.575849653
892.826537558
893.039995914
892.826581998
893.230412567
892.826602471
893.26973211
892.826605214
893.260420662
582.356213943
709.71714851
727.775798916
726.270410501
711.187337167
710.233627702
720.649679467
746.32413594
785.322300758
833.653504976
879.022919635
892.826513454
892.997935415
892.826561407
893.199626013
892.826589408
893.26450473
892.169657134
889.248971007
890.252622972
582.41241692
754.434102676
776.791078025
785.370269583
774.820455159
775.410613426
787.147212328
811.739610553
846.558025438
880.799677079
892.826486153
892.974503891
892.826536618
893.181970453
892.826569187
891.293477182
885.302587614
881.486952519
882.131728464
885.629751651
583.709059211
781.768589805
809.343245033
834.65373488
840.260362276
849.267988123
862.96094301
878.578593583
890.744922519
892.826452235
893.150712285
892.826507238
893.283695428
892.826542769
884.24480944
877.903947456
877.584137061
878.610224751
881.868698583
885.399150125
607.722786612
789.421010946
821.121923762
851.094617092
876.482498782
891.617491847
892.826322074
893.129253521
892.826411115
893.646395548
892.826473114
893.695320645
892.826511673
877.57801186
872.016320023
874.44172771
877.464377936
880.097960436
883.259780459
885.84405548
666.898044311
789.391105242
819.153960031
849.515029927
878.750036403
892.826209628
893.416440604
892.826358876
894.206261711
892.826431428
894.291816491
892.826474327
874.156526629
864.416685163
870.938978898
877.029419171
881.287177156
883.922171828
885.74875636
887.055830738
722.214562006
781.41331781
801.024764913
831.93208127
868.172494194
891.599694297
892.826247976
894.251212186
892.826359933
893.434489746
877.939279028
860.889840414
851.861687813
863.786053161
875.649910909
883.300242492
886.81323923
887.97213562
888.398627161
888.852642744
733.750095427
746.290738596
750.137034598
774.520765991
813.884909945
847.51673172
862.343983536
859.572747065
845.061078504
821.987926048
808.361128018
814.366636613
840.080108424
864.579075848
881.040370293
888.639143122
890.292142028
890.483241858
890.429922265
890.505511338
722.29764902
702.356678271
692.812788814
698.45717034
713.591787608
731.753635061
742.124163308
733.871689745
715.897882813
708.019993151
725.193508718
767.698537787
818.895741112
858.515466125
881.683784195
890.893343206
891.164127605
891.165715332
891.163335988
891.163276813
703.181046522
686.163235954
669.118470332
654.923815612
646.878124489
646.371953017
647.417036601
645.002751283
644.296283967
654.967158755
684.728711223
733.759105925
791.686831369
844.459425821
881.108991562
891.164075675
891.191413646
891.164118128
891.192149642
891.16413721
697.58724102
685.873142254
664.050060854
639.624807439
629.960628723
630.090341321
631.292824544
633.847728859
639.168978632
652.722358852
682.185243462
729.787593053
786.254797111
841.367107726
882.710635377
891.231100365
891.164081602
891.28306561
891.164112663
889.887032922
697.126859216
688.191507456
661.814205526
629.151963098
627.691720468
632.078983615
636.541387337
643.149880306
652.038645274
668.222278363
698.378446007
744.603531741
797.880278224
851.253749141
889.741213987
891.164045442
891.406293079
891.164087943
891.447743713
873.973980977
696.660147136
689.660221813
657.728029145
617.824298511
625.302228712
641.996111212
663.365492354
683.933124208
695.85866743
714.23273486
746.766289133
791.239118184
837.238561774
878.489423597
891.164010361
891.437212951
891.164060608
891.668321211
891.164088728
829.1793449
696.1863396
686.618378207
641.934782488
612.959497035
620.522961571
651.388521338
707.935606612
756.308563337
769.876197427
785.060697257
816.803753612
854.744609717
881.944652912
891.163975963
891.359398866
891.164029578
891.684362803
891.164068808
861.875612164
786.450371327
691.798161616
665.72031287
621.985100507
611.992050686
614.531259829
646.078381519
713.917748908
819.953379254
852.556230871
860.678108597
877.82517029
889.851374863
891.163940362
891.322092293
891.163994885
891.684331437
891.164042962
878.789670669
792.613868322
777.069902599
656.536206747
629.036146764
612.261641641
612.961929665
612.492747826
633.198523065
688.087351663
804.391698927
870.329992564
891.163839273
891.273653193
891.163902253
891.390780222
891.16395777
891.684295559
891.164010222
879.213654211
799.597807097
752.163421583
776.95039463
614.593820544
612.588657226
612.948334959
612.004474031
612.965616792
619.650788168
650.207517415
733.246262467
830.644955357
881.401796323
891.163857734
891.526373564
891.163919959
891.628893632
891.163972609
861.807342827
787.025675424
725.634238335
739.696592852
776.181084414
612.317566338
612.885653652
612.141897764
612.957503553
612.222946783
612.97084939
623.091076029
657.667738076
729.503115071
810.648622023
865.752324172
884.667587314
884.498168489
873.285634054
829.547879366
752.233531185
697.000361977
696.245581343
730.038035249
771.795503135
612.769599441
612.555909588
612.929647697
612.064359085
612.961550011
612.469992603
612.983821928
622.083904584
649.828959878
705.728062011
775.813265042
821.026149257
819.485302342
788.27492569
721.953753495
674.046996073
667.339772471
683.765075804
720.469737399
765.376656163
612.626118345
612.866493386
612.542360269
612.949083963
612.202551138
612.964209175
612.709201589
615.201816603
627.067122521
652.887323704
693.313168837
725.657806591
724.087886398
700.315980182
668.849358058
663.323281525
663.340123338
679.219231368
716.304752499
763.874064532
613.330699631
614.68062532
612.92107828
612.547731142
612.959178651
612.513917832
612.96621929
615.191650744
626.935102421
647.024544457
668.686492138
683.022152166
682.713608918
672.949108616
663.323197828
663.338185189
663.325104718
680.087050466
718.49425248
768.535512558
622.592970785
623.651449432
615.418412716
612.948605552
612.60658938
612.964689546
612.891891041
617.131824801
630.440257731
649.445721899
668.932986263
680.47098198
680.225764056
672.734692888
663.829894142
663.323260754
666.816605196
688.713818913
731.047030438
784.53514398
643.872645761
638.941147699
622.288598087
612.907337527
612.961676121
612.884826405
615.483571452
625.525077163
641.313139099
658.857366297
675.628025969
685.217315234
684.897156937
678.553246143
671.196376214
671.019573143
681.266986387
710.422444078
756.922524874
810.129234859
664.094323618
654.482475687
631.713369484
615.109415839
612.911508498
615.221255383
626.876089993
646.073859985
664.020252464
681.349366263
696.271804534
703.720861179
703.250191697
698.237547686
693.171499429
695.610184374
711.441830722
744.957906243
791.166078634
835.342357273
668.822383105
665.420888392
643.19200453
621.226108691
615.242148712
622.825948437
648.325580604
682.405836642
703.01023186
721.522998467
735.733058537
741.388144788
740.375197551
735.650494121
733.138641306
738.091464192
756.097476795
787.079542244
822.470945468
846.451550908
669.443320386
668.893683884
656.977675222
631.229937802
622.735612511
634.182012678
669.952617698
724.79186288
756.638505748
777.23206002
790.613282743
794.636606566
792.92217356
787.569982735
786.571011059
791.854229361
805.221874032
821.878020479
835.259692177
846.137828869
668.827134901
669.981900978
668.361681012
644.986452618
635.472516728
646.062062949
681.477101916
746.88678229
803.273509857
830.981235627
841.01032139
843.174080044
842.0011288
838.318579223
836.891889021
835.795666046
831.701998617
830.035451803
833.947423109
840.431507114
671.378951734
668.897090476
669.761734804
660.550482025
651.152513885
656.23941148
684.688251539
746.020892934
811.857186262
850.038504263
857.734245819
857.890304283
857.877281409
857.745255051
855.344115437
843.994909243
830.876480247
824.115430574
822.111253854
823.376637337
668.829620827
672.186848348
668.928458375
669.588638504
663.220374145
661.699063197
683.078861701
738.412473599
804.922010739
846.068962591
856.442534016
857.904530385
857.892670988
856.650048466
849.777340815
832.434991063
811.504210785
797.448420407
792.510737485
797.539233393
672.494948958
668.893024986
672.071828819
668.939556797
664.763151144
657.393040835
671.51894671
712.150283744
770.237781816
814.818797567
834.380786799
840.766351799
839.322496334
831.626908243
812.735346175
786.245460643
765.049481146
758.147459736
764.691290988
787.084806906
668.827951762