/*--------------------------------*- C++ -*----------------------------------*\
| =========                 |                                                 |
| \\      /  F ield         | OpenFOAM: The Open Source CFD Toolbox           |
|  \\    /   O peration     | Version:  2312                                  |
|   \\  /    A nd           | Website:  www.openfoam.com                      |
|    \\/     M anipulation  |                                                 |
\*---------------------------------------------------------------------------*/
FoamFile
{
    version     2.0;
    format      ascii;
    arch        "LSB;label=32;scalar=64";
    class       volScalarField;
    location    "0.415/water";
    object      alpha.gas_0;
}
// * * * * * * * * * * * * * * * * * * * * * * * * * * * * * * * * * * * * * //

dimensions      [0 0 0 0 0 0 0];

internalField   nonuniform List<scalar> 
1496
(
0.878035166039
0.844638746627
0.83507602859
0.833354299925
0.834364705864
0.8345306946
0.834290104646
0.828327377192
0.798099412231
0.724703583144
0.61041815891
0.483447771569
0.365993411309
0.264731986738
0.196078302458
0.185451903519
0.18535917316
0.185574122975
0.279136453643
0.516072551396
0.878412946961
0.844782151699
0.834538908555
0.831084724484
0.833388693643
0.83454392843
0.834536486516
0.828724656139
0.798843143886
0.729156679226
0.626486905243
0.512217185272
0.397766766791
0.289542773892
0.205136130958
0.185380978073
0.185449300648
0.185418983998
0.333238064769
0.523987902625
0.878161412196
0.845450941073
0.829861750867
0.821229673859
0.82578163898
0.831094253851
0.831377116563
0.823988030552
0.792996761773
0.725122088223
0.625761962271
0.515082815665
0.403741731043
0.295586779928
0.208632962759
0.185414655474
0.185371310131
0.19348679383
0.36984962736
0.521776982785
0.878186065971
0.84470264901
0.819392831799
0.804136951237
0.808167026952
0.816307057489
0.816494224644
0.805337734172
0.77067070204
0.705396467803
0.614219425152
0.509768067431
0.400713893552
0.29320664984
0.207385899047
0.185341446165
0.185414655474
0.210006374405
0.390999851384
0.508848623157
0.877920273544
0.835883324066
0.803954844686
0.785222642878
0.784493124971
0.788340029098
0.784765251325
0.766466105896
0.725661293041
0.662034472889
0.580685328974
0.486048626481
0.382281595717
0.277649736383
0.19963477824
0.185359924393
0.185363247008
0.231121147995
0.398047121932
0.478718991548
0.878040708474
0.81187004999
0.783292214243
0.767075122995
0.7612466739
0.753772151303
0.737432508772
0.706603703891
0.658434492806
0.596081000716
0.521996384218
0.435232390108
0.336868874646
0.240393563088
0.187885551041
0.185267765534
0.188108272921
0.255060951162
0.396626423127
0.432282454635
0.871318657303
0.771107412543
0.756090011603
0.748372665229
0.741157386784
0.718516297262
0.678337223965
0.628823715925
0.573488622103
0.511720457807
0.440618559901
0.356916989878
0.265282885826
0.197236139671
0.185180263591
0.185257691762
0.194370189094
0.279577163138
0.384139699158
0.387539151935
0.837460827517
0.718694386141
0.721479301262
0.727050214072
0.721180369199
0.68089969576
0.610228675748
0.539198690616
0.475582203447
0.411075333041
0.3385626907
0.259411456328
0.1987788516
0.18512650657
0.185198112276
0.185077445657
0.206444812073
0.30242263814
0.359101765546
0.376161797434
0.812687128489
0.646546735326
0.681397494804
0.699677922252
0.69365592279
0.633620282106
0.534519933006
0.444289074187
0.368448841331
0.296579295907
0.230829842529
0.191082625685
0.185058843804
0.185179915221
0.184756777125
0.185198112276
0.229012860117
0.32383153139
0.352164911008
0.385825840573
0.791720185848
0.588508968257
0.640841939138
0.662122519929
0.65000419698
0.568076519219
0.450979440755
0.348601520226
0.259702171647
0.202099063972
0.185261626706
0.184886546432
0.185084007755
0.184542600202
0.185179915221
0.186194400961
0.267504392886
0.33959618911
0.359156101851
0.43255120468
0.758099765289
0.576198074487
0.611867619652
0.623127577191
0.591610754211
0.483056394362
0.360575926973
0.25730626425
0.191261041962
0.185016447926
0.184607018852
0.185016447926
0.184148986983
0.185084007755
0.184077141952
0.203967045814
0.312181950909
0.351815195651
0.389224870926
0.516196595941
0.708350467978
0.576214354191
0.606070445037
0.605019041689
0.543183087092
0.402495613749
0.279565884922
0.195606371581
0.185016447926
0.184455625671
0.184993382757
0.183755686631
0.185016447926
0.183451214794
0.185084007755
0.250559682141
0.346466081823
0.368728926233
0.444774258357
0.571135467014
0.676173859356
0.599362898918
0.615481838096
0.608391921375
0.535917157128
0.383072725661
0.25541867528
0.185016447926
0.18451226852
0.184938104587
0.183590051444
0.184991005789
0.183174984995
0.185016447926
0.202260921421
0.326705075228
0.37134426572
0.396921024838
0.492980145921
0.575207027385
0.692733578653
0.664817932148
0.648581267153
0.627340217018
0.552674921189
0.405516024966
0.270757387739
0.191460036854
0.184938104587
0.183598223069
0.184938104587
0.183174984995
0.184991005789
0.228094626317
0.332592090443
0.405838532353
0.409077931258
0.440340167665
0.515234825644
0.567114185171
0.762597412112
0.740982577424
0.693144359931
0.660081022861
0.603347408111
0.492977214233
0.358370540678
0.254489846485
0.203860429116
0.194359364374
0.199122898404
0.231547225305
0.319502572104
0.440840657099
0.515371735976
0.506450694625
0.488441761488
0.503848511597
0.533108569924
0.559042340926
0.844172427269
0.774313660238
0.71175680712
0.680951037968
0.650494810011
0.593632821914
0.500715218851
0.397403674363
0.318436607572
0.303694564913
0.331868596234
0.431610436323
0.561691791822
0.629792993825
0.642539679574
0.618106992896
0.593040349766
0.579190293256
0.566038986772
0.567453809086
0.847625724482
0.773757740585
0.712519156966
0.68385127674
0.661759976049
0.624189767786
0.563148128345
0.492453346609
0.441175806877
0.438592095822
0.472661578009
0.557479395305
0.636843558535
0.668245284216
0.668370662306
0.662128730268
0.642990479266
0.6241891455
0.608966267342
0.597590503975
0.846066561042
0.771728784991
0.71185074258
0.682477223003
0.659044497997
0.620748168599
0.561742247567
0.497079025091
0.456920393332
0.456809590507
0.48351990014
0.553622214386
0.625711759179
0.658674116277
0.662104307198
0.6561525169
0.639784701567
0.626441750414
0.625999847169
0.623909662541
0.847564120846
0.772168784633
0.709544069542
0.674895160696
0.644891793714
0.600037160152
0.537527622173
0.473701333007
0.43427434212
0.432343651688
0.450767540889
0.501922026399
0.567315542493
0.609238758317
0.618048589706
0.613789707574
0.607903396951
0.612822162601
0.623260420156
0.623221120207
0.846066561042
0.773802371137
0.703498406952
0.657389767636
0.616292114952
0.561041893173
0.489470790996
0.417899032777
0.37088705314
0.360848988511
0.36847766269
0.398805931234
0.452328978165
0.498898525578
0.513298021037
0.51735963495
0.534367452189
0.573322858711
0.603827223036
0.605931094952
0.846720889418
0.771536608319
0.688443702894
0.627912888943
0.576397624378
0.514971754253
0.43984443064
0.364228648657
0.310240635425
0.291381466115
0.292874425793
0.30572893508
0.334188543372
0.363624741673
0.379259564591
0.400436742859
0.450404132381
0.518417537652
0.563093510303
0.582165185264
0.846066561042
0.754395734516
0.653031584128
0.579087682622
0.521551569421
0.461133796152
0.392871484821
0.32679690454
0.282029393166
0.266439708716
0.266036484465
0.268768099454
0.275711255113
0.285893413235
0.302339981104
0.33595960309
0.402193983758
0.492503269343
0.567591072168
0.620174408845
0.842527304737
0.711478288811
0.585043118934
0.502550999716
0.445911771832
0.393591991927
0.340883633743
0.294979801958
0.268288706211
0.261153877392
0.261088488971
0.262366118861
0.266912609163
0.27602662676
0.291709474878
0.330142045553
0.422153563323
0.557270356724
0.672622832502
0.759547682534
0.822495050901
0.633317382793
0.485770515807
0.403885551766
0.357904039964
0.32146374809
0.290496738624
0.269149186478
0.260575722195
0.260122772944
0.260400940911
0.262978161644
0.269857802558
0.278302257635
0.298689893824
0.389667199421
0.581058372291
0.744241243894
0.837568332499
0.889389921448
0.796073375594
0.528446097295
0.376138846827
0.307414984632
0.284106527082
0.269891937769
0.261025341725
0.257549743499
0.257726129969
0.259308920353
0.263819027505
0.272049352092
0.278438946287
0.293897554304
0.395707855963
0.630940353656
0.811729408676
0.887933631526
0.917572181109
0.924742920306
0.756394029379
0.420670241084
0.29539636662
0.256898272597
0.254800175507
0.253498851558
0.25349637197
0.254319188469
0.258252768156
0.265942904267
0.275869215473
0.280621459845
0.294889586245
0.407255059469
0.670624100255
0.849996875409
0.909087733263
0.924389778861
0.924742920306
0.92514450086
0.67785742343
0.33784374788
0.266949537112
0.253260638745
0.252910922034
0.252562259431
0.252859485648
0.254901217113
0.264274043264
0.272544259239
0.276782254643
0.290716752246
0.400212856291
0.67595461931
0.853977360551
0.905279781856
0.921394507933
0.924742920306
0.92492839463
0.924742920306
0.56079058352
0.294349413821
0.267424332962
0.25803089079
0.256244138189
0.252214155885
0.252968374165
0.257288289999
0.263109643915
0.265365463932
0.278470133979
0.374045003571
0.642833423918
0.832122047171
0.883352477285
0.905005870695
0.91811192259
0.92343665319
0.924742920306
0.924830900055
0.450998448303
0.290591935604
0.28633652994
0.282260479981
0.265355393192
0.249597308953
0.245816509493
0.244781273593
0.243639988923
0.257031931989
0.338892559448
0.574341942767
0.782036714976
0.849735305059
0.87747032927
0.892451358975
0.903175325957
0.912020048548
0.917160522237
0.918902410878
0.403955408671
0.332428905146
0.327695081055
0.297193711555
0.255007701827
0.227929220246
0.214888273891
0.209282283261
0.22009654381
0.295000382567
0.485733512181
0.691650774659
0.794621555692
0.839935434274
0.855837580591
0.863826491386
0.873299516287
0.885061018964
0.894345766269
0.898606949154
0.417368582916
0.457302166139
0.392432784263
0.304569891293
0.234670973578
0.19863827525
0.188970397628
0.19062865101
0.233803758296
0.371799982469
0.554069709109
0.695510390403
0.778952674759
0.811071593011
0.820651779813
0.825402941605
0.832672811889
0.843846216234
0.854863974646
0.861784139676
0.538610297093
0.636831724664
0.503984413735
0.357931687936
0.247753373392
0.198985795856
0.18872977019
0.189697413518
0.243588474262
0.378152293471
0.534365885129
0.65733036301
0.730512772145
0.765136399572
0.778690674011
0.783568371703
0.787135498623
0.793094125884
0.800588646592
0.807635169901
0.707650666496
0.761134748648
0.676011972912
0.545634242087
0.379813312125
0.254904955581
0.20360001032
0.196607750608
0.226948290457
0.318144443578
0.439376187938
0.555237333458
0.643551661934
0.699445415211
0.727905389392
0.738051477063
0.739686044526
0.739030795081
0.737040103175
0.736389635424
0.784871448457
0.801234247015
0.775891793285
0.730618174491
0.634294590225
0.479519163255
0.325225043301
0.243785468836
0.230589607906
0.255489353432
0.303793043799
0.401986271942
0.511223896041
0.597990067885
0.653325148171
0.680157670136
0.687645945528
0.686317064207
0.676171426025
0.660340285594
0.80391044749
0.804328228754
0.794877664967
0.785313758241
0.766519868662
0.711935538164
0.591865289149
0.432565898941
0.309967251865
0.269523216259
0.277188899374
0.29126172563
0.351320020193
0.446970818228
0.532785053094
0.590992744778
0.62074461986
0.630353655459
0.626660413221
0.608662048764
0.806780491964
0.801757597105
0.789861743049
0.785795078859
0.785608717203
0.782009132079
0.756835442493
0.679199317222
0.540721155309
0.397541696572
0.315453450949
0.291092094682
0.292947033585
0.305270521372
0.367463992667
0.447403555748
0.50884054464
0.544618825754
0.566431621002
0.580357900626
0.807844171172
0.793677180474
0.778928798746
0.780298167351
0.785702083004
0.789841210911
0.789146690107
0.774069390407
0.723769686536
0.62399938819
0.498150161104
0.39560210837
0.328380749977
0.288591670772
0.258623742019
0.262080253834
0.305162779323
0.370612014083
0.447278862091
0.55134786568
0.804010548224
0.804332319971
0.798735967263
0.738649683522
0.664922333501
0.558393163896
0.378024698991
0.180475982373
0.0411777543388
0.00200058967672
9.55928819226e-06
2.75210922072e-06
1.67566392064e-06
5.77789773516e-06
1.67752937639e-05
0.307440806408
0.556433769132
0.582816878676
0.699035622063
0.786049469184
0.802434646241
0.802214015068
0.771728192716
0.679734600647
0.600550720974
0.45014225328
0.243526799
0.0754451013996
0.00725698957811
8.14197259108e-05
4.21680880984e-06
2.93847065227e-06
1.67197422832e-06
4.32691536863e-06
5.22705876925e-05
0.343970972492
0.545265108174
0.572162288296
0.657397579482
0.741107011577
0.77988575363
0.781081193643
0.738413876732
0.64515672994
0.529080073212
0.320932193783
0.110509780268
0.0134839420858
0.000258762734378
5.0662270395e-06
3.56597969614e-06
2.82930987432e-06
1.58531904601e-06
3.03938985073e-06
0.000195245118737
0.37254830889
0.531749611843
0.563735144255
0.63001582997
0.691058231597
0.739311962178
0.749218229548
0.726279173364
0.647788826884
0.47800222812
0.20361172035
0.0277652125633
0.000526781724648
4.54983102235e-06
3.61152408875e-06
2.9911000668e-06
2.35296859862e-06
1.50314649117e-06
2.52100378823e-06
0.000516015960828
0.392396182899
0.510715115827
0.551912693571
0.616767020994
0.662535935523
0.709306217936
0.733733183085
0.727720088002
0.667266542898
0.460516584868
0.126962711891
0.0050951387245
5.72834163884e-06
2.75905146168e-06
2.84736350225e-06
2.32774257648e-06
1.94365450102e-06
1.50116177965e-06
2.32143878816e-06
0.000817347254367
0.40342742386
0.479500908491
0.537768996716
0.612357239211
0.656831924066
0.703672016259
0.733420344493
0.731884162557
0.69710412392
0.451630774364
0.0878630142746
0.00192544097927
1.4902236158e-06
2.18979425427e-06
2.21139515705e-06
1.81871169436e-06
1.85983077582e-06
1.50004669509e-06
2.26557394432e-06
0.00107601024731
0.408860213664
0.445376155861
0.533447508302
0.613304503421
0.658087325965
0.704971524156
0.733114474314
0.73279991413
0.714684802173
0.43393449916
0.064994649905
0.000957998095674
1.43253505929e-06
1.87786501181e-06
1.77322946496e-06
1.55914471627e-06
1.85554213807e-06
1.49893145918e-06
2.27351725099e-06
0.00175083942166
0.408932047132
0.43384954147
0.539994993651
0.619480400342
0.661286221681
0.705769542931
0.73279991413
0.73248208249
0.715344283416
0.389212229253
0.0428882198537
0.000392639761962
1.42472574036e-06
1.69358927549e-06
1.46016192564e-06
1.42135561243e-06
1.85722259305e-06
1.49457076944e-06
2.6208426039e-06
0.00386908791443
0.408933793752
0.444924146261
0.561507528996
0.628811011157
0.661395712768
0.699467164096
0.726704408366
0.732169581978
0.696014493255
0.30177546346
0.0212440071061
9.49027851384e-05
1.41925166807e-06
1.41901610209e-06
1.41827368567e-06
1.41978974433e-06
1.91477012562e-06
1.37843679019e-06
3.28230162154e-06
0.00671637375707
0.397626284872
0.488450497091
0.592562911549
0.635124464296
0.656082651031
0.676948723463
0.699152305382
0.724719779196
0.631146470042
0.188821373735
0.00733726851626
1.01993998851e-05
1.42214960601e-06
1.4177396627e-06
1.41675052844e-06
1.41827368567e-06
1.91744998666e-06
1.1525958634e-06
3.06527728863e-06
0.00670774213944
0.367546611969
0.559046928897
0.619341799225
0.636288189848
0.64315369851
0.64104775471
0.647951030567
0.688059516092
0.518278251353
0.099546804406
0.00214792438357
1.39824124615e-06
1.57278252746e-06
1.42881404349e-06
1.41530579738e-06
1.53716183605e-06
1.75584284461e-06
1.15338299155e-06
2.16224675818e-06
0.00477754010851
0.33457554959
0.610790982331
0.632193138252
0.636047646854
0.628153465912
0.602931872071
0.590881118653
0.624728612718
0.39860693415
0.0531232723019
0.000795796466883
1.39744087348e-06
1.58409799764e-06
1.52948528826e-06
1.41379674761e-06
1.50824695066e-06
1.44491298225e-06
1.15099343891e-06
1.1728446807e-06
0.00200739198708
0.317405338231
0.620814847632
0.631799111886
0.631397999623
0.611307198271
0.568928751276
0.543089717381
0.558317607739
0.305771229027
0.0314650120582
0.000390181318406
1.3971002859e-06
1.58313095848e-06
1.43605261346e-06
1.25638672862e-06
1.16933658141e-06
1.14941512807e-06
1.15438093768e-06
1.15103497591e-06
0.000429055368404
0.316252254698
0.613435741034
0.618781012817
0.611448071672
0.583540978628
0.535581286457
0.50753662787
0.49308332346
0.222782779073
0.0178190403477
0.000191428030054
1.39408618353e-06
1.39374559596e-06
1.15512743788e-06
1.15591356565e-06
1.14774257475e-06
1.15511025815e-06
1.14998976225e-06
1.15543577301e-06
4.47947193622e-05
0.328392725242
0.587407359728
0.582810446049
0.568676647932
0.538051871612
0.493523582074
0.475357587913
0.4144699793
0.137070210841
0.0079944387622
7.43133638551e-05
1.3971002859e-06
1.40684665431e-06
1.18248841404e-06
1.1573481021e-06
1.15591356565e-06
1.1544190176e-06
1.15546015029e-06
1.1512570168e-06
0.000140833918984
0.359419003305
0.56180162514
0.546504608711
0.521257103772
0.481791215037
0.439734177851
0.438891788916
0.313153673204
0.0637858392361
0.00241291937115
1.96459160805e-05
1.44637918743e-06
1.55808480252e-06
1.27119629638e-06
1.15797724721e-06
1.15607808107e-06
1.15714738523e-06
1.25977732551e-06
1.65630097527e-06
0.0029770574211
0.379911730013
0.563825039649
0.543677007571
0.499551170782
0.439402726797
0.402188790913
0.39112208599
0.188429008343
0.0189676409608
0.000412817137356
4.17597724092e-06
2.06902934105e-06
2.08017448457e-06
1.68359203347e-06
1.3423793227e-06
1.15797724721e-06
1.15670755567e-06
1.15853469637e-06
2.2579651737e-06
0.0248329275115
0.37979449299
0.584304682653
0.554358714095
0.499187949967
0.426890138774
0.401811213183
0.307951386646
0.0738215632416
0.00300731690837
3.50135077295e-05
5.89129778326e-06
5.05188774231e-06
5.03199010135e-06
4.70109455369e-06
5.2943117552e-06
5.49423064812e-06
4.97481209379e-06
5.06116952089e-06
0.000599612153935
0.211621952897
0.379911730013
0.609413558783
0.568398826504
0.49980763006
0.428030742507
0.39940893591
0.205990210621
0.0170790966535
0.000295874215851
4.93828162287e-05
3.54193594048e-05
4.22977682286e-05
4.59746794663e-05
5.44662983484e-05
8.25148938911e-05
0.000124337454043
0.000197804447402
0.00160195739874
0.128091255567
0.558273627421
0.218040917502
0.608052671423
0.566701991673
0.499987860593
0.433631173121
0.411309914379
0.186472090214
0.00950432027667
0.000548719834981
0.00041608238943
0.000505105714957
0.000657743113987
0.000919089286445
0.0017325163676
0.00398949339747
0.0117604019419
0.0601862778889
0.277995642272
0.55107681443
0.558527174093
0.145867716495
0.592052840543
0.561086683825
0.515617403334
0.479251295861
0.48694945286
0.305396834913
0.044757738458
0.0088925688369
0.00752526548699
0.0087915279016
0.0139100347348
0.0313602929343
0.0774788899231
0.170756753497
0.311011017339
0.463746633963
0.556731870417
0.557177014801
0.528331542722
0.145503949114
0.592124555724
0.593572558365
0.605597978336
0.634984862996
0.667617007742
0.631368922391
0.408676754677
0.18382818932
0.115273779654
0.114691832853
0.171777989554
0.289085850309
0.410763795785
0.488040199198
0.52742793999
0.535020390243
0.537879492135
0.525817651445
0.508301962105
0.145708294022
0.672268451822
0.731785133216
0.789695471563
0.831453420172
0.847454772798
0.845689166416
0.780208050789
0.624890403238
0.490002383618
0.447845797673
0.473610425527
0.517637112542
0.531140780492
0.526477016365
0.492735361114
0.453214602084
0.427657553836
0.450570575351
0.508359312713
0.145396100866
0.828421871911
0.878201789965
0.905978256724
0.914825120442
0.911155768879
0.892340092528
0.853574742594
0.792554012316
0.71767994752
0.650058986572
0.603290548478
0.567968958924
0.530982195007
0.483137503165
0.410227329456
0.352403996687
0.344337583405
0.436138167102
0.507442059192
0.145593423888
0.916139158518
0.924745509758
0.924742920306
0.924920007264
0.917473058346
0.891616555585
0.851869099424
0.800174896897
0.741504902001
0.679854212806
0.621047084103
0.567773619838
0.513001368488
0.442229256094
0.355777891501
0.289393332286
0.308079892865
0.451073591526
0.507849804709
0.14536454696
0.925192529203
0.924742920306
0.925193196635
0.924742920306
0.912358110528
0.879886589176
0.836935662629
0.786944561597
0.730914396385
0.673781675806
0.615289289128
0.555477834659
0.489358878735
0.410675631614
0.316774850185
0.24509726094
0.278734649964
0.467583692298
0.506876817206
0.147549671882
0.924742920306
0.925111835606
0.924742920306
0.922493265778
0.898509244192
0.861168009028
0.816119976793
0.764064947784
0.708973361882
0.655743290134
0.598420559273
0.534259031219
0.461688739424
0.375924594797
0.278967834154
0.21103969721
0.253628220747
0.472246738377
0.507344522806
0.15895042469
0.925012044977
0.924742920306
0.924823941971
0.913163020627
0.881845658153
0.8438610729
0.796960318474
0.742491464892
0.687795870135
0.634986230355
0.576268758375
0.507325487066
0.428799006108
0.338875302377
0.243514592882
0.182365662765
0.230173566422
0.468594338827
0.506264872524
0.147515756008
0.924742920306
0.924750312613
0.919913183515
0.898709006049
0.867119280465
0.82805250405
0.7779741431
0.721173285856
0.666271801597
0.611761098938
0.548929116455
0.474190863128
0.390954887219
0.300965251095
0.210727410972
0.1582548891
0.209101013172
0.454207376036
0.506695283467
0.132860926299
0.919107135949
0.917081387225
0.906069572038
0.882933495044
0.852808123468
0.811021229255
0.756707387026
0.697306929325
0.640598993524
0.582343511281
0.514162546881
0.433836462857
0.347861597051
0.26189850174
0.179268100919
0.137955403479
0.193231628863
0.434547795546
0.505598965221
0.120150141135
0.899392147889
0.896558886085
0.884630922578
0.865111817137
0.835771485075
0.790633003789
0.731748472825
0.668831456929
0.608058043866
0.544018990726
0.469905741925
0.385162976423
0.299532001849
0.220897119337
0.147218291439
0.120145342848
0.184678945227
0.42128531938
0.505519929806
0.108744242956
0.864132688235
0.862770967545
0.855003509445
0.840728958591
0.812229948732
0.7642399363
0.700915723981
0.633190707935
0.565814003421
0.494382003885
0.414461861244
0.327903606048
0.246800665064
0.17714347877
0.114461179179
0.104097571865
0.183218508815
0.427547750507
0.487636157284
0.102715002815
0.812245502253
0.813891319156
0.811659417463
0.802601980669
0.776076625569
0.726734792586
0.659480975888
0.585815790641
0.510265748267
0.430928260184
0.347045639618
0.263757311451
0.191111662904
0.131193515617
0.0871261818149
0.0890931646959
0.191409212464
0.43769474023
0.475883670694
0.102772583644
0.738826648276
0.743759415105
0.745516157467
0.740521715827
0.717379273736
0.668793781697
0.599032533157
0.519620440569
0.436626898179
0.35192248673
0.269633281802
0.195669905352
0.134358291677
0.0882875797937
0.0716632547315
0.081151293927
0.209991106869
0.448886030566
0.465436554145
0.113801974574
0.648790313408
0.64843274851
0.649410781168
0.644610729974
0.623965956927
0.578004738962
0.508759197574
0.427277291219
0.34229648573
0.260223847575
0.187522153234
0.127839137059
0.0829426510452
0.0627612735599
0.0629845201756
0.0777583105635
0.245595109031
0.44830280557
0.449160730297
0.131548742511
0.581224696598
0.553968977128
0.539920904847
0.523560299274
0.494221176426
0.446358012574
0.38267424256
0.309174782648
0.23368296399
0.16503262551
0.1096310914
0.0717646033927
0.0545558144079
0.0541229962376
0.0568032704239
0.0772373104308
0.303659010411
0.447719211186
0.421384388915
0.146258891424
0.574437223379
0.528571696399
0.486803809629
0.441176655208
0.375105314482
0.297034147579
0.231013234484
0.176465592705
0.12628922736
0.0838753749199
0.0574934101312
0.0486709840012
0.0485266237325
0.0504654770913
0.0516535116362
0.0856437313716
0.374740182236
0.447147360175
0.379452955813
0.158429704327
0.582295827165
0.541504448624
0.49477742766
0.441009145407
0.357685168332
0.240591447811
0.133478428414
0.0790989571661
0.0569802508609
0.0489839149525
0.0481533404481
0.0481310223499
0.0479882156893
0.0479171936607
0.0479701217467
0.134417898936
0.407220815484
0.436400584702
0.314292707493
0.162707894333
)
;

boundaryField
{
    emptyPatch
    {
        type            empty;
    }
    minY
    {
        type            fixedValue;
        value           nonuniform List<scalar> 0();
    }
    maxY
    {
        type            inletOutlet;
        phi             phi.gas;
        inletValue      uniform 1;
        value           nonuniform List<scalar> 
40
(
0.807844171172
0.793677180474
0.778928798746
0.780298167351
0.785702083004
0.789841210911
0.789146690107
0.774069390407
0.723769686536
0.62399938819
0.498150161104
0.39560210837
0.328380749977
0.288591670772
0.258623742019
0.262080253834
0.305162779323
0.370612014083
0.447278862091
0.55134786568
0.582295827165
0.541504448624
0.49477742766
0.441009145407
0.357685168332
0.240591447811
0.133478428414
0.0790989571661
0.0569802508609
0.0489839149525
0.0481533404481
0.0481310223499
0.0479882156893
0.0479171936607
0.0479701217467
0.134417898936
0.407220815484
0.436400584702
0.314292707493
0.162707894333
)
;
    }
    water_to_cooler
    {
        type            zeroGradient;
    }
    water_to_heater
    {
        type            zeroGradient;
    }
    procBoundary0to1
    {
        type            processor;
        value           nonuniform List<scalar> 
41
(
0.873604665206
0.844996140832
0.832795091353
0.831075395484
0.829947116306
0.828887643715
0.826076601671
0.815334635046
0.776541573733
0.683978963475
0.546969401827
0.41814351841
0.317128100401
0.236008982218
0.189635162337
0.18547984785
0.185574122975
0.18535917316
0.22274116879
0.479327770075
0.80493278231
0.804010548224
0.804331022409
0.786428131481
0.712478284302
0.636523225032
0.490597772018
0.291814198918
0.103514376356
0.0117418981451
0.000135790833754
2.60882650567e-06
1.67935125548e-06
6.68537075559e-06
8.43657209012e-06
0.260764857274
0.568848121842
0.607935103614
0.745409174596
0.804287978923
0.804287978923
)
;
    }
}


// ************************************************************************* //
