/*--------------------------------*- C++ -*----------------------------------*\
| =========                 |                                                 |
| \\      /  F ield         | OpenFOAM: The Open Source CFD Toolbox           |
|  \\    /   O peration     | Version:  2312                                  |
|   \\  /    A nd           | Website:  www.openfoam.com                      |
|    \\/     M anipulation  |                                                 |
\*---------------------------------------------------------------------------*/
FoamFile
{
    version     2.0;
    format      ascii;
    arch        "LSB;label=32;scalar=64";
    class       volScalarField;
    location    "0.99/water";
    object      k.gas;
}
// * * * * * * * * * * * * * * * * * * * * * * * * * * * * * * * * * * * * * //

dimensions      [0 2 -2 0 0 0 0];

internalField   nonuniform List<scalar> 
1496
(
2.81964234571
1.12890603547
0.52591538489
0.266895435358
0.149508472638
0.0919016288305
0.06042875777
0.0411206855115
0.0286952187276
0.0207992422012
0.0160446136935
0.0132275944607
0.0114129253081
0.0101659167111
0.00931629139758
0.00875975876917
0.00849891086128
0.00857990624362
0.00877010733546
0.0084358814948
2.37191769739
1.02980620811
0.500414543399
0.266026342654
0.154580318671
0.0988229452744
0.0674380346334
0.0471888222898
0.0329423594793
0.0230793079319
0.0170194550108
0.0135818472556
0.0116147950205
0.0104621421715
0.00975643220674
0.00934051910245
0.00920189955388
0.00938564621313
0.00978510625364
0.00951141693328
2.12897713957
0.99513054789
0.50511637308
0.277941353477
0.166258750821
0.108541154872
0.0763025787411
0.0548331376762
0.0383999900423
0.0260760851941
0.0184489875991
0.0143020306775
0.0121159816407
0.0109516324556
0.0103418237302
0.0100485702186
0.0100060814752
0.0102972377014
0.0109233685188
0.0107241340898
1.99491883196
0.962088992725
0.503046942546
0.283018512329
0.171747521683
0.113691245334
0.081033361956
0.0597141494378
0.0428479614071
0.0292426733941
0.0203477709022
0.0154345700202
0.0129110642052
0.0116447648808
0.0110733261544
0.0109021337876
0.010974426922
0.0113889883671
0.012162596279
0.0118879395252
1.87994175809
0.92363065229
0.490279287178
0.276778868186
0.166509738595
0.109866869661
0.0797454465341
0.0609165167756
0.0459052475299
0.0322999217551
0.0224650434143
0.0168051341882
0.0139184043225
0.0125497764596
0.012000079491
0.0119395770252
0.0121600014905
0.0126830261569
0.013339112394
0.0127659596418
1.8056029004
0.905657962916
0.481891083086
0.267768714353
0.156399995165
0.101589332336
0.0745786110752
0.058869249709
0.0464220408998
0.0339702121504
0.0242188139302
0.0182724486497
0.0151586377506
0.0137087282115
0.0131916956006
0.0132203150559
0.0135563431343
0.0139613913907
0.0140485909341
0.0130867444793
1.79596708125
0.921007678684
0.487682287884
0.264014535194
0.150450852864
0.0962150389524
0.0702118079776
0.0559475697543
0.0450772286349
0.0339278886424
0.0251011547902
0.019554055135
0.016538066162
0.0150989266129
0.014614060533
0.0146661381474
0.0148504102791
0.0146089546075
0.0140207746846
0.0126216038965
1.88586980513
0.976442675822
0.516498425685
0.280756656064
0.160081934461
0.100678880685
0.071508506939
0.0556831424875
0.0445897843771
0.0341190845441
0.0259627632684
0.0208604044013
0.0179731033076
0.0165128068582
0.015966327047
0.0157225474192
0.0151827569594
0.0142014829991
0.0131170303413
0.0112766694684
2.06683569636
1.09903817885
0.581247996608
0.323059044449
0.187528057594
0.117776662753
0.0813559702229
0.0607729306659
0.0470982403255
0.0359486341941
0.0276665904542
0.0222875465039
0.0191240724892
0.0174324261275
0.0164797647973
0.0155288032174
0.0142999099891
0.0128999620523
0.0113569331134
0.009358828619
2.52165939743
1.30839134239
0.668094076493
0.375562755588
0.226051208771
0.144826785468
0.0990341772492
0.0714824703191
0.0531274999013
0.0393831390777
0.0296204332962
0.0233216534676
0.0195344849982
0.0172946704066
0.0157201025886
0.0142526359714
0.0126590825765
0.0109566528915
0.00920383963249
0.00736698921506
3.09525532134
1.48348412451
0.744688370484
0.420775081354
0.26267967516
0.172586912833
0.117716711066
0.0835091945416
0.0602664932251
0.0430339924042
0.0310523488288
0.0234777293921
0.0189455730554
0.0161920369498
0.0142351363911
0.0124706946779
0.0106497687248
0.00888950531728
0.00721369704746
0.00558932135181
3.32252122932
1.51367327013
0.751282297489
0.424191686561
0.269433923429
0.182396279748
0.127637312111
0.0907707700041
0.0643621128231
0.0444831187436
0.030965902393
0.0226187763213
0.0177087916798
0.0147017787802
0.012516123753
0.0105805833309
0.00879605423259
0.00716083368643
0.00560735428293
0.00414331640499
3.29827306933
1.4833882166
0.722679927751
0.400900279029
0.254603070781
0.175134643065
0.125173267497
0.0905556041639
0.064414563754
0.0431661264116
0.0294249667659
0.0211342164978
0.0162235594643
0.013128296165
0.0108639851309
0.00900655740429
0.00738314620859
0.00586579667379
0.00440465454964
0.00311785707385
3.33127058491
1.45560535748
0.685743245399
0.371300926264
0.234131537027
0.162259918562
0.117077905552
0.0853897217276
0.0608842869104
0.0398209663369
0.0269477661717
0.0192663316126
0.0146300287862
0.0116703374535
0.00955550893447
0.00787725945522
0.00639221712994
0.00493140209107
0.00356986515073
0.00243244899843
3.48375682438
1.46216559109
0.669499699297
0.353783480194
0.220951142244
0.153277417622
0.109843892928
0.0773683744399
0.0535704520444
0.0349250676325
0.0238766331492
0.0172183415671
0.0131306741505
0.01049527134
0.00862839313332
0.00713343905971
0.00570207962943
0.00427292140747
0.00301039232271
0.00202018351484
3.67024813201
1.52620225917
0.689498586817
0.358230339213
0.221791842933
0.153678069458
0.108697263655
0.0699756143536
0.0461224542708
0.0302816183802
0.0209936490133
0.0153605784359
0.011899687793
0.0096627953882
0.00805594396141
0.00666701314197
0.00521739490147
0.003815010584
0.0026792626367
0.00173584207269
3.7839675376
1.59620930116
0.733142573902
0.382470313634
0.23535089369
0.161859271472
0.112712258164
0.0682550325752
0.0426557082902
0.027699653604
0.0190967940276
0.0140851244133
0.0111096232788
0.00920420441237
0.00777260656964
0.00638825747184
0.00486437416644
0.00355409522268
0.00246509935481
0.00141237276881
3.79491137491
1.63514630166
0.774416257241
0.414114846118
0.255643477393
0.174747176027
0.121060607778
0.0735193146078
0.0444557022521
0.0278446892007
0.0186078751754
0.0135906938042
0.0108136441197
0.00907693421778
0.00769919648794
0.00621650047662
0.00467657832294
0.00344872482617
0.0022231733249
0.0011733435635
3.69845736514
1.62438217873
0.796385391198
0.439970636501
0.275014308951
0.188063139096
0.130666942039
0.081739853114
0.049391015836
0.0301408152116
0.0194032847596
0.0138244363667
0.0109423905226
0.0091982561009
0.00774470918742
0.00618509739927
0.00471586067765
0.00348019282609
0.0020226969081
0.00105446805054
3.50779117106
1.56050811114
0.787789307197
0.448973595064
0.286144190319
0.197354255737
0.138403044714
0.0894248755978
0.0549064880613
0.0332774255549
0.0209244916579
0.0145351419052
0.0113579721973
0.0094574111306
0.00791435136081
0.00640309322311
0.00501512686578
0.00358812529996
0.00198202381354
0.00105281482907
3.26003991116
1.4549819348
0.749277727882
0.437888340511
0.285278998018
0.19966140258
0.141901108608
0.0947044294571
0.0591692133002
0.0360070239326
0.0224821552443
0.0154064125941
0.0118913143722
0.00983213295961
0.0082878980807
0.00693830532965
0.00553919164524
0.00373787814404
0.00216041370671
0.00118476717385
2.99823406395
1.32976290206
0.691684025477
0.410722991118
0.272501294877
0.193651580493
0.13947011041
0.0953873637079
0.0609513800781
0.0375970575106
0.0236128681276
0.0161843918398
0.012472917163
0.0103560766518
0.00890807073919
0.00781061472028
0.00619892715757
0.00406204676529
0.00259855051339
0.0014940394352
2.7651661792
1.21437489762
0.634339415859
0.378304353942
0.252893808541
0.18142236653
0.132053274246
0.0919332709891
0.0600164240236
0.037772300458
0.0241354397354
0.0167707755443
0.013077615899
0.0110418668429
0.00979569404404
0.00894845262423
0.00684407572968
0.00463028599661
0.00330405310857
0.00203444017434
2.59367202941
1.13173383273
0.592246367271
0.349614963673
0.231269282026
0.16535014566
0.120774844546
0.0850468801082
0.0567103703528
0.0365791704495
0.0240066418689
0.0171336423199
0.0136980886818
0.011894361828
0.0109689379293
0.0101807431256
0.00737668044348
0.00542193449624
0.00422478373488
0.0028116315094
2.51248392053
1.09520228685
0.570683996482
0.329148230369
0.211481876339
0.148190452138
0.107451871544
0.0761628637541
0.0517769118079
0.034310765904
0.0233165338516
0.0173005519777
0.0143487142355
0.0129241652913
0.0124171136226
0.0111758373052
0.00785374450255
0.00635278107286
0.00530904313626
0.00374482344501
2.53969278237
1.11047379038
0.57654059667
0.323779690322
0.199022609772
0.133832191464
0.0946903120212
0.0668785196741
0.0460688473608
0.0314116739475
0.0222743841976
0.0173600958786
0.0150708295434
0.0141578727297
0.0138959798431
0.0115220970101
0.00836660850678
0.00733562221925
0.00639680754259
0.00473359473986
2.64808773861
1.15332051509
0.598195019287
0.329227725139
0.193854446855
0.123559662283
0.0839207812814
0.0583022202187
0.0404399582611
0.0284123974239
0.0211806939102
0.0174760162812
0.0159440161724
0.0155923433424
0.0148127889304
0.0113721100897
0.00900343005764
0.00825228590535
0.00735947650204
0.00565715649686
2.79816576681
1.20035531435
0.62000248905
0.336430669524
0.191883165468
0.116486818507
0.0755298293277
0.0511289302583
0.0355477063137
0.0258116798209
0.0203490512951
0.0178004247474
0.0169934625195
0.0168303733541
0.0145707043658
0.0111738953356
0.00968989386585
0.00903993292385
0.00810265704436
0.00632477329664
2.92251735431
1.23153370279
0.631038045535
0.338665829927
0.189234300336
0.110818219538
0.0688861541617
0.0453652684692
0.0316562453307
0.0238701476419
0.0198946235023
0.0182748701252
0.0179680232295
0.0168691407389
0.013591522273
0.0112607703016
0.0103180787473
0.0096456472855
0.00857955784743
0.00665575879725
2.94716135429
1.21817350436
0.617777296835
0.329404211443
0.182425875843
0.104675191996
0.063136244548
0.0407462222344
0.0287115485731
0.0224990097106
0.0195848397445
0.0185685744392
0.0180222059007
0.0154946246237
0.012803709595
0.011522378492
0.010808102884
0.0100288351356
0.00875782270192
0.00661844683774
2.78460938422
1.15279572982
0.5838330125
0.311872158649
0.172611502861
0.0980755502154
0.0580561494084
0.0370449534496
0.0264443427791
0.0213247966948
0.0190348278714
0.018148721483
0.0165355099734
0.0139669895183
0.0124499396115
0.0117394178244
0.011097967333
0.0101715037924
0.00865111436418
0.00627813414188
2.50084431239
1.0842963285
0.553846877036
0.297227152237
0.164158282789
0.0924669138001
0.0539864932576
0.0341737115489
0.02457967098
0.0201113511138
0.018018860716
0.0166541868051
0.0146885515431
0.0129217387352
0.0121644667442
0.0117645823492
0.0111562171781
0.0100921795511
0.00832952968343
0.00581214267796
2.33780456331
1.07577728758
0.555926039655
0.29564907202
0.161373322593
0.0900435057905
0.0519318959412
0.0325133629676
0.0232757063294
0.0189244210864
0.0166246680257
0.0149296831134
0.0132644426123
0.0121341270802
0.0117472853784
0.0115306275551
0.0109750842975
0.00982462098178
0.00789342682319
0.00540811694154
2.36162168155
1.15095124408
0.590042137794
0.309007558152
0.167546194033
0.0927632126624
0.0527752130799
0.0324126275364
0.0226795771211
0.0179973985126
0.0154520138829
0.0136974953667
0.0123350570652
0.0115015534415
0.0111978144675
0.0110548415849
0.0105683208836
0.00940209387055
0.00744790550798
0.00514816382265
2.57853932993
1.2694402788
0.641770538293
0.334951248434
0.182907219945
0.10160673413
0.0572667698264
0.0343569074079
0.0232444035543
0.0178574091365
0.014989333279
0.0131815858507
0.0119197989226
0.0111067812137
0.0106996137477
0.0104868552575
0.0100236189862
0.00889497123728
0.00708242887896
0.00501256849689
2.72825902943
1.34923161945
0.695214491735
0.375137159585
0.207306802013
0.115391321425
0.0647359420099
0.038328702087
0.0252316837088
0.0187636843576
0.0153926134477
0.0134004296594
0.0120302750685
0.0110752322915
0.0104841915927
0.0101061135187
0.00957980671322
0.00847845185339
0.00682249534649
0.00496924091252
2.64980143254
1.29716172631
0.68871172111
0.391027376023
0.22635684911
0.12762012215
0.0715537290256
0.0425827361085
0.0279149830482
0.0204242706935
0.0165091937768
0.014268625954
0.0126930776386
0.011495577682
0.0107339721574
0.0102212727273
0.00952466138335
0.00831712417583
0.0066935312813
0.00490702457598
0.00574165604821
0.00507374742769
0.00379082700076
0.00220268547077
0.00148984833608
0.0048549622493
0.00557181195421
0.00699109146404
0.0120755088712
0.0212805675133
0.0346902896588
0.0538814715192
0.00904963182299
0.00986371302269
0.00663692493819
0.0545028812733
0.00750477804405
0.00667958250578
0.00622783636278
0.00597917359036
0.0056555820716
0.00490704591136
0.00362861820226
0.00208008763141
0.00237814265156
0.00647022726875
0.00616362143866
0.00811455463578
0.0144876929435
0.0256992975451
0.0424620340289
0.0457317557098
0.0104906302251
0.0101462558356
0.00550207919664
0.0405730140531
0.00824732995335
0.00704334067585
0.00628695498091
0.00579206373966
0.00529459787446
0.00450887387839
0.003397896364
0.00204937717809
0.00305655577996
0.00709145811991
0.00688150872499
0.00948488117112
0.0175881294291
0.0316738623043
0.0530372714453
0.0138243691546
0.0108226671197
0.00998024745117
0.00313607975863
0.0106788068351
0.00898941906844
0.00732114837598
0.00619933145905
0.00544211377688
0.00477824327996
0.00402678552221
0.00313135572603
0.00202765778087
0.00328366765288
0.00780250170907
0.00779538429859
0.0110565102223
0.0213001862457
0.0391985720922
0.0649033544637
0.0108025884527
0.0104697739673
0.00947618063223
0.00089645447266
8.70601870628e-15
0.00969798287894
0.00754196579125
0.00606231253344
0.00506025701271
0.00427751566807
0.00357742474674
0.00285288854242
0.00202587208093
0.00314157496219
0.00854561564047
0.00901949555047
0.0127855841799
0.0251194650181
0.0479265082138
0.0417370392189
0.0113895224014
0.00986822754806
0.00838972672655
0.000395641235156
8.7063680472e-15
0.0102057828836
0.00767844231546
0.00592518523443
0.00475219586034
0.00388993863499
0.00320374733304
0.00261442188076
0.00206330631591
0.00249474246943
0.00833030164693
0.0106550762048
0.0150233131846
0.0293044197006
0.0586514291764
0.0156627112375
0.0109587738439
0.00921383676948
0.00682195690205
0.000219334927633
8.59835932727e-15
0.0102847001664
0.00765174864749
0.00578497868041
0.00450696187849
0.00357236354404
0.00289784834354
0.00243055457952
0.00212690385076
0.00251469303979
0.00523299419061
0.0120552652145
0.0188482767518
0.0362851222155
0.061428736895
0.0138394526574
0.011090667436
0.00881715249893
0.00541521290122
0.000125959873286
8.68084756266e-15
0.00978781636968
0.00729319795733
0.00548460376325
0.00419904083448
0.00326075320231
0.00264531863113
0.00232200999211
0.00226723825387
0.00234278817408
0.00363128757644
0.0104713607449
0.0233350304927
0.0403223364491
0.0148317377919
0.0150934718045
0.0118457294937
0.00826404383171
0.00392942934771
6.17298846309e-05
8.69853610532e-15
0.00868851204585
0.00653458275344
0.00492404442817
0.00372446950293
0.00289087682429
0.0024434350906
0.00241093014224
0.00281137212393
0.00356302204393
0.00534873069647
0.00799020504121
0.0119311988276
0.0138790749152
0.0172932807366
0.0158777202273
0.0114694753701
0.00619081961553
0.00214264983212
2.29999800055e-05
3.84228324713e-07
0.00721600420692
0.00546098424109
0.0040893504997
0.00309164808339
0.00252074418008
0.0024989963845
0.00323400540592
0.00489323921424
0.00757575043679
0.0106487062376
0.0137385262592
0.0165184935288
0.0158018624543
0.0156213610972
0.0137966633272
0.00789303989936
0.0029597060111
0.00112322270027
7.73994107901e-06
1.36688884306e-11
0.00563349780601
0.00419149743629
0.00312265268606
0.00249368574606
0.00244504966132
0.00354177395238
0.00622594430333
0.00985677488563
0.0141677158212
0.0179994750949
0.0191652383783
0.0168485576555
0.0121470871493
0.0100183407796
0.00733391314621
0.0032211087421
0.00112260540455
0.000762920976708
3.09403083737e-06
2.03168453529e-08
0.00412552446549
0.00301644494658
0.00233791493431
0.00221014044044
0.00324437437696
0.00647836243749
0.0109689697957
0.0147342671796
0.0181422625257
0.0198773553671
0.018291596535
0.0118747941922
0.00695600603791
0.00429369105524
0.00237716783815
0.00114527946045
0.000718481034919
0.000618239059205
2.1927842289e-06
1.12799552718e-08
0.00295439354548
0.0021555068377
0.00190709211175
0.00237180918816
0.00510322928499
0.0106531893197
0.0157642879205
0.0186202889373
0.0197568865951
0.0180535100957
0.0124484291183
0.00668470133621
0.00450514132493
0.00222874631274
0.00118751618347
0.000782880959384
0.000675480793627
0.000518850624417
1.87409534631e-06
8.84830452536e-09
0.00214708854058
0.00162413335902
0.00173128946134
0.00254623013069
0.0079358803774
0.0145521256719
0.0180175838478
0.0195881302509
0.0193361593505
0.0159331804673
0.00743304676845
0.00522110511149
0.00365745681583
0.00186979571742
0.00100549035936
0.000614350210124
0.00056653268934
0.000434320557476
1.5206866816e-06
5.94066882421e-09
0.00164513233958
0.00130093635837
0.00136541560241
0.00332795342029
0.0100034206719
0.0152161778241
0.0179511233243
0.0187916154656
0.0179628871132
0.0137274006837
0.00649663768996
0.00496899755838
0.00356633112451
0.00191498519622
0.00100891725003
0.000530914855521
0.000468872889965
0.000356534019365
1.01422171829e-06
3.15105480278e-09
0.00133888156068
0.00100633953434
0.000697430849236
0.00387472246917
0.00962069726934
0.0140844844446
0.0163873679225
0.0169844989391
0.0160284324242
0.0117828231402
0.0064188311496
0.00483249299397
0.00363410565868
0.00206487410426
0.00106405352502
0.000572919899487
0.000388022738308
0.000286210609504
1.19586557362e-06
4.28597840697e-09
0.00104825431531
0.00067059322597
0.000366054586448
0.00384811977212
0.00855353584826
0.0122635999598
0.0142078758189
0.0146336364691
0.0137125212427
0.0103038457651
0.00658196376447
0.00478674055643
0.00321532996272
0.00213797821011
0.00134068726539
0.000719017885588
0.000343713458198
0.000231264168152
4.62148374573e-06
2.71518036517e-08
0.000790886700567
0.000414749311605
0.00029007377702
0.00341465549547
0.00695560827484
0.00996251060225
0.01151058593
0.011825884581
0.0109565366669
0.00858923842819
0.00621412255574
0.00450855086891
0.00334817936233
0.00271537877653
0.00205941738716
0.000971106121271
0.000413665195907
0.000271604953811
2.60716938366e-05
2.90617470121e-05
0.000610473899131
0.000265049890144
0.000289648680397
0.0026833681094
0.00519322575683
0.00745409869631
0.00868958711893
0.00882544577435
0.00803051876802
0.00649232001046
0.00516837528127
0.00431155259626
0.00384822795116
0.00350547421705
0.00294024759654
0.0016587969926
0.000614729822074
0.000339651349672
7.52602778744e-05
8.63931800547e-15
0.000494665927061
0.00019436984174
0.000295128324377
0.00182137615755
0.00350500659199
0.00517912995273
0.00615857330853
0.00625085819515
0.00577554666497
0.00514150990096
0.00473333359977
0.00446425254857
0.00433128153869
0.0041308093509
0.00362005864546
0.00266082795403
0.000794680172622
0.000493246300065
0.000201711523757
8.72177351795e-15
0.000467185888984
0.000185178305949
0.000266176506913
0.00106947761237
0.00213939984354
0.00335383112874
0.0040856588479
0.00430938752992
0.0042964267868
0.00453913605036
0.00486370587206
0.00506745582184
0.00514491953262
0.00503379008779
0.00451555212548
0.00340294074852
0.000738877730386
0.000371428907337
0.000240563916419
8.72173714205e-15
0.000538964475042
0.000233763017596
0.000248535409119
0.000610973517407
0.0012641222241
0.00209555767969
0.00265618811701
0.0030097161454
0.00336374759458
0.00401612305972
0.00530359710812
0.00593876645534
0.00615410052112
0.00600889630542
0.0053227948223
0.0038922760987
0.00055595879946
0.000194759286717
0.000154630050102
8.72194543123e-15
0.000719087658917
0.000340266599086
0.000289161186378
0.000437761401876
0.000805281721086
0.00136031218434
0.00181562709912
0.00226094941697
0.00295569109449
0.00356816382411
0.00573338270807
0.00673474924144
0.00698400231534
0.00663214226836
0.00543367030887
0.00380492571971
0.00036288847822
0.000103221125148
7.08370964543e-05
8.72189513765e-15
0.001028346003
0.000515639233798
0.000370644193619
0.000422716572637
0.000616309962115
0.000949516602954
0.00131136076574
0.00183479545359
0.00277445386255
0.00314737892823
0.0063147483515
0.00744465201514
0.00749325490468
0.00657372753785
0.00472766794518
0.00215203352573
0.000194566345869
6.81955152631e-05
2.88667674136e-05
8.72207218045e-15
0.00150905287075
0.000787269900808
0.000466732412735
0.000434307481379
0.000535478207588
0.000727619490351
0.000970993279384
0.0014184900944
0.0024193914698
0.00334391627443
0.00650530104655
0.00733575718576
0.00709803037366
0.00584094988953
0.00399777402718
0.000745898290721
8.4078143334e-05
6.34859138919e-05
3.29203782182e-10
8.7220577364e-15
0.00218645799016
0.00116177598438
0.000640512499252
0.000432155751753
0.000429732594802
0.000504003217369
0.000610411160356
0.000880836501694
0.00170096218795
0.00442485693939
0.006092994746
0.00654635203685
0.00616914838987
0.00468895024416
0.00213001352502
0.000408316528681
9.0151947566e-05
9.55945975016e-05
5.18863588259e-09
1.13616418897e-09
0.00292093187816
0.00162230334453
0.000878974569702
0.000544340053527
0.000443346433906
0.000443371896085
0.000492982242779
0.000516514793387
0.000996376944894
0.00510561357549
0.00572832590934
0.00559675511969
0.00523689843019
0.00406253717438
0.00104439109848
0.000219948291973
0.000178680908788
0.000130369271072
5.62517941212e-07
2.54174592281e-10
0.00353360145507
0.00205793601001
0.00112564942622
0.000702818952281
0.000577962412846
0.000536513279699
0.000498403937616
0.00040195909516
0.000496368770804
0.00631576901562
0.0061343964633
0.00403457705785
0.00377295708747
0.00332499997736
0.000949205237497
0.00042887939468
0.000257010250857
0.000173063946667
2.46467387184e-06
3.51214064673e-06
0.00394800760049
0.00232843376116
0.00131864280896
0.000780826491964
0.000644197136202
0.000582998094272
0.000543002926697
0.000451071670274
0.000326936778989
0.00750050827961
0.00605899493438
0.00298278143068
0.00286821342295
0.00276514486147
0.00106894788478
0.000434346510195
0.000271702370333
0.000255678038609
3.15615363874e-06
5.40119179578e-06
0.00410406741748
0.00241658393822
0.00137521971705
0.000790306947912
0.000666918681209
0.000610266984252
0.000597727137692
0.000458142424573
0.000601209794624
0.00625483482913
0.00475356069767
0.00288389716911
0.00266817998785
0.00235139211327
0.0011320521692
0.000726726036323
0.000652236921904
0.000733112923517
5.49288116601e-06
9.98388547613e-13
0.00401961735472
0.00233562882952
0.00129077549496
0.000775864225402
0.000671650950994
0.000640128339128
0.00068482410454
0.000610483833667
0.00148498805296
0.00370472634227
0.00392841174015
0.00287228183991
0.00235452472516
0.00183511066178
0.00112652823176
0.000855557996811
0.000818233316937
0.000905917426262
3.59086720958e-05
2.84550148349e-07
0.00378795039713
0.00212223608125
0.00111587792607
0.000770722132092
0.000685231204232
0.000756228799585
0.000896817616609
0.000792966272861
0.00192795205559
0.00227392336396
0.00330165146218
0.00271218642898
0.00210665262269
0.00166218764945
0.00127165907957
0.00107416007247
0.000987655310081
0.000979981409088
1.84022022816e-05
3.48952542556e-12
0.00351164435391
0.00184597986713
0.000938743120545
0.000756891439531
0.000783900903373
0.000924466270186
0.000976275953628
0.00130988535939
0.00161629438075
0.00168942246273
0.00279125695944
0.00248446729429
0.00208927117801
0.00180280733534
0.00148501170075
0.00112705605024
0.000882786912359
0.000872371343611
7.01052292857e-05
5.88644097559e-07
0.00326127114606
0.00163509585651
0.000960181764962
0.000821222004714
0.000991807185387
0.00135639237234
0.0011750256332
0.00146129560558
0.00151308867939
0.00152780593267
0.002306423614
0.00240074804073
0.00216371818438
0.00205966360419
0.0016937246373
0.000978638753595
0.000582889487933
0.000475773613193
4.49586195399e-05
9.14815834354e-13
0.0030991740031
0.00157907586774
0.000983412372767
0.000965813190811
0.00119755351632
0.00150939295202
0.00152077576808
0.00164039565412
0.00168078453362
0.00163253997253
0.00190899284218
0.00224512354265
0.00229789558006
0.00227188824595
0.00185295773146
0.00068412505163
0.000373143808488
0.000179453751506
3.92844438292e-05
1.86695902079e-08
0.0031019215629
0.00168267067527
0.00109923995966
0.00120837808138
0.00166773193633
0.00181770550591
0.00193431793032
0.00198947970904
0.00201092171479
0.00185996795722
0.00175874608484
0.00202339586986
0.00252222322607
0.0024833297999
0.00197502390597
0.00039311314921
0.000190276162854
9.68738841009e-05
6.02389305792e-05
6.95539749676e-09
0.00320230555082
0.00188131359323
0.00131563052515
0.00141058964706
0.00211321866552
0.00225219796477
0.00237588939228
0.00238325438252
0.00236810262654
0.00208060128022
0.00173426160591
0.00183474325991
0.00270076043409
0.00267249322369
0.00203538798762
0.000262363501673
7.77409134382e-05
0.000144087442849
8.32078275626e-05
1.72867413106e-05
0.00328911781256
0.00210436603936
0.00140426072349
0.00169033529775
0.00231570686299
0.00267564994587
0.00278967151482
0.00275064408886
0.00267716577834
0.00227822484574
0.00178913513991
0.00179727258724
0.00279816356298
0.00268720924878
0.00197238559895
0.000228084293439
5.38235562075e-05
0.000241711202311
0.000132148932942
2.72750548742e-05
)
;

boundaryField
{
    emptyPatch
    {
        type            empty;
    }
    minY
    {
        type            fixedValue;
        value           nonuniform List<scalar> 0();
    }
    maxY
    {
        type            inletOutlet;
        inletValue      uniform 1e-05;
        value           nonuniform List<scalar> 
40
(
2.64980143254
1.29716172631
0.68871172111
0.391027376023
0.22635684911
0.12762012215
0.0715537290256
0.0425827361085
0.0279149830482
0.0204242706935
0.0165091937768
0.014268625954
0.0126930776386
0.011495577682
0.0107339721574
0.0102212727273
0.00952466138335
0.00831712417583
0.0066935312813
0.00490702457598
0.00328911781256
0.00210436603936
0.00140426072349
0.00169033529775
0.00231570686299
0.00267564994587
0.00278967151482
0.00275064408886
0.00267716577834
0.00227822484574
0.00178913513991
0.00179727258724
0.00279816356298
0.00268720924878
0.00197238559895
0.000228084293439
5.38235562075e-05
0.000241711202311
0.000132148932942
2.72750548742e-05
)
;
    }
    maxX
    {
        type            kqRWallFunction;
        value           nonuniform List<scalar> 
38
(
0.0545028812733
0.0405730140531
0.0106788068351
8.70601870628e-15
8.7063680472e-15
8.59835932727e-15
8.68084756266e-15
8.69853610532e-15
3.84228324713e-07
1.36688884306e-11
2.03168453529e-08
1.12799552718e-08
8.84830452536e-09
5.94066882421e-09
3.15105480278e-09
4.28597840697e-09
2.71518036517e-08
2.90617470121e-05
8.63931800547e-15
8.72177351795e-15
8.72173714205e-15
8.72194543123e-15
8.72189513765e-15
8.72207218045e-15
8.7220577364e-15
1.13616418897e-09
2.54174592281e-10
3.51214064673e-06
5.40119179578e-06
9.98388547613e-13
2.84550148349e-07
3.48952542556e-12
5.88644097559e-07
9.14815834354e-13
1.86695902079e-08
6.95539749676e-09
1.72867413106e-05
2.72750548742e-05
)
;
    }
    water_to_heater
    {
        type            kqRWallFunction;
        value           nonuniform List<scalar> 
59
(
2.81964234571
2.81964234571
2.37191769739
2.12897713957
1.99491883196
1.99491883196
1.87994175809
1.87994175809
1.8056029004
1.8056029004
1.79596708125
1.88586980513
2.06683569636
2.06683569636
2.52165939743
2.52165939743
3.09525532134
3.09525532134
3.32252122932
3.29827306933
3.33127058491
3.33127058491
3.48375682438
3.48375682438
3.67024813201
3.67024813201
3.7839675376
3.79491137491
3.69845736514
3.69845736514
3.50779117106
3.50779117106
3.26003991116
3.26003991116
2.99823406395
2.7651661792
2.59367202941
2.59367202941
2.51248392053
2.51248392053
2.53969278237
2.53969278237
2.64808773861
2.79816576681
2.92251735431
2.92251735431
2.94716135429
2.94716135429
2.78460938422
2.78460938422
2.50084431239
2.33780456331
2.36162168155
2.36162168155
2.57853932993
2.57853932993
2.72825902943
2.72825902943
2.64980143254
)
;
    }
    procBoundary0to1
    {
        type            processor;
        value           nonuniform List<scalar> 
41
(
3.56480985338
1.35430269626
0.619082570193
0.29921827559
0.157525288861
0.0918218752508
0.0574204311998
0.0378081131784
0.0262810960217
0.0195155301561
0.0155112656045
0.0130660926044
0.0114013890075
0.0100699807532
0.00904069326417
0.00830575372605
0.00789531384568
0.00784195658818
0.00786021502487
0.00747805089946
0.00555994276914
0.005002120691
0.00386352162494
0.0025781282057
0.00126190711944
0.0010722780429
0.00468038526277
0.00608644813803
0.0101732348371
0.0179653484598
0.02890499356
0.0445523976248
0.0114927780091
0.00924487764605
0.0071611500048
0.0603133704239
0.00675526163834
0.00617652192404
0.00592911711755
0.00589170559849
0.00589170559849
)
;
    }
}


// ************************************************************************* //
