/*--------------------------------*- C++ -*----------------------------------*\
| =========                 |                                                 |
| \\      /  F ield         | OpenFOAM: The Open Source CFD Toolbox           |
|  \\    /   O peration     | Version:  2312                                  |
|   \\  /    A nd           | Website:  www.openfoam.com                      |
|    \\/     M anipulation  |                                                 |
\*---------------------------------------------------------------------------*/
FoamFile
{
    version     2.0;
    format      ascii;
    arch        "LSB;label=32;scalar=64";
    class       volScalarField;
    location    "0.905/water";
    object      epsilonm;
}
// * * * * * * * * * * * * * * * * * * * * * * * * * * * * * * * * * * * * * //

dimensions      [0 2 -3 0 0 0 0];

internalField   nonuniform List<scalar> 
6000
(
16.4160591867
2.55804337141
0.331211363953
0.040198262877
0.00555165326723
0.00085630998357
0.000219586066353
0.000100428312216
6.73579338679e-05
5.55745218899e-05
5.06471966368e-05
4.83590533238e-05
4.72019017106e-05
4.65650157426e-05
4.61846150815e-05
4.59418485482e-05
4.57802615626e-05
4.56708387309e-05
4.55972511804e-05
4.55496871129e-05
547.514205709
103.9039455
17.399365189
2.57535719215
0.325901904336
0.0395172701868
0.00559596450377
0.000896427267645
0.000219095311615
9.82009161253e-05
6.63837783312e-05
5.51425337181e-05
5.04377760688e-05
4.82515839636e-05
4.71411578061e-05
4.65222700006e-05
4.614543899e-05
4.59007907257e-05
4.57377050841e-05
4.56310793045e-05
764.372994044
178.155120965
39.8019428784
8.15131777371
1.39845444182
0.192313993598
0.024509801279
0.00367478880913
0.000674367434174
0.000197653550816
9.76429683763e-05
6.7716149559e-05
5.62447833508e-05
5.11881509821e-05
4.87599729892e-05
4.75025456694e-05
4.67934684666e-05
4.63577843687e-05
4.60734174952e-05
4.58854160973e-05
976.418120468
241.965898943
60.2381512047
14.7219336862
3.24825544697
0.57744728395
0.0800225899222
0.01081014334
0.00175405006965
0.00039401109549
0.000149372813068
8.66383780487e-05
6.46792203426e-05
5.5387655738e-05
5.10247230963e-05
4.88327393328e-05
4.76549527688e-05
4.69693927201e-05
4.65381911019e-05
4.62548328243e-05
1058.64767311
278.526268409
74.5341975853
20.1666716922
5.20854839631
1.16769804548
0.201058148373
0.0278057175762
0.00411843223743
0.000765568842615
0.000230465893851
0.000112833883719
7.57179200042e-05
6.07791901416e-05
5.38948322193e-05
5.04751030113e-05
4.86783315437e-05
4.76714850169e-05
4.70628456182e-05
4.6671228348e-05
1036.3389236
289.244030129
82.7872314685
24.2042234867
6.96121434376
1.83643974799
0.399266938401
0.0655011948782
0.00951482607202
0.00151963085285
0.000362627897556
0.000148861424029
8.96220587815e-05
6.73416125306e-05
5.73460071984e-05
5.24199480109e-05
4.98514533796e-05
4.84402704717e-05
4.76128743561e-05
4.70943056915e-05
1021.68965285
290.483538588
86.3825842812
26.6917443891
8.29650673849
2.46688957901
0.645718996373
0.133904930587
0.0218437722933
0.00322920800518
0.000600344740392
0.000200441101319
0.000107095475993
7.5135047916e-05
6.13664804242e-05
5.46633157648e-05
5.11767156722e-05
4.92742780626e-05
4.81787042538e-05
4.75077936942e-05
1030.19810353
293.310481908
88.7879388884
28.3464946793
9.28527832016
3.00678249786
0.910365284517
0.234850918339
0.0475617440755
0.00747214652732
0.00109547903323
0.000280319388635
0.000129485518915
8.42917269095e-05
6.59414072111e-05
5.71869510568e-05
5.26470091007e-05
5.01710310212e-05
4.87563910498e-05
4.79045746882e-05
1037.18891173
296.385803864
90.5003239411
29.5024375936
10.0393295314
3.47863570254
1.17570065708
0.36196619903
0.0940963601695
0.0183734424525
0.00236762398176
0.000424597063526
0.000159888621273
9.51301056388e-05
7.10737622916e-05
5.99614105354e-05
5.42403538773e-05
5.11176211165e-05
4.9337897266e-05
4.82794929566e-05
1039.08994078
297.658586398
91.2932375349
30.1791173422
10.5958318662
3.87144569075
1.42234087114
0.499617951713
0.160043816148
0.0428126912533
0.00605357524354
0.000740373408522
0.000205581836553
0.000108435353421
7.68657727127e-05
6.29793919782e-05
5.59352577932e-05
5.2097697361e-05
4.99149514444e-05
4.86314854697e-05
1034.25329052
297.205863837
91.3671316266
30.5241007119
10.9992581522
4.18577440404
1.6315732712
0.626412711736
0.236320580091
0.0848066026668
0.0166437797942
0.0015608171226
0.000286062929661
0.000126615366047
8.3841354604e-05
6.63670779751e-05
5.77527634665e-05
5.31166026232e-05
5.04928097807e-05
4.896358655e-05
1034.50329124
296.601080753
91.2160709382
30.7127108071
11.2858968644
4.41515923156
1.77659503639
0.725867963812
0.309566239836
0.140287897203
0.0422299695297
0.00389967363635
0.000457550282607
0.000156444299408
9.34554698417e-05
7.05269837188e-05
5.9829046719e-05
5.42169600896e-05
5.10873833666e-05
4.92899343303e-05
1046.76509137
298.670306937
91.8243674016
31.069592735
11.5178298792
4.55009223294
1.85579483779
0.795318390184
0.374444550664
0.200638970878
0.0850905849497
0.0118637972612
0.000912349225904
0.000218061114824
0.000109225890842
7.62647850973e-05
6.23783782755e-05
5.54767200858e-05
5.17411321513e-05
4.96417081682e-05
1077.78383454
305.96503253
93.9445484697
31.7990111047
11.7509048774
4.61228961027
1.89077359373
0.845908171383
0.435098702519
0.26144177676
0.141311458292
0.0346868532258
0.00263582402886
0.000372772350295
0.000138281465274
8.494798583e-05
6.57861289202e-05
5.70450424042e-05
5.25311465926e-05
5.00680316594e-05
1097.02316333
315.870115237
98.1720987815
33.1366017626
11.9974898839
4.61184958298
1.90931675924
0.895407429057
0.498280564855
0.323576011496
0.205851428784
0.0774593807942
0.00998552796879
0.000830728597601
0.000198606413421
9.9275377089e-05
7.07014544653e-05
5.91514330643e-05
5.35654353863e-05
5.06298622492e-05
1133.77292602
338.521715602
106.123614176
34.9108142629
12.16415472
4.60364933593
1.9550631148
0.960337359391
0.563369403017
0.383544770972
0.27297673672
0.142187638778
0.0335425573539
0.00253880157469
0.000343760673139
0.000124769087318
7.81270934382e-05
6.20952068998e-05
5.49694218479e-05
5.13899285791e-05
1305.92757753
386.448258703
117.120050469
37.0129354135
12.6127458559
4.79819786609
2.08839782947
1.05381256626
0.624249319241
0.434540463945
0.333749817699
0.221523589463
0.0850054270024
0.0100846280408
0.000748443956956
0.000173333204313
8.95964697655e-05
6.62369789267e-05
5.68729529675e-05
5.24051648861e-05
1588.47084493
438.549044829
128.69463953
40.2501939109
13.7412015717
5.26606636349
2.30573953952
1.16572170016
0.687347002924
0.47508040339
0.38121086485
0.295735153743
0.162204229322
0.0353358755615
0.00203206069997
0.000271797143668
0.000107369881648
7.19793996177e-05
5.94023978264e-05
5.37257498781e-05
1666.75657225
465.458788046
137.735753571
43.5254462149
15.0326074433
5.80516318486
2.54080321385
1.27578486747
0.746128748687
0.513797436961
0.412296490499
0.353554328193
0.241988794395
0.0861675731507
0.00643012999203
0.000485037717707
0.000135105029479
7.98266044516e-05
6.26952566419e-05
5.54020257449e-05
1697.89380571
476.943406478
142.354638733
45.5748009599
15.945978639
6.21272727393
2.72093379971
1.35957758042
0.795504413997
0.552037017477
0.441876451356
0.384299786307
0.305395909991
0.150631637442
0.0190448234833
0.000991453821699
0.000180593084299
9.06556301291e-05
6.69475981939e-05
5.74955727949e-05
1705.46003549
482.329458969
144.933514617
46.7618528351
16.4871039769
6.4558689985
2.83044340822
1.41888841831
0.842536628989
0.592139188292
0.473622409788
0.413658676788
0.35027168313
0.209235434627
0.0430762815463
0.002086661728
0.000253718791492
0.000105746623406
7.24400330683e-05
6.0083331974e-05
1717.46093676
486.80967853
147.014113253
47.5706469209
16.8263651283
6.60887485276
2.91075725603
1.48041884255
0.895586076632
0.633087982383
0.510409882347
0.449998737875
0.390396303606
0.260049257515
0.0770545427486
0.00427987889298
0.00038085150929
0.000127984244361
7.96464404726e-05
6.32653023207e-05
1744.69232533
494.338022176
149.267584718
48.3014867244
17.1190829726
6.75208901463
3.0013979902
1.55564662493
0.94807412791
0.67457543661
0.555718200151
0.499638548921
0.440867135324
0.311624903936
0.11875039774
0.00992139688676
0.000642125204049
0.000163441063241
8.9356437247e-05
6.71749417881e-05
1806.843477
508.620517488
152.778343082
49.3435771522
17.5246475284
6.94696480156
3.1226879745
1.63321157589
0.99401933035
0.719683316492
0.613642799669
0.570850795346
0.510257896299
0.373638905966
0.169024755416
0.0235689108953
0.00123010093941
0.000224162755221
0.000102903676472
7.20076664221e-05
1869.74199129
525.574368646
157.142181988
50.6936557593
18.0473932695
7.18608745731
3.25077251551
1.69456053274
1.03475366911
0.76942802113
0.68302986555
0.658115327403
0.591931194357
0.461489400889
0.236206359014
0.0517278801122
0.00279465417656
0.000340431153658
0.000122957627778
7.81106155818e-05
1933.31471536
541.271799875
161.476224301
52.1410978257
18.6084533797
7.42521929595
3.34904971524
1.73252409799
1.06955120946
0.819515899449
0.751112414984
0.728886092321
0.661261160526
0.546380791156
0.331981103676
0.102870087152
0.00772420545538
0.000589335349692
0.000154692545908
8.60890688976e-05
1977.99451237
551.631623186
164.323757213
53.2213710624
19.0589011257
7.59324323614
3.39009980849
1.74374024082
1.09224413091
0.85820711939
0.788162436477
0.760045582757
0.710405867816
0.613874387484
0.446268859852
0.181249143385
0.0222452608461
0.00115452588965
0.000207643884193
9.69306128491e-05
2017.18744782
556.442350985
165.769116875
53.973842688
19.3635528857
7.64490290092
3.35372489627
1.7158978223
1.09098906271
0.859751521186
0.772913196543
0.754526211481
0.728928704626
0.654632301395
0.512407205842
0.271894404923
0.0544089908774
0.00257297359902
0.00030289527218
0.000112380047897
2007.85647006
552.375656181
166.055930805
54.6455848853
19.5518623241
7.54585536164
3.22344838202
1.64261418102
1.04946345892
0.809586147769
0.716617166985
0.711782339959
0.711541923018
0.66126839822
0.540985922835
0.346055315926
0.105374008069
0.00665257637765
0.000491483416444
0.000135694284183
1865.85902025
534.584025557
166.094190486
55.4334046927
19.3917151369
7.18154129489
3.02824189838
1.55238244239
0.978568894117
0.733183361478
0.639315540006
0.635710094725
0.656247170302
0.63166449461
0.540569606256
0.387528000832
0.166204616346
0.0180816695006
0.000891310497311
0.000172911780154
1741.37971738
528.184520367
169.855939437
56.1512594413
18.824205159
6.97591233165
2.94564394689
1.48974865017
0.912173842892
0.659527471926
0.560275328419
0.546638501289
0.572659938942
0.570560966278
0.514240377883
0.398832786712
0.225207345176
0.0434068635421
0.00182091572164
0.000236716514448
1773.94822312
549.89952702
176.706705743
56.8935829279
19.3213435383
7.27876039493
3.05752577226
1.50335706623
0.880694248088
0.608880251899
0.49913970507
0.467423396551
0.482600930598
0.493868935767
0.471492945453
0.402263161137
0.277272792576
0.085210546219
0.00433354641742
0.000357544481814
1949.71743877
592.161238848
182.953206501
60.1785258571
21.5133769799
8.28775844798
3.43456514404
1.61954144674
0.898699798749
0.592485995311
0.465914512659
0.414462053591
0.410481283655
0.423881846935
0.427218678804
0.404503258919
0.323882882218
0.139296668348
0.0115049693897
0.000606746968284
2215.02449393
643.214813369
194.852442834
66.721755792
25.759304461
10.1176357085
4.07787506262
1.83657400894
0.967610531546
0.610801863789
0.461063380308
0.390468538439
0.367492055243
0.375582443881
0.39324798748
0.407388447844
0.352633741229
0.197428589202
0.0289729406026
0.00115159691484
2403.2237876
690.658236687
211.398049988
73.7423276189
29.5416661044
12.1509167466
4.92817157527
2.14509276165
1.08284176624
0.658923286839
0.479655309884
0.39034710189
0.350110803057
0.35077858231
0.374020314042
0.412140835169
0.376640498264
0.253081505657
0.0605878946797
0.00242916774314
2493.51287706
723.576246221
224.523807772
79.2716030907
32.3977849924
13.6369304645
5.62044291175
2.44387182513
1.21382905694
0.722813620307
0.511890816958
0.404985996447
0.351659155583
0.343411078219
0.368201421598
0.419023296154
0.399515314016
0.2934532228
0.103351839923
0.00551688643511
2557.24081818
745.769548981
233.580838397
82.9951849397
34.1200449013
14.4507054048
6.02512361186
2.64941275191
1.32092879758
0.784340969655
0.547636194065
0.425964002172
0.363506229226
0.349102632159
0.372552478225
0.430448998892
0.42375214363
0.323221386267
0.149827797757
0.0125354915959
2628.98460805
763.967586737
239.409090172
84.987194908
34.7090620018
14.5914812097
6.1346709869
2.74648949164
1.39426521992
0.837135924407
0.581856782751
0.449158752118
0.380859118261
0.362315140951
0.384659879495
0.446311396968
0.450023740084
0.354153796481
0.19569959079
0.0265978250347
2678.02538262
782.088671268
245.522226193
86.7369834879
34.7159021465
14.3124336203
6.06094884958
2.77406867846
1.44441568483
0.880859286169
0.612084955287
0.472563921397
0.401542221836
0.380147514685
0.401099891512
0.465441236031
0.479007493807
0.39070740336
0.242666590486
0.0506506972105
2684.5944928
792.57709635
251.093208624
88.4816029704
34.4138641758
13.8926904361
5.9301692453
2.7728873426
1.48092468368
0.914850993168
0.636867185705
0.495032838508
0.423998995582
0.400472221388
0.420295982804
0.48544221732
0.510841472359
0.435889739076
0.294857089295
0.0856774545232
2650.72007498
796.925771977
256.840850103
90.2911039181
33.9992337432
13.5084573006
5.79998949536
2.75889605586
1.50507742188
0.936969138198
0.655474505662
0.515637589252
0.446353880044
0.420723585125
0.438440447914
0.503040725299
0.544758937267
0.490307769771
0.355192768524
0.130056943065
2633.53852532
806.02936465
263.141405284
91.5573635056
33.490295532
13.1623994974
5.66262450711
2.73234512229
1.51274288093
0.945475669643
0.667881138748
0.53338050043
0.466428273926
0.437626183265
0.451111696026
0.515044188471
0.579120509331
0.551609538973
0.411131565718
0.180512328142
2712.448318
832.771549078
270.262782172
91.9871909935
32.8964685911
12.7815385412
5.49188169869
2.68537546768
1.49858620483
0.940962101062
0.674402157227
0.547002974243
0.481651713901
0.448290453078
0.455104266995
0.520044455117
0.611829806865
0.614852508606
0.463880565443
0.233139890497
2881.51386182
883.459645595
282.286539648
93.6196865224
32.6231876589
12.4182760838
5.3157066869
2.62410650878
1.46731018374
0.928872114268
0.676537236393
0.555399375879
0.489972849715
0.451203451459
0.451686107112
0.519429272719
0.64084960869
0.674459825188
0.51772626543
0.285503321559
3127.76013834
956.51582116
303.021960391
98.1892689689
33.067379343
12.2292908762
5.20829897628
2.57521730409
1.43798632938
0.918528522836
0.676988300939
0.558364561508
0.490186454506
0.445964995223
0.441827162583
0.517339586708
0.664727166182
0.725819643114
0.572656385768
0.337933094156
3414.65148347
1053.83581268
335.726840448
106.71983205
34.7128725268
12.471540738
5.26830672312
2.58580250771
1.43746742975
0.920324226287
0.67887134611
0.555780326174
0.482301871307
0.43289974164
0.427561636018
0.518466339512
0.68250034559
0.766818037079
0.630188895128
0.393180836261
3734.50751278
1183.26577078
379.397142161
118.23224966
37.5889867552
13.2918897798
5.57077103889
2.70466132284
1.48746424127
0.94089252437
0.6807957409
0.54416972346
0.466954894587
0.417150034546
0.41922594421
0.523691782518
0.69671026146
0.803448023092
0.69771599266
0.459123137545
4225.30342247
1359.6924133
424.10460771
130.160121865
41.5124381476
14.7699884365
6.17452029575
2.95994141955
1.59273574705
0.97002537692
0.67152412938
0.528341468356
0.457095826512
0.412872232606
0.426762226207
0.541202255827
0.714789673228
0.844699242087
0.78370568004
0.535076803084
5604.58290432
1602.94341753
476.0387252
146.961982303
47.770810675
17.1975832519
7.14602611799
3.35276266909
1.7230637765
0.98331359541
0.660617808454
0.525982115072
0.463332505189
0.432396841282
0.455631458408
0.575490327201
0.744601767895
0.897859393945
0.885699143755
0.634731184459
6526.3143651
1747.37800965
520.143899665
163.221362553
54.1825431154
19.8311645991
8.22335813693
3.74530982439
1.8085348365
0.988735756947
0.66568835088
0.542953380844
0.493430068877
0.477747863094
0.507664654416
0.626486106103
0.787522930839
0.962005761917
0.998230066297
0.77239082545
6228.91970968
1712.22519534
519.631253524
167.227903173
57.2088134296
21.4860227023
8.93087663647
3.94439722694
1.82802965047
0.992387762076
0.682943718484
0.575898977093
0.547062232041
0.543665078392
0.58025375283
0.683966460721
0.836401959987
1.03585853551
1.12265535812
0.936344242941
5821.4770217
1587.20433407
488.707397643
161.139403823
56.7924530126
21.7675508557
9.03006030262
3.89249299369
1.77295085636
0.982354988115
0.708321926663
0.622759789752
0.61592982245
0.622961518719
0.661220300626
0.735885914213
0.881166958053
1.11709521391
1.25080197017
1.10759758688
5462.11238412
1462.76991894
453.285458857
151.731127198
54.2637297896
20.8366015796
8.55819849997
3.61000325139
1.65552741609
0.968854074403
0.738213237139
0.67826295494
0.684698865836
0.702363572262
0.728142150753
0.774934978946
0.912289106677
1.19632603046
1.38427965777
1.28822617727
5164.57091474
1361.8273622
420.556970799
141.130434191
50.2482698115
19.1372358393
7.74539874441
3.23299320055
1.54024353158
0.963864941861
0.768036189529
0.72331364236
0.73703647569
0.757091907354
0.763695844342
0.798622716552
0.926401624066
1.2591325387
1.52523710126
1.46920204848
4748.60907819
1228.58918032
379.353839977
127.936302213
45.7387387578
17.3771642847
6.91273116588
2.9199109843
1.46975492451
0.963924185986
0.784986286649
0.737855251337
0.751347032719
0.765381833439
0.758651829727
0.778042582681
0.919374426838
1.279057405
1.6523123804
1.62118714788
3941.93648141
1060.16575889
342.417820307
118.882805697
43.0837746407
16.2364229511
6.43293607649
2.78316341273
1.45615837554
0.963582407845
0.772696049498
0.710988302806
0.711959947311
0.718401560309
0.70350831315
0.708920977276
0.850180859545
1.22118685325
1.71449972636
1.69080546928
2985.34076593
951.825021384
335.196673184
120.863982281
44.2424380605
16.3627063746
6.36186208523
2.77963008141
1.46222539331
0.943253281832
0.724980410845
0.640050618748
0.62120702907
0.6210688202
0.613547487009
0.615980548052
0.71978488276
1.070642903
1.64132077097
1.64633625622
2955.57987761
1074.13877654
393.469134067
140.459401445
48.7787050233
17.2979012149
6.66215976184
2.92748835423
1.5097880863
0.920535547707
0.659008414897
0.543786989149
0.502160551066
0.496692796882
0.500090799133
0.504223736073
0.563262367589
0.85500309722
1.39961370565
1.49687764305
4120.46191384
1479.03931995
493.662490716
161.91447924
54.3251985231
19.5553052676
7.72322574065
3.39978211546
1.6792651971
0.943999567552
0.612571194559
0.458562828256
0.390575392727
0.370807122274
0.374392130966
0.38147546202
0.416533681996
0.606265975305
1.05845112673
1.27866875657
6433.9866986
1992.67951065
568.777822314
177.199792143
61.1973411936
23.4195682714
9.54630950342
4.20805982679
2.01375194615
1.05387128171
0.619005162954
0.415349655383
0.317094689898
0.275775023496
0.269506834145
0.276639048826
0.301273983163
0.405100087061
0.746667164254
1.04316630362
8222.8855122
2140.96953031
618.640603709
199.399759681
72.8034026711
29.4840370141
11.8913677481
5.17003332823
2.44276481907
1.24219425769
0.687804288298
0.424918272695
0.293534492222
0.228740634665
0.207481346631
0.209606677399
0.228271173761
0.293027888692
0.525171920659
0.839648670734
8729.42938122
2209.0483913
653.285566895
220.881056023
86.5722484788
37.2007931762
14.7429524699
6.32897846289
2.97338258933
1.49425666924
0.809573429716
0.479948783516
0.311528622671
0.223342993013
0.186851787569
0.181009626013
0.194149553676
0.238812920255
0.385657584043
0.693745444521
8780.66632891
2253.64432971
687.518144492
241.369525498
98.5143782343
43.3310923135
18.048306249
7.91724864476
3.72731548265
1.85455576589
0.987738587844
0.571687572042
0.357626276777
0.245368756416
0.195121624197
0.180827308945
0.188119803118
0.220295281918
0.321897856574
0.600411436349
8359.5626459
2270.31579019
738.387501533
273.194569272
114.800266512
49.7185528776
21.6121335071
9.7931553818
4.66964346218
2.32389051485
1.22498966952
0.6938642878
0.421760866921
0.283916582642
0.221411102561
0.199208579096
0.200548737199
0.223572115978
0.299232271015
0.542102155204
6829.73542427
2148.34852266
768.790476781
305.133245869
132.95721054
57.6131911358
25.4753031249
11.7907162397
5.70122152253
2.85852708501
1.50095455135
0.832361207022
0.493285630019
0.330173495901
0.257677746192
0.228961571311
0.224640386031
0.240434950971
0.297272922431
0.502158820782
5285.0591226
1854.35373208
719.124198448
306.279338613
140.062643871
62.7007616331
28.5693107455
13.5614814282
6.68869540746
3.40679525967
1.79316470866
0.975750590522
0.567399000147
0.380744167016
0.300183071771
0.266005250228
0.256259833891
0.26538962419
0.307640219555
0.471559497705
4590.84047673
1632.61188935
645.106157376
284.032657113
134.194021529
62.8135666724
29.8728795862
14.6864529711
7.45534088485
3.88768748518
2.06366592994
1.11077028315
0.641259333716
0.434756310361
0.347725148649
0.308671846736
0.293459772317
0.29612198671
0.325562287543
0.452208958097
4523.17915027
1505.46697751
572.739395482
251.5864152
120.291318405
58.9354653984
29.3366747673
15.00406855
7.88051690365
4.22493600655
2.27392148945
1.22483085267
0.711821385341
0.491636165073
0.399970987526
0.356362899312
0.335553975389
0.331550779524
0.349601608855
0.442854019627
4615.54618217
1438.47145718
520.004489641
222.059186855
106.279966921
53.3437011613
27.5461222598
14.6177278301
7.94439217854
4.38253868699
2.39951755338
1.30694879805
0.775052195823
0.549974320738
0.456200006191
0.408643802867
0.381971772439
0.371055880725
0.378389916598
0.441218479885
4614.1475955
1389.28731888
484.345137777
198.634282512
93.1357308564
47.191175206
25.0281650697
13.7029932322
7.68850126785
4.35845257434
2.42857021087
1.34837560488
0.82603808256
0.606775837054
0.514396485093
0.464031664545
0.431660809982
0.413160810312
0.409588322514
0.44425973072
4510.53637231
1317.96317543
446.331195704
176.718662829
80.9536280492
41.0453091315
22.1546286944
12.4484937627
7.19372566779
4.17403952314
2.35924335536
1.34465120838
0.86002328604
0.657276940934
0.570146750107
0.519147953769
0.481909119414
0.455450402208
0.440129607755
0.447086779201
4611.13884869
1270.15113674
413.382557346
157.082572123
69.9418861739
35.2317024
19.2397838625
11.0713253885
6.56059977273
3.85586260624
2.20191775677
1.2993849254
0.874079455404
0.694808775181
0.615883165529
0.567009408614
0.52780819522
0.492812913158
0.459876852836
0.4459547852
5031.17550917
1294.4213035
398.813110773
142.92118047
61.0422852719
30.2918550796
16.6727789145
9.78151133084
5.86084494332
3.43551721641
1.99195029008
1.22790383136
0.868098877126
0.71153065476
0.640326793621
0.596397089395
0.55551899139
0.50689723987
0.462135347956
0.43676082584
5508.24660821
1379.89305674
403.709254421
136.214027012
55.4068902799
26.8627150379
14.7739838464
8.68369310606
5.15052134479
3.0163163752
1.7960653655
1.15606832134
0.845471881536
0.700319835561
0.630629280988
0.587337477167
0.542006772957
0.492590769647
0.445490149779
0.413587544612
5374.86164815
1389.18920453
401.032735197
132.54149631
52.4618946001
24.9159519288
13.542618978
7.85333337587
4.64042888744
2.75929256728
1.6885994375
1.11125786533
0.812879740805
0.658559992834
0.575917185975
0.527611226162
0.489244430857
0.448141541735
0.407029513008
0.374940292614
4748.40576243
1312.54985908
392.983470972
132.927479785
52.74871713
24.7158574359
13.2482793179
7.69623414765
4.62431275863
2.80563745021
1.73197136098
1.1226627614
0.786785334474
0.600730220054
0.497208265873
0.441591918913
0.40607298387
0.37560055184
0.347158171365
0.322999230424
4405.15915379
1305.67711497
415.247791775
146.687585872
58.8754503174
27.2139614858
14.5049423944
8.5170994596
5.20619635507
3.17977318316
1.94308101176
1.22061187694
0.806740119798
0.571305168109
0.436972251093
0.363156744455
0.320637557829
0.294513634582
0.276997329844
0.264371630779
4435.59736751
1388.39675867
473.203160102
173.783598473
69.7907603373
31.6074416215
16.4612826804
9.62787389939
5.97827112529
3.71930757983
2.294320873
1.42611359638
0.907484309039
0.599915210396
0.42349037093
0.323898935142
0.26573208052
0.233404663802
0.218202912669
0.213095989079
4254.2737428
1396.65359223
476.069705397
173.197282002
69.7307020164
32.0313208032
17.0335883671
10.2359582467
6.57495333644
4.2551772265
2.69827079214
1.69381015263
1.06548737064
0.683572846573
0.458166879898
0.327761755043
0.250053199743
0.205620786897
0.185303352765
0.181268252334
3430.51834784
1027.29302489
346.488397662
130.770012274
55.7882454751
27.4712532683
15.6431665031
9.95782091083
6.70048545755
4.51698375062
2.9551272751
1.8946920468
1.20187972469
0.768015949229
0.507802368028
0.353282965268
0.25969543605
0.20394234598
0.176885244847
0.170733555632
2819.04367068
792.871573119
258.874911629
97.1374508372
42.6868015393
22.2997213903
13.562672831
9.12151989259
6.38251288349
4.41857641021
2.95280245781
1.93015011548
1.2426825122
0.803450900959
0.537341799764
0.3763564075
0.276229894895
0.214465693725
0.183608072137
0.176093263373
2574.13648664
691.518343933
208.518522654
73.7595439641
32.3222434382
17.5930663543
11.2531689901
7.88113355426
5.65621080221
3.96774314314
2.70742221345
1.8049383721
1.18397011204
0.782329369172
0.537304612485
0.386337832747
0.289188541725
0.227903109293
0.197909743541
0.191579355984
2897.13391597
688.135994241
182.728671618
58.3647991833
24.4675786412
13.587946447
8.98220547444
6.44331777583
4.67830849698
3.32359346494
2.31521370335
1.57579736068
1.05950397546
0.72389547556
0.517104982674
0.385596479381
0.297161602463
0.241539618819
0.216367494414
0.213033427452
4259.31488469
835.735102939
196.892887057
56.2400806488
21.318112016
11.01673936
7.1888127619
5.13993650505
3.72789794356
2.67625843647
1.89548396878
1.32030931755
0.918693916046
0.657561055698
0.49171286127
0.380532275755
0.302478947373
0.256056702348
0.237789953926
0.237502123458
6251.63250435
1207.38798134
282.321185302
74.6884569619
23.9779253197
10.7045092634
6.2753699076
4.21880332001
2.98551640374
2.1438308079
1.5399254317
1.10432144839
0.80353679487
0.604680078779
0.470542306436
0.37419237694
0.307774519164
0.272345653563
0.260711054548
0.261684670407
7973.60475985
1697.60526425
436.599866928
119.561470847
35.329959824
13.0117789337
6.35244878131
3.7902446187
2.52645904987
1.78252592567
1.29448265069
0.959127779561
0.728396076888
0.568179486965
0.452275022785
0.367810459471
0.314891068975
0.289801394357
0.28231381581
0.281636732565
8840.35085124
2210.58835163
635.077254095
189.062171365
56.2263250775
18.23223164
7.39282104362
3.80205847371
2.32324846415
1.58496340884
1.15531448996
0.875588903759
0.681137800358
0.538801020611
0.434045095844
0.36354564415
0.323486161637
0.305656301241
0.298756287747
0.293314831912
8383.31991584
2393.57522287
749.996767282
243.633789603
77.3786976683
24.6100833445
8.94577845049
4.06469420926
2.27926968433
1.49523511986
1.0830814861
0.825590075437
0.643605045053
0.510615901139
0.418709438486
0.361474688221
0.330652963467
0.315749206069
0.304571158471
0.291888421756
7497.05285123
2306.13115425
764.454048214
262.412317238
87.8743740885
28.5882254629
10.0399762764
4.27269076012
2.27358162356
1.45267587957
1.04133926978
0.788206151029
0.611579246286
0.487717790556
0.406953760076
0.358653270564
0.331252465643
0.313218814464
0.296938136711
0.278877223609
6424.70245165
2028.51750828
688.450184548
241.343920425
82.8851907394
27.7677992808
9.90423934353
4.21574817832
2.23884291608
1.42787636539
1.0174409123
0.762445557803
0.587644987885
0.469860637838
0.395527122363
0.350157468101
0.320864858983
0.300476999169
0.280152136359
0.25671795845
5314.22752676
1658.60248967
561.409138997
196.806536583
68.3452390123
23.7226820201
8.9047368151
3.9861461861
2.19662253981
1.42264671537
1.00904459191
0.745433976799
0.568321153114
0.452542862414
0.379905398218
0.333049449473
0.303155469284
0.280140033607
0.256170317214
0.227832620829
4260.38298101
1307.8311004
439.291877606
152.945103791
53.3616029922
19.2394615099
7.75633019651
3.76094952316
2.19600535145
1.44317483265
1.00726094123
0.727258724105
0.545511659432
0.429718826153
0.356643199934
0.310358006134
0.279695031404
0.254988584838
0.228926589461
0.200533334876
3370.51968885
1058.26702673
357.014518396
122.280170649
42.3127001883
16.0009791588
7.12502443533
3.75931305742
2.2620199189
1.46877523355
0.994697004476
0.697605383119
0.512922653762
0.398351314068
0.328716323242
0.28446186705
0.253834829681
0.229238201957
0.205555876103
0.183193150086
2832.02295896
948.54027681
322.050086149
108.51050259
38.5538780643
15.5063557659
7.3485570129
3.99761274848
2.37476645719
1.48401349044
0.962933901464
0.652844976483
0.470152027563
0.364329745551
0.301028199709
0.259473193331
0.229960280388
0.207941929316
0.190207169522
0.177063306489
2905.09175048
1002.42702376
332.07867835
111.630166446
40.8033195103
17.3933236857
8.53610213265
4.55480075013
2.54720605527
1.48946194821
0.917164857162
0.603615543727
0.431708041583
0.336309310228
0.279063621432
0.240018038732
0.211963141229
0.1932103061
0.181989290889
0.177699190958
3470.67477801
1141.9382969
361.338000135
120.644679004
46.4630215371
21.3897780201
10.9393048543
5.568162047
2.81573241473
1.51705591529
0.890553412493
0.574783825705
0.410177253094
0.321620659957
0.268448750951
0.230427795228
0.202400555259
0.185096615653
0.178009613407
0.179807142162
4205.61220643
1239.59833069
389.690590131
138.74962582
57.5641156936
28.8286778792
15.7282317871
7.64051937216
3.36375009274
1.64044948881
0.913119798126
0.577747127413
0.411989280069
0.325729426832
0.273802305491
0.234291482258
0.203486827821
0.184342982823
0.177225927972
0.18087154565
4503.90961411
1194.01301076
377.172163929
145.198957335
69.8196686225
40.9128724112
25.1971780642
12.3446975713
4.43898240455
1.89813992091
0.990247025101
0.61300651929
0.438255952848
0.350541034062
0.297163153963
0.253532389998
0.216903561124
0.192441313134
0.181611479926
0.183250035887
4467.46149766
1150.99684532
361.276698384
146.866324277
79.3307320237
53.5324884426
38.2620189103
21.1130691334
6.23396590957
2.32034366406