/*--------------------------------*- C++ -*----------------------------------*\
| =========                 |                                                 |
| \\      /  F ield         | OpenFOAM: The Open Source CFD Toolbox           |
|  \\    /   O peration     | Version:  2312                                  |
|   \\  /    A nd           | Website:  www.openfoam.com                      |
|    \\/     M anipulation  |                                                 |
\*---------------------------------------------------------------------------*/
FoamFile
{
    version     2.0;
    format      ascii;
    arch        "LSB;label=32;scalar=64";
    class       volScalarField;
    location    "0.615/water";
    object      alpha.gas_0;
}
// * * * * * * * * * * * * * * * * * * * * * * * * * * * * * * * * * * * * * //

dimensions      [0 0 0 0 0 0 0];

internalField   nonuniform List<scalar> 
6000
(
0.169741582585
0.102080529453
0.0288311645105
0.00725887670766
0.00139292867375
0.000223387687946
2.93184062995e-05
2.2825803604e-06
5.1718107126e-08
4.62946130098e-10
2.34566678109e-12
9.41919038262e-15
1e-15
1e-15
1e-15
1e-15
1e-15
1e-15
1e-15
1e-15
0.61061053303
0.256087647258
0.105822168988
0.0360727551197
0.0115468334072
0.00315517321299
0.000730385188433
0.000130925151815
1.30827555113e-05
2.92639204953e-07
9.93176369949e-10
1.65901185776e-12
2.94118080986e-15
1e-15
1e-15
1e-15
1e-15
1e-15
1e-15
1e-15
0.613304089033
0.34144550424
0.167438543945
0.0712136036468
0.0275718120177
0.00935870329949
0.00267657293718
0.000609484799855
9.03789385167e-05
4.75926586444e-06
2.44062263262e-08
3.18487908243e-11
3.28505575441e-14
1.00009990788e-15
1e-15
1e-15
1e-15
1e-15
1e-15
1e-15
0.613303650933
0.42063553077
0.244775855901
0.124334089986
0.0558575498298
0.0216878160031
0.00704662889868
0.00183809132177
0.000341147159672
3.13410039179e-05
4.61442089288e-07
5.25898208971e-10
3.54420944022e-13
1.15505766594e-15
1e-15
1e-15
1e-15
1e-15
1e-15
1e-15
0.598943141306
0.467068965008
0.323512587891
0.196970923682
0.104468753234
0.0467806215719
0.0170933051305
0.00490140381726
0.0010284275889
0.000126550095423
4.58383946304e-06
8.51394764092e-09
4.18061536025e-12
2.72614688807e-15
1.00003444608e-15
1e-15
1e-15
1e-15
1e-15
1e-15
0.569269355744
0.481428371179
0.381622248952
0.272989617837
0.171430365258
0.0910270056914
0.0390385722008
0.0127662964326
0.00297245596791
0.000429046558853
2.56117535059e-05
1.55076883974e-07
7.12411217323e-11
2.46082274282e-14
1.00362550912e-15
1e-15
1e-15
1e-15
1e-15
1e-15
0.54345337389
0.482763311345
0.41641406509
0.334152712912
0.240927625967
0.150401833716
0.0775372473762
0.0306918743564
0.00845389444525
0.00142235834044
0.00011270120825
1.91012060871e-06
9.16777184867e-10
2.45886083279e-13
1.05491135145e-15
1.00057158436e-15
1.00044805699e-15
1.00036998277e-15
1.00030930484e-15
1.00020316712e-15
0.540080542564
0.487884023501
0.43546432782
0.373580959245
0.29635109473
0.210926132933
0.128920183101
0.0629539357658
0.0218641465289
0.00460670284951
0.000471563861862
1.51739819205e-05
1.95674936545e-08
3.76114510303e-12
1.74198324858e-15
1.0004077897e-15
1.00032101521e-15
1.00028271085e-15
1.00024097331e-15
1.00015996763e-15
0.544618752617
0.497492817326
0.453534706673
0.402767782514
0.338973998461
0.264045659141
0.184146354662
0.108366879787
0.0480729600194
0.0134870066925
0.00190468789422
9.90540395556e-05
8.67998763967e-07
1.34033344843e-10
1.90814058626e-14
1.00185287606e-15
1.0000212092e-15
1.00005782436e-15
1.00007645764e-15
1.00005578899e-15
0.571388868342
0.51132753587
0.471179531513
0.429359420892
0.375811989289
0.309875471858
0.23665399337
0.160447713238
0.0883028773223
0.0334293042807
0.00687442699477
0.000578918602891
1.33103216726e-05
5.99221460441e-09
9.03323676097e-13
1.1123695137e-15
1.00000165773e-15
1.00000161315e-15
1.00000166315e-15
1.00000162471e-15
0.580289505713
0.518179452305
0.486223735219
0.454612536759
0.410144052412
0.351173560343
0.283724127953
0.211730418983
0.137886372799
0.0685127339933
0.0207124922802
0.00285423132885
0.000128314551384
1.00926383146e-06
9.42371532394e-11
1.08392967672e-14
1.00039612224e-15
1.00000157026e-15
1.00000161315e-15
1.00001443632e-15
0.584180336987
0.5182643101
0.493662898967
0.470938017697
0.435919146124
0.384494832681
0.322682377816
0.256973522079
0.188957455856
0.116970369167
0.0499807069127
0.0109709143533
0.000888458673521
1.80710379179e-05
2.18199093263e-08
1.92301107092e-12
1.2351202742e-15
1.00012967256e-15
1.00034115799e-15
1.00019041305e-15
0.580744437036
0.515869162988
0.492313900102
0.470707035615
0.439162931263
0.396354754395
0.34562635059
0.290475015499
0.233592872057
0.169802570199
0.0950853086017
0.0311095964203
0.0041964378461
0.000161796719469
1.05654510106e-06
3.28415687441e-10
8.84386599527e-14
1.02328987919e-15
1.00256126405e-15
1.00120743658e-15
0.584206700518
0.508648114511
0.490131741389
0.467209096375
0.435282690625
0.393777307318
0.350929180386
0.309463380001
0.26700298564
0.216044769208
0.145407861892
0.064557517843
0.0133971256905
0.000881052372672
1.22793981805e-05
1.57731511823e-08
5.87518122638e-12
3.15089241272e-15
1.00754760792e-15
1.00443980468e-15
0.580428017969
0.497026586843
0.483517849959
0.457784999617
0.423189999425
0.383316325101
0.347149262969
0.317778313846
0.288482408179
0.248796716381
0.186698522581
0.102134342204
0.0297724837196
0.00303468157311
7.07227694234e-05
2.23709895207e-07
1.35984042812e-10
6.42531173351e-14
1.0337384891e-15
1.0088418301e-15
0.583570788854
0.4825566346
0.469217814442
0.440250392937
0.402723787787
0.365685538655
0.339100275701
0.320934032592
0.300958001122
0.268474406257
0.213873265894
0.133436394728
0.0496082512052
0.0071156442212
0.000248430813636
1.40690003102e-06
1.25387176793e-09
6.78461240483e-13
1.26833052649e-15
1.01045677434e-15
0.580244524506
0.468791358079
0.448589169611
0.417993566022
0.382253606976
0.351567801532
0.334537619578
0.323757743604
0.309044521628
0.281043158449
0.232851203971
0.158263550067
0.0693061362725
0.0129530434534
0.000636939065994
5.60805389969e-06
6.54584304855e-09
3.39171967581e-12
2.17431679547e-15
1.00992358293e-15
0.580911762207
0.459784565501
0.429463729241
0.40102915723
0.372873723957
0.349285343791
0.335854717867
0.328915566628
0.31741220868
0.293707181477
0.252893589087
0.184245048737
0.0916156705353
0.0214823367622
0.00149934735727
2.16165798213e-05
3.0728546884e-08
1.00995800208e-11
2.49646201895e-15
1.00660012857e-15
0.578724287219
0.458117034957
0.429345618143
0.402310440865
0.376252698696
0.35505105825
0.344814215886
0.339711231991
0.330376387134
0.31290061858
0.281405896795
0.220913311265
0.126069124409
0.0380655654913
0.00403246615948
0.000105469633217
4.03794238003e-07
4.96128139523e-12
1.65411187515e-15
1.00167616724e-15
0.557911835962
0.46270700207
0.445202779982
0.423762880871
0.398753719593
0.377017134816
0.364728499142
0.356781342735
0.348034569805
0.336171979828
0.315859325721
0.272888740243
0.186671249728
0.0767197861659
0.0129360070014
0.000628438992861
6.32069657533e-06
1.05710302754e-09
1.55370306986e-14
1.00509102265e-15
0.54346427215
0.491426128635
0.493701249959
0.479618585093
0.447744584339
0.413894022814
0.390406698823
0.374284918658
0.359058518505
0.342383015609
0.332837222494
0.322541084541
0.268312137001
0.152391615307
0.041276392719
0.00361922725112
7.72067678812e-05
1.6604038486e-07
7.94863695398e-13
1.24401874323e-15
0.563146547391
0.548947890427
0.55809247486
0.546263075341
0.505251469584
0.45453854957
0.415107571777
0.386434249408
0.359438982297
0.338909647602
0.331796706798
0.331661303029
0.326571285482
0.245581730413
0.103154310997
0.0160501482918
0.000680680462209
5.8625924545e-06
3.17795921655e-10
3.78422264311e-14
0.613929266148
0.597465868243
0.599613593189
0.587386058801
0.547125932848
0.488639507247
0.435433441514
0.392825913566
0.355930242039
0.327005658962
0.323094598917
0.330765470959
0.33063072489
0.301762123794
0.180496403726
0.0470637817336
0.00368243275694
6.63146526266e-05
8.21766992992e-08
1.570219232e-12
0.648051450603
0.612774256866
0.614147033324
0.603795072305
0.569173264567
0.509648780445
0.447761866428
0.39369438515
0.346536432785
0.307882208216
0.305798445405
0.32114576774
0.330496309463
0.320039333753
0.23331713823
0.0902019863719
0.0120256838554
0.000388836725797
2.10595728144e-06
5.40586672139e-11
0.647146010178
0.614977448091
0.614754259924
0.610062877748
0.578961711084
0.518216440061
0.450602470647
0.389512963013
0.330690328397
0.297212878872
0.297135103322
0.304655032031
0.323938589137
0.318674317246
0.256999666258
0.127654688322
0.025474355058
0.00133721193391
1.36088325175e-05
3.88338823002e-09
0.651289289197
0.613777893013
0.614529633484
0.611884010167
0.581225559406
0.518925748396
0.447666480639
0.375922116011
0.310292220607
0.297008451858
0.297156827113
0.296951824792
0.306448530826
0.311465814876
0.268688201628
0.154480545013
0.040378837678
0.00304075001724
4.66117249838e-05
7.52398056954e-08
0.64760092058
0.609066515415
0.614287238556
0.610278607053
0.578152676757
0.513329652354
0.434460569568
0.353374616884
0.297886951331
0.297156827113
0.296559663718
0.297156827113
0.296886903095
0.30306830482
0.278441972521
0.17730694766
0.0554909368633
0.00546700222705
0.000114215334612
3.67393366563e-07
0.652551192357
0.599925478956
0.609201284406
0.601276662485
0.564525221366
0.494957817592
0.409320565301
0.32594088536
0.297156827113
0.296591702473
0.297156827113
0.296168432454
0.297156827113
0.302704345106
0.294509852382
0.203421746774
0.0733036814522
0.00918557278332
0.000256037474654
1.26442207041e-06
0.647620487479
0.587163438391
0.597284020642
0.58341154518
0.539443673711
0.465059250104
0.37790236516
0.30398675949
0.296827195743
0.297156827113
0.295923056927
0.297156827113
0.295934917778
0.315051195692
0.322404168107
0.23787908055
0.0989347754792
0.0159282541523
0.00059688586843
3.96850027891e-06
0.652394294667
0.571350569346
0.580053003815
0.559109215658
0.506896116556
0.428758555107
0.345215085427
0.297140138888
0.297156827113
0.296103727701
0.297156827113
0.295377064463
0.297156827113
0.340445480424
0.359062138659
0.280100402277
0.135584652226
0.0279074677201
0.00141030379784
1.21617523075e-05
0.647620487479
0.552969918618
0.557014119008
0.528726489589
0.469666729339
0.391096181979
0.315741610787
0.297156827113
0.296362140701
0.297156827113
0.29534188334
0.297156827113
0.303753557328
0.359733821865
0.359268344556
0.311690763522
0.176936879439
0.0457787582575
0.00311135902072
3.51102197774e-05
0.651959579326
0.531159454102
0.524128617176
0.48881684705
0.42928853859
0.357754498811
0.299158781258
0.296709235855
0.297156827113
0.295528923033
0.297156827113
0.295230196389
0.3414624211
0.359268344556
0.359665206516
0.330456004438
0.212108202403
0.0672287968927
0.00613949146185
9.3759254882e-05
0.647146010178
0.502463206249
0.479110547152
0.439724475082
0.388581458371
0.332445780786
0.297047889641
0.297156827113
0.295842666523
0.297156827113
0.295230196389
0.305892035845
0.359268344556
0.359992254214
0.359268344556
0.341571850835
0.239790006271
0.0905994926437
0.0110537508704
0.000235443481127
0.647931135616
0.46403292317
0.434061224058
0.397024769206
0.359614463898
0.319747366871
0.297156827113
0.296235521108
0.297156827113
0.295322770707
0.297156827113
0.347275600074
0.35981092706
0.359268344556
0.35952633224
0.348638149272
0.263247127276
0.117640820699
0.0191168525499
0.000580794101567
0.636509103545
0.420541136492
0.404914769306
0.382040863125
0.353887384853
0.319094857848
0.296784048257
0.297156827113
0.295759629802
0.300373321553
0.320633128237
0.351585623214
0.359268344556
0.359524955381
0.359268344556
0.351812452735
0.287411118168
0.154396167543
0.0332398311255
0.00144062913898
0.573014232033
0.398233977342
0.397812619602
0.385305247476
0.3583247286
0.325083347283
0.308067725216
0.311383120533
0.316694669342
0.317382282534
0.32149969784
0.330098506639
0.341988617182
0.352103521749
0.356015655712
0.353413530821
0.323952509678
0.208982345927
0.0588185259365
0.00370596747958
0.4919875059
0.401710498791
0.417734216199
0.413726372599
0.37859783032
0.343646446529
0.33401554109
0.33424124721
0.323178550748
0.309096801372
0.298535508754
0.295145962178
0.308073892695
0.325368776018
0.340659485877
0.357177825513
0.367081477874
0.272444860898
0.103289014565
0.0102299077748
0.484667563976
0.474088071455
0.497152860104
0.487047340891
0.426526137376
0.376724539751
0.355112328496
0.339207134736
0.315983581752
0.289569581761
0.273461076656
0.270067386539
0.277757878373
0.291826127208
0.319324514596
0.360191603008
0.375200668363
0.326913238506
0.167832486299
0.0275995313344
0.557990856078
0.612938829434
0.606493304679
0.589977966038
0.522413053729
0.446299618706
0.388259797562
0.348430744234
0.31501172285
0.284009855266
0.264388979268
0.259969845484
0.262498847616
0.269524772825
0.297705064725
0.355371341204
0.374809623537
0.372207501613
0.235625618768
0.0625169398242
0.698674754902
0.704047458792
0.68289350209
0.673357710994
0.639276510821
0.571774847123
0.475240322664
0.394214318061
0.335737484549
0.290973758043
0.263911314091
0.257014641272
0.257519883136
0.259490314016
0.275458587771
0.337357708594
0.375112542946
0.374809623537
0.283758207851
0.11063268525
0.751444720792
0.730007145539
0.720229833378
0.717216457494
0.708625735987
0.678434520021
0.594695064084
0.484720890201
0.392469433907
0.318118862059
0.267512697146
0.256078830969
0.256055610624
0.256410715263
0.260084171477
0.307748237907
0.374352802711
0.375111759512
0.312698878347
0.158286074939
0.750438266033
0.735517346975
0.733657803861
0.732847912821
0.730783031782
0.71615187949
0.661174424997
0.557439289674
0.448751733995
0.352461614287
0.277329997633
0.255719441848
0.255562909559
0.255823611692
0.256039806091
0.280948507318
0.35978161515
0.374809623537
0.331260124639
0.198809900373
0.754569300843
0.737044158419
0.736846134099
0.736495677867
0.736061715618
0.724251892607
0.677741093812
0.583973043574
0.473860741688
0.369006359683
0.283808222276
0.255535624696
0.255324908839
0.255456289699
0.255408586598
0.26391745857
0.334596010669
0.374932857076
0.344977336809
0.23373832642
0.750675695517
0.737197007025
0.736940810363
0.736766353588
0.736408759261
0.725095777184
0.677960849544
0.585687920266
0.47594981007
0.369044049991
0.282197648943
0.255346829493
0.255017688178
0.255201727898
0.255128968784
0.256125936506
0.313260917679
0.374598669623
0.356720320274
0.265830409072
0.754356045428
0.736050851201
0.736846134099
0.736408759261
0.736189563807
0.721942122541
0.667805728616
0.573386340621
0.463179351821
0.354059237771
0.27100062657
0.254889464553
0.254939419105
0.254940198219
0.254939419105
0.255220205743
0.301981950574
0.372759063723
0.368143103613
0.295650105163
0.75074874945
0.733618125554
0.736408759261
0.736189563807
0.73526393404
0.708427214431
0.638654378757
0.53813114533
0.426372822878
0.31881219697
0.257844356444
0.254939419105
0.25459053142
0.254862224067
0.254711802095
0.254939419105
0.298155329487
0.373993190467
0.380305913245
0.321306585429
0.753776565153
0.730299953089
0.736189563807
0.735755209032
0.72600881011
0.679690029735
0.593796701804
0.487126641647
0.374295724991
0.279110737614
0.254939419105
0.254524229289
0.254862224067
0.254403319587
0.254862224067
0.254664952539
0.299221097959
0.376825007556
0.389674129861
0.34037035201
0.750438266033
0.726775313619
0.733214645484
0.727597486936
0.700837529759
0.635446546669
0.539246952459
0.428533120383
0.318779202224
0.257681094672
0.254652711543
0.254862224067
0.254175227601
0.25473030198
0.254369077766
0.254862224067
0.305209243179
0.378118524267
0.39394594408
0.35274446028
0.752635735223
0.7223674398
0.72157985111
0.704761013193
0.659157846281
0.579159584655
0.47653507797
0.364563283927
0.272721408739
0.254733216483
0.254862224067
0.254030915762
0.25473030198
0.254005632504
0.25473030198
0.257492338718
0.313270785581
0.377898157366
0.396604555208
0.363389789967
0.749764193218
0.715638916375
0.701189051128
0.668776540344
0.6048640284
0.512460349395
0.404548247976
0.299776528829
0.255069175804
0.254862224067
0.254046149657
0.25473030198
0.253681386513
0.25463499915
0.254116607056
0.263848666012
0.319142505231
0.376197242665
0.400208541567
0.379351541627
0.750878900467
0.70364245563
0.672762537945
0.620983408541
0.538819210388
0.43446728943
0.326289962199
0.259400667426
0.254862224067
0.254046342032
0.25473030198
0.253446110526
0.25463499915
0.253703599194
0.25463499915
0.270065947254
0.322192820599
0.373600496293
0.403127559527
0.401847840722
0.749249820356
0.680336385612
0.627989263832
0.554820731248
0.457104640469
0.347829061371
0.266400450873
0.254862224067
0.253979531508
0.25473030198
0.253190444531
0.25463499915
0.25325696602
0.25463499915
0.253940690099
0.27490105823
0.321494498927
0.370455230903
0.40538197972
0.405819378742
0.750208088547
0.63429569781
0.554842238404
0.461922469286
0.359491868771
0.273953559936
0.254862224067
0.253973163
0.25473030198
0.252916229656
0.25463499915
0.252789978464
0.25463499915
0.253486844186
0.25463499915
0.275421762942
0.314305602044
0.364330413912
0.405549171057
0.405543316953
0.748345731202
0.558890847519
0.455731544312
0.35225974902
0.275220111934
0.254862224067
0.254022050818
0.25473030198
0.252660926895
0.25463499915
0.252323577308
0.25463499915
0.253031033595
0.25463499915
0.253972228207
0.27163627491
0.298130857061
0.352906761619
0.405170894398
0.40607575242
0.746862329466
0.458081824396
0.350016514383
0.27000701027
0.254862224067
0.254032993373
0.25473030198
0.252439458874
0.25463499915
0.251944578635
0.25463499915
0.252576831978
0.25463499915
0.253582775405
0.25479541835
0.261314855002
0.277008788303
0.335030127522
0.4012836704
0.405543316953
0.68175152823
0.355030102741
0.287404372542
0.254862224067
0.25399523363
0.25473030198
0.252310032499
0.25463499915
0.25191515932
0.25463499915
0.252183121019
0.25463499915
0.253308180895
0.25463499915
0.254440501994
0.251052527759
0.257666217235
0.309059355581
0.386081893875
0.406005093208
0.549774960522
0.322975862546
0.288268676271
0.260446375644
0.254862224067
0.252674695293
0.25473030198
0.25191515932
0.25463499915
0.251972018983
0.25463499915
0.253605310384
0.258242557611
0.25723521533
0.252168371523
0.244294228662
0.243192910726
0.276370547846
0.358078398916
0.405543316953
0.48050628248
0.374206967018
0.358329054219
0.328352755337
0.284903617541
0.262929001616
0.253019051433
0.25473030198
0.252649850777
0.256750202186
0.261422292792
0.265188896576
0.260314106095
0.255764330775
0.248565713276
0.240944609327
0.236570620413
0.247152488407
0.318881751203
0.400493445136
0.537101931015
0.553381760189
0.547432065144
0.516109518533
0.448602727773
0.394175515746
0.359696543259
0.32819421706
0.303990948368
0.287510926068
0.276784615923
0.265218363698
0.255973110625
0.250655598063
0.246343195359
0.240197238347
0.235218869304
0.235196643981
0.272785699294
0.374387618121
0.693025224992
0.717956600095
0.710515140615
0.699188740915
0.669646069184
0.634959143309
0.59840031172
0.542235256818
0.460130248577
0.368951629371
0.305917224058
0.269995739459
0.252777695911
0.246004216416
0.244368908144
0.240435981223
0.235133737784
0.233628127879
0.241116082814
0.329727596244
0.772043423021
0.763695420485
0.766381285193
0.766629711026
0.764620534395
0.757550902434
0.744530659052
0.712749090916
0.646599399511
0.5174966441
0.388762953249
0.302562636072
0.256981453361
0.242411365219
0.241731579105
0.24073318993
0.235641911021
0.233384328824
0.23346895559
0.283886277469
0.770314834721
0.770273488306
0.769962219755
0.771139752847
0.769605788105
0.77058082963
0.769315630726
0.763573602423
0.728952283549
0.630715704182
0.489633412426
0.364274776025
0.275234090567
0.240241071216
0.238395534195
0.240301034565
0.236757723968
0.233293111709
0.233060710572
0.250196264849
0.773735862101
0.770281144165
0.771371933334
0.769962219755
0.771493000743
0.769597970609
0.770602791336
0.769315630726
0.746796228611
0.672089536704
0.545626234793
0.412655367563
0.299266941607
0.240410567499
0.235486281256
0.238314592776
0.237151006208
0.233434098694
0.233005653478
0.234986923754
0.770573216376
0.770592815571
0.770157256544
0.771400252666
0.769962219755
0.771371928583
0.769489930921
0.7699992064
0.750309677539
0.68194756603
0.564601874258
0.43194813736
0.311023290286
0.241238950712
0.234106850271
0.235706048405
0.23674385706
0.233705120446
0.23292361306
0.232794946697
0.773438585084
0.770401783069
0.771144437582
0.769962219755
0.771332445953
0.769670728565
0.770913349835
0.769489930921
0.750359713706
0.681843199711
0.566279097473
0.433721380636
0.310728190291
0.240072469118
0.233908868142
0.23420519438
0.235530855184
0.233863867394
0.232769788146
0.232718056706
0.770401783069
0.770502364832
0.770162855988
0.77104861301
0.769670728565
0.771097578975
0.769602599826
0.769724207821
0.746646608088
0.67326353059
0.556850550239
0.423439750523
0.299182545725
0.236473386047
0.233877880766
0.233781514039
0.234460557514
0.233966190954
0.232718056706
0.232662646894
0.772255000589
0.767970971406
0.770125795629
0.769670728565
0.770796892219
0.769602599826
0.770009887973
0.769158204161
0.734967665296
0.650789317065
0.530433767394
0.396131573464
0.27626765346
0.233939783853
0.233739356725
0.233770247223
0.23369249945
0.233964372015
0.232662646894
0.232577149178
0.770162855988
0.757314339153
0.767217575065
0.770049805485
0.769602599826
0.770004747331
0.769158204161
0.76394254506
0.71275446877
0.617265810164
0.493183359274
0.359585752503
0.253336241452
0.23374614315
0.233770247223
0.233505726082
0.233663829634
0.233587866182
0.232789172228
0.232479611005
0.77079040289
0.731554862137
0.752486040157
0.767951894228
0.769582164356
0.769158204161
0.768987513964
0.745444008058
0.678512783261
0.575246718057
0.449466445272
0.319133252268
0.23840366751
0.233841331663
0.233454402405
0.233708539412
0.233465434263
0.233588426265
0.23349931907
0.232403384717
0.769670728565
0.685013702849
0.724917427249
0.753671829638
0.764186776122
0.764170370635
0.754125537547
0.709682349763
0.630507265814
0.5237019974
0.39832415416
0.277623286674
0.233971600722
0.233675469083
0.233841331663
0.233364407543
0.233708539412
0.236332331613
0.23629786223
0.229767751653
0.753232774927
0.634795747779
0.687377113562
0.721881166482
0.739411090593
0.736143309063
0.710499820726
0.651797398166
0.566939017669
0.459633303314
0.337997132151
0.244786013109
0.233855610114
0.233971600722
0.233355354531
0.233841331663
0.233900414412
0.248562681084
0.240870789774
0.219187650211
0.707495120814
0.599542523216
0.645056618401
0.67924220133
0.692512931659
0.677983949411
0.636046923092
0.570657821894
0.485611303985
0.381147273961
0.274603386149
0.234120156831
0.234081678007
0.233355354531
0.233971600722
0.233308447528
0.248136574615
0.266573232161
0.241458382851
0.209680281181
0.654520115411
0.582413130241
0.614356304241
0.645527964139
0.644142242002
0.605774130414
0.544092195756
0.473307787411
0.390094230562
0.297168417858
0.23743126351
0.234182451952
0.233453684594
0.234081678007
0.233335454765
0.239544602022
0.287173950191
0.282558225438
0.235870031169
0.20752366442
0.611902158242
0.582446014063
0.610622252489
0.639016271999
0.623363839251
0.557837038795
0.470155371033
0.388522232834
0.308992161489
0.244022120763
0.23428327759
0.233613493357
0.234182451952
0.233394471915
0.241042348006
0.302395758156
0.331141303192
0.29179155473
0.232434358928
0.207660000931
0.605727113985
0.596004304706
0.627190476096
0.647790630445
0.628302536371
0.558071900125
0.458932639504
0.365706500271
0.287715808
0.237072306254
0.233950992207
0.23428327759
0.233483789767
0.271375694116
0.357630463564
0.410851326902
0.373743458083
0.299938070081
0.237418309729
0.209673286688
0.644855987692
0.660799382269
0.673568014701
0.676774991535
0.655344608438
0.589841934825
0.486242680028
0.382777000431
0.299422538688
0.249902290177
0.24373262894
0.256157452017
0.326095752826
0.460452805165
0.53772746891
0.514433546437
0.425540633892
0.329314905649
0.259684770184
0.217486173271
0.727155192568
0.73327041894
0.725159050923
0.718563783797
0.702837471748
0.660455133389
0.573378447233
0.459128736407
0.36134764762
0.313906644852
0.317918519192
0.378152724639
0.515438713602
0.608005533702
0.622782204177
0.583607806279
0.490766864124
0.385616791933
0.297965807271
0.232949670757
0.778171913027
0.760519629894
0.751294871672
0.748359955022
0.742509703422
0.722149389537
0.666330346233
0.565387422978
0.461559775405
0.412276774858
0.422260600403
0.4862507244
0.584308143189
0.625390669872
0.625321846587
0.60227761874
0.528115198943
0.425614777223
0.324936655006
0.244931050035
0.782549487794
0.76270231192
0.759000508847
0.758852481142
0.758350047292
0.747631851003
0.707919962443
0.622403376167
0.519070442124
0.454510664393
0.454726198441
0.495256814719
0.577873344222
0.620167568885
0.62252423853
0.598816621285
0.528821652627
0.429525637027
0.327560453905
0.245536734992
0.781662214525
0.761826154785
0.760160295869
0.759953187882
0.759746656196
0.752311118593
0.71502182966
0.632147197228
0.527498578614
0.455488817629
0.449271025393
0.478627518057
0.54320221825
0.590734337418
0.595454573406
0.574365493658
0.512062909506
0.417775910409
0.31795666554
0.23850882095
0.783223113507
0.755808683202
0.757974152943
0.759746656196
0.759539939693
0.751914685696
0.713279299606
0.629828008653
0.524362565601
0.443492701257
0.416596006846
0.427596236129
0.469809924198
0.520622284607
0.531013133747
0.514884212756
0.461867673818
0.376455679607
0.286457424107
0.221871451279
0.781972052376
0.738483354788
0.748259516047
0.755078425325
0.755896319181
0.745000352861
0.701288873201
0.615193719506
0.507077182862
0.409982480359
0.352308947944
0.347117369658
0.37110190896
0.420032421118
0.437732859401
0.425843791692
0.381846581966
0.310593738995
0.245853523354
0.211929143403
0.783059841204
0.702326135885
0.728041023911
0.736966911747
0.737476959631
0.720102383823
0.667898231867
0.578761367722
0.469336588031
0.36149148674
0.282018483951
0.264631929894
0.278462957468
0.317432465308
0.338258913673
0.330017227324
0.298187721456
0.253286911694
0.225069273841
0.212063884403
0.781943610185
0.65993911572
0.695081164152
0.698321717709
0.694100154076
0.666756821608
0.606818264577
0.518083544738
0.412329346798
0.305756100342
0.236766533801
0.227387907338
0.230660886697
0.245810724011
0.260502312259
0.258345507652
0.24593669524
0.23127073146
0.222580590363
0.213707235316
0.781943072018
0.620360002973
0.649964135728
0.641711265426
0.625089931552
0.58540726147
0.52086485079
0.436078362492
0.338750140665
0.251616185237
0.225555867114
0.225484386087
0.225298569312
0.225380533017
0.227722076447
0.230209485938
0.230425091229
0.228266325075
0.222574641418
0.213114307387
0.767465691687
0.580340103645
0.597178139338
0.576483578462
0.541706790578
0.487907871616
0.419606197447
0.340065373919
0.261659346181
0.226270949886
0.225484386087
0.225177234815
0.225350282654
0.22508910334
0.225236243996
0.225217823639
0.228133295596
0.22705404893
0.220760547289
0.209667642271
0.721247649639
0.533218233069
0.54332892184
0.514985645608
0.461652877228
0.391915072421
0.319479666721
0.254399131769
0.226227157281
0.225484386087
0.225157939859
0.225350282654
0.225024177122
0.225236243996
0.225059923883
0.225104048786
0.226649293861
0.223612433052
0.214706925403
0.207209914055
0.651829145859
0.501434457456
0.503941451412
0.472893027284
0.401992332966
0.320152907762
0.254956207974
0.22575859824
0.225605203899
0.225157939859
0.225484386087
0.225014501125
0.225350282654
0.226132276051
0.226581498586
0.225098943838
0.222180401488
0.216050765984
0.209422088467
0.207195027309
0.581807467497
0.501488496465
0.504104686049
0.468646055195
0.384316150384
0.301191848149
0.24614185126
0.225726447483
0.225248091199
0.225605203899
0.226378365971
0.231734941299
0.235275943588
0.235016503211
0.226729400531
0.220632431224
0.215121728842
0.211171195034
0.209769235276
0.210957224187
0.571189274271
0.538743584439
0.543890680148
0.493176558346
0.403204751183
0.321073382128
0.268740425684
0.246728482709
0.243552153552
0.247342478877
0.255472490511
0.259312218446
0.252859294062
0.236264827921
0.221907787067
0.214168052592
0.211294998084
0.211199165401
0.213541803947
0.225226816955
0.633118408281
0.659132949831
0.636677086462
0.583148872877
0.506713343844
0.437371419742
0.387972077787
0.354228903467
0.333407947816
0.324798260582
0.316927119521
0.297741775616
0.267204849648
0.236719935435
0.217869002346
0.211322316531
0.210300768942
0.212208181303
0.223332502204
0.25312064435
0.751027041451
0.758333886009
0.730902875619
0.703066008839
0.670104526772
0.630385120541
0.593266400075
0.550683257547
0.499008855444
0.449577371265
0.402315136395
0.349492383798
0.292422882986
0.243871956071
0.21802466137
0.210254755992
0.209860898369
0.21424836596
0.237607852727
0.284115313569
0.808227718675
0.783154364794
0.768095591557
0.765998791959
0.761492867817
0.743361616343
0.718520871235
0.68468406187
0.631371024342
0.560306875443
0.485582278577
0.411178341548
0.335449307255
0.265120961504
0.220610141656
0.209198963413
0.209326030707
0.216183294118
0.250222319288
0.303795076734
0.809791503977
0.781179918854
0.774084544681
0.774037710633
0.774241475974
0.771675833685
0.749671442226
0.717048613739
0.670294494151
0.603996883918
0.527685825643
0.448785162841
0.367622906038
0.286300975198
0.224232814346
0.207874606081
0.208410605736
0.216632644757
0.257478221079
0.313492858351
0.808320789432
0.76855841669
0.770799112314
0.774161872271
0.773983319266
0.774179726737
0.753003307685
0.717933074224
0.670492383435
0.606083826737
0.531853130073
0.453221395004
0.371160850674
0.288248357875
0.223649008855
0.207209914055
0.20733442932
0.215825092208
0.261184941688
0.317683291535
0.809594207496
0.741784052364
0.75721316617
0.773229937817
0.77416609109
0.773918390674
0.749398913094
0.706613834638
0.651835148191
0.588021581539
0.516530153995
0.43881308461
0.356143597205
0.273816891516
0.215166121272
0.20715708789
0.207209914055
0.214100174555
0.264964128827
0.320190275522
0.808320789432
0.702256690535
0.734657090309
0.762074943933
0.770936299909
0.765923088342
0.731573594319
0.671438243989
0.601577429534
0.53252766094
0.460999084124
0.383231695724
0.30189513768
0.232403151618