/*--------------------------------*- C++ -*----------------------------------*\
| =========                 |                                                 |
| \\      /  F ield         | OpenFOAM: The Open Source CFD Toolbox           |
|  \\    /   O peration     | Version:  2312                                  |
|   \\  /    A nd           | Website:  www.openfoam.com                      |
|    \\/     M anipulation  |                                                 |
\*---------------------------------------------------------------------------*/
FoamFile
{
    version     2.0;
    format      ascii;
    arch        "LSB;label=32;scalar=64";
    class       volScalarField;
    location    "0.13/water";
    object      T.gas;
}
// * * * * * * * * * * * * * * * * * * * * * * * * * * * * * * * * * * * * * //

dimensions      [0 0 0 1 0 0 0];

internalField   nonuniform List<scalar> 
1496
(
389.960526214
336.933790629
316.99137231
306.876840733
302.123623637
300.835400583
300.458324849
300.318469201
300.248005385
300.195836357
300.150190393
300.110396569
300.077903793
300.052499457
300.03360309
300.020220921
300.010431261
300.003486263
300.000456075
300.000047721
390.255630361
335.819121835
315.428476209
306.90041002
301.748602882
300.644550666
300.375392716
300.28067084
300.226850491
300.18374658
300.145565965
300.111146633
300.080080528
300.055289591
300.036854216
300.023063059
300.012257545
300.004139171
300.000612884
300.000072176
390.377064239
335.667756452
314.669126975
306.916060403
302.066507335
300.646245943
300.368326837
300.272204903
300.220926092
300.180204678
300.14418447
300.111730375
300.081039269
300.057173255
300.03920278
300.025087166
300.013230187
300.004235544
300.000689483
300.000084185
390.668408922
335.910073172
314.392139651
306.872509465
302.660028906
301.03453889
300.590439442
300.308839782
300.231196307
300.184932614
300.147349148
300.11418428
300.08283582
300.059301686
300.041204329
300.026343484
300.013574847
300.003954107
300.000663285
300.000084263
391.105839336
335.90106518
314.100016226
306.682113246
303.086291853
301.434347402
300.826709943
300.540609582
300.300687131
300.205840323
300.157241172
300.119852377
300.086758102
300.062325548
300.043270632
300.02742986
300.013957002
300.003729111
300.000642953
300.000083278
391.579366814
335.972166703
313.960075035
306.45065527
303.333679764
301.773884676
301.072176132
300.715180819
300.477820622
300.290873594
300.190108578
300.133426641
300.095236921
300.067503047
300.046316742
300.029322409
300.015164855
300.004047197
300.000725152
300.000100328
392.722598178
336.443391618
314.041787915
306.223552364
303.433908811
302.000589856
301.272199204
300.870440233
300.617068947
300.42342191
300.263473747
300.167486554
300.111212328
300.075830702
300.051080507
300.0324779
300.017382694
300.005175538
300.001013647
300.000150918
398.832080278
338.637185301
314.582096757
306.09784486
303.438581647
302.121652625
301.404297809
300.985417316
300.713705054
300.516815874
300.356623946
300.221037841
300.137619353
300.088172365
300.057592292
300.03664105
300.020359466
300.006962072
300.001530253
300.000254979
407.50059615
341.573661294
315.313315282
306.070849203
303.421097037
302.168394704
301.47493203
301.051846441
300.772786403
300.569244061
300.409910898
300.27917468
300.170279792
300.104243532
300.06575738
300.041410132
300.023674899
300.009093121
300.00227476
300.000419663
412.375397105
342.645730049
315.434917005
305.993265189
303.441817809
302.18930495
301.493639213
301.072681566
300.791053801
300.587842741
300.429530939
300.301023897
300.195155133
300.118999549
300.073778802
300.046281475
300.027001081
300.011310279
300.003150056
300.000644996
414.213055702
342.927150581
315.341019321
305.853520385
303.225681453
302.066677343
301.427802606
301.033369176
300.769264673
300.575753752
300.42643822
300.305773697
300.207372297
300.129149987
300.080125233
300.050677184
300.029914203
300.013358318
300.004063006
300.000902268
414.930767503
342.712945389
315.011628613
305.604696244
302.937045735
301.884208118
301.310215674
300.957752908
300.717247874
300.541761704
300.404629082
300.294388512
300.203828624
300.131846211
300.083496822
300.053656205
300.032125812
300.015056388
300.004896628
300.001170313
415.31275996
342.299975569
314.582319302
305.319138585
302.628752982
301.68222097
301.179124899
300.866532342
300.653865013
300.496340401
300.374147911
300.275205208
300.194314867
300.129610331
300.084118703
300.055041027
300.033518429
300.016261517
300.005541048
300.001395124
415.45099027
341.69133839
314.052961002
305.007937945
302.342894745
301.507495111
301.058958468
300.780292547
300.589304122
300.449496522
300.340330204
300.252742202
300.181107603
300.123655485
300.082591671
300.055037958
300.033985253
300.016820892
300.005909175
300.001547634
415.583466968
340.554915241
313.244478636
304.60894304
302.060836046
301.301200053
300.931742553
300.692816486
300.526274313
300.402420579
300.306495943
300.228991223
300.166207364
300.115923602
300.079608574
300.053919298
300.03349139
300.016642093
300.005926663
300.001573858
415.233639887
339.464367685
312.492217814
304.216515611
301.801411692
301.100502017
300.807099762
300.60975104
300.465948235
300.358092174
300.273769488
300.205793847
300.150936571
300.107741155
300.075626578
300.051796406
300.03203988
300.015661683
300.005555519
300.001472345
414.667844077
338.272594144
311.749984192
303.855416456
301.579010301
300.92295044
300.681370442
300.527888849
300.408761339
300.316100667
300.243401189
300.184059492
300.136324325
300.099403935
300.070778173
300.048624337
300.029547065
300.01385468
300.004792748
300.001234048
413.466220983
336.625068148
310.90754906
303.510545779
301.394560804
300.783077834
300.571921404
300.451431756
300.355586524
300.278139343
300.216379152
300.165504112
300.12397062
300.091089254
300.065212308
300.044231484
300.025951364
300.011418705
300.003765225
300.000926599
410.583517196
334.137589247
309.913443691
303.16704235
301.242982285
300.679582944
300.486592644
300.385011955
300.307129967
300.243762687
300.192420558
300.149161786
300.112195282
300.082569545
300.05888749
300.038613081
300.021333236
300.0087588
300.002714057
300.000609464
403.68767566
330.435545693
308.715920808
302.807046479
301.11129829
300.603335346
300.424789669
300.332748292
300.265989774
300.21293351
300.169637729
300.132649966
300.100312094
300.073653839
300.051499507
300.032351444
300.016563874
300.006443689
300.001811356
300.000360214
392.690873277
326.880957325
307.841837394
302.523392812
300.992886811
300.540170622
300.381924676
300.295265168
300.234100392
300.187280366
300.149562521
300.117312768
300.088900924
300.064611119
300.043840301
300.026122673
300.012923621
300.004765576
300.001213584
300.000201021
381.515102733
325.094982989
307.537457314
302.39016349
300.870680641
300.494500677
300.357815675
300.274548537
300.214725893
300.170234402
300.135108467
300.105311559
300.079206106
300.056721689
300.037627745
300.022044869
300.010823863
300.003913311
300.000924396
300.00013535
376.737199333
327.688344358
309.13448151
302.643066356
300.85752473
300.495800895
300.360540681
300.274052786
300.211428249
300.165274508
300.129457125
300.09987139
300.074585348
300.052969198
300.034903736
300.020732609
300.010545139
300.004016006
300.000988399
300.000151431
388.495237079
338.289221412
313.353360775
303.710941567
301.190258924
300.618709191
300.420661275
300.309933056
300.234223609
300.179171482
300.137214063
300.104289655
300.077633321
300.055438149
300.036993776
300.022561933
300.012038352
300.005061556
300.001442335
300.000264654
446.244209696
360.730543525
321.217606411
306.799554097
302.44769919
301.106008527
300.627641832
300.424234306
300.310095157
300.231285957
300.171028426
300.124911057
300.090776921
300.06492385
300.044208663
300.027614599
300.015281721
300.006940187
300.002270365
300.000489493
526.686207908
378.786008269
328.126242658
310.093005365
303.973048474
301.820240319
300.98916456
300.629490847
300.446989973
300.332679827
300.24371896
300.172290039
300.119401431
300.082709001
300.056529225
300.036548301
300.020959476
300.009993092
300.003579816
300.00087328
554.170205701
389.169199017
332.783659525
312.573659551
305.239926648
302.464781776
301.336577458
300.834324177
300.581839339
300.431924736
300.325684588
300.241841659
300.168020512
300.111534069
300.074362307
300.048782275
300.02955011
300.01497704
300.005720619
300.001512403
562.716945657
394.104518882
335.550560679
314.319850548
306.241596585
303.005137687
301.631323881
301.005602187
300.690729612
300.509390775
300.387124936
300.293394719
300.216209788
300.151391326
300.097843922
300.064094742
300.04016734
300.022046427
300.009211088
300.002617608
566.599179043
395.889911861
336.668602645
315.245775147
306.905379392
303.401510706
301.854060486
301.131321769
300.76677554
300.560641866
300.426869013
300.327710062
300.247605874
300.180944081
300.127198466
300.08159331
300.051994679
300.030277982
300.013965044
300.004430135
568.764951216
395.532529245
336.216523899
315.148258663
307.04181533
303.570473361
301.970719873
301.20146301
300.807429259
300.586473898
300.446269541
300.345337732
300.265066398
300.198235468
300.142859446
300.097117413
300.063709324
300.038647696
300.019436659
300.00705749
570.554926468
393.591523493
334.298119243
313.993154107
306.523610829
303.418285189
301.945028281
301.20312253
300.811580679
300.588728535
300.448446294
300.348950986
300.270896907
300.205753613
300.150969172
300.106336189
300.072024028
300.045688833
300.024473769
300.009789033
570.982262946
389.63489402
330.69796924
311.84296177
305.427276764
302.939934599
301.763027365
301.133603985
300.77991724
300.570846645
300.436804025
300.341964335
300.267899401
300.206044009
300.153311932
300.110320758
300.0764739
300.050038104
300.02802426
300.011891961
568.756504003
381.519743898
324.945741754
308.905204996
304.02568788
302.271928322
301.464804065
301.003114621
300.717844246
300.535867435
300.414288534
300.326624224
300.257987855
300.200431569
300.150920838
300.110201149
300.077669246
300.051748619
300.029723254
300.013007783
555.998392713
365.416627487
317.345551251
305.763952661
302.659770397
301.608828895
301.130689107
300.837880457
300.633215076
300.487612953
300.382933002
300.304631499
300.242346363
300.189732577
300.144301755
300.106738118
300.076124394
300.051201905
300.02963683
300.013075873
504.952218104
346.883809251
311.376597563
303.412620326
301.605557957
301.070413975
300.830353636
300.668329184
300.537478394
300.430389656
300.34519858
300.277480994
300.222122006
300.174798712
300.134129394
300.100567633
300.072246404
300.048705718
300.027952373
300.012182398
448.005511559
336.916304811
308.524746767
302.303262544
301.064896269
300.75742014
300.624298769
300.529914241
300.446313964
300.370868625
300.304849727
300.247861474
300.199734936
300.15855304
300.122997586
300.092405395
300.066465883
300.044450617
300.02487553
300.010506064
417.978269663
342.192404204
312.79396598
302.761640584
300.90075298
300.607558537
300.509303831
300.440130861
300.376906006
300.318922048
300.266782462
300.219755657
300.178463821
300.142141455
300.110247884
300.082592502
300.058891477
300.038145939
300.020628427
300.008270839
300
300
300
300
300
300
300
300
300
300
300
300
300
300
300
300
300.000005832
300.000000088
300
300
300
300
300
300
300
300
300
300
300
300
300
300
300
300
300
300
300.000008579
300.000000974
300
300
300
300
300
300
300
300
300
300
300
300
300
300
300
300
300
300
300.00000915
300.000001602
300
300
300
300
300
300
300
300
300
300
300
300
300
300
300
300
300
300
300.000008775
300.000001852
300
300
300
300
300
300
300
300
300
300
300
300
300
300
300
300
300
300
300.000009371
300.00000209
300.000000253
300
300
300
300
300
300
300
300
300
300
300
300
300
300
300
300
300
300.00001264
300.000002727
300.000000687
300
300
300
300
300
300
300
300
300
300
300
300
300
300
300
300
300
300.000021236
300.000004208
300.000001236
300
300
300
300
300
300
300
300
300
300
300
300
300
300
300
300
300
300.000038414
300.00000719
300.000002014
300
300
300
300
300
300
300
300
300
300
300
300
300
300
300
300
300
300.000068212
300.000012478
300.000003218
300.000000121
300
300
300
300
300
300
300
300
300
300
300
300
300
300
300
300
300.000111988
300.00002071
300.000005028
300.000000581
300
300
300
300
300
300
300
300
300
300
300
300
300
300
300
300
300.000168622
300.000031807
300.00000749
300.000001227
300
300
300
300
300
300
300
300
300
300
300
300
300
300
300
300
300.000230197
300.000044646
300.000010424
300.000002002
300
300
300
300
300
300
300
300
300
300
300
300
300
300
300
300
300.00028819
300.000056884
300.00001338
300.000002803
300
300
300
300
300
300
300
300
300
300
300
300
300
300
300
300
300.000326736
300.000065281
300.000015656
300.00000344
300
300
300
300
300
300
300
300
300
300
300
300
300
300
300
300
300.000336552
300.000066815
300.000016641
300.000003748
300
300
300
300
300
300
300
300
300
300
300
300
300
300
300
300
300.000308186
300.000060343
300.000016164
300.000003675
300
300
300
300
300
300
300
300
300
300
300
300
300
300
300
300
300.000248113
300.00004752
300.000014579
300.000003255
300
300
300
300
300
300
300
300
300
300
300
300
300
300
300
300
300.000168798
300.000032652
300.000012551
300.000002598
300
300
300
300
300
300
300
300
300
300
300
300
300
300
300
300
300.000094036
300.000020269
300.000010603
300.00000184
300
300
300
300
300
300
300
300
300
300
300
300
300
300
300
300
300.000039307
300.000012505
300.000008787
300.000001076
300
300
300
300
300
300
300
300
300
300
300
300
300
300
300
300
300.000011498
300.000008593
300.000006897
300.000000418
300
300
300
300
300
300
300
300
300
300
300
300
300
300
300
300
300.00000643
300.000007144
300.000004898
300.00000006
300
300
300
300
300
300
300
300
300
300
300
300
300
300
300
300
300.000018394
300.000007468
300.000003188
300
300
300
300
300
300
300
300
300
300
300
300
300
300
300
300
300
300.00004516
300.000009306
300.000002209
300
300
300
300
300
300
300
300
300
300
300
300
300
300
300
300
300
300.000089776
300.000013043
300.000002027
300
300
300
300
300
300
300
300
300
300
300
300
300
300
300
300
300
300.000161799
300.000021798
300.000002603
300
300
300
300
300
300
300
300
300
300
300
300
300
300
300
300
300
300.000282828
300.000040648
300.000004474
300
300
300
300
300
300
300
300
300
300
300
300
300
300
300
300
300
300.00051072
300.00008249
300.000009544
300.000000547
300
300
300
300
300
300
300
300
300
300
300
300
300
300
300
300
300.000978774
300.000174491
300.000023291
300.000002551
300
300
300
300
300
300
300
300
300
300
300
300
300
300
300
300
300.001795507
300.000347864
300.000052804
300.000006904
300.000000035
300
300
300
300
300
300
300
300
300
300
300
300
300
300
300
300.002780035
300.000589801
300.000098073
300.000014117
300.00000101
300
300
300
300
300
300
300
300
300
300
300
300
300
300
300
300.003627845
300.00082283
300.000145758
300.000022619
300.000002394
300
300
300
300
300
300
300
300
300
300
300
300
300
300
300
300.004116745
300.000964958
300.000176288
300.000029126
300.000003555
300
300
300
300
300
300
300
300
300
300
300
300
300
300
300
300.004174951
300.000972648
300.000176666
300.000030942
300.000003909
300
300
300
300
300
300
300
300
300
300
300
300
300
300
300
300.003824349
300.000852754
300.000152869
300.000028073
300.000003141
300
300
300
300
300
300
300
300
300
300
300
300
300
300
300
300.003170249
300.000651416
300.000120021
300.000021995
300.000001393
300
300
300
300
300
300
300
300
300
300
300
300
300
300
300
300.002229854
300.000455379
300.000089511
300.000015696
300.000000045
300
300
300
300
300
300
300
300
300
300
300
300
300
300
300
)
;

boundaryField
{
    emptyPatch
    {
        type            empty;
    }
    minY
    {
        type            fixedValue;
        value           nonuniform List<scalar> 0();
    }
    maxY
    {
        type            inletOutlet;
        inletValue      uniform 373;
        value           nonuniform List<scalar> 
40
(
417.978250373
342.192403389
312.793966044
302.761640568
300.9007529
300.607558467
300.509303776
300.44013082
300.376905979
300.318922031
300.266782449
300.219755647
300.178463811
300.142141445
300.11024787
300.082592482
300.058891446
300.038145902
300.020628399
300.008270825
300.002229849
300.000455378
300.000089511
300.000015696
300.000000045
300
300
300
300
300
300
300
300
300
300
300
300
300
300
300
)
;
    }
    maxX
    {
        type            fixedValue;
        value           uniform 300;
    }
    water_to_heater
    {
        type            copiedFixedValue;
        sourceFieldName T.liquid;
        value           nonuniform List<scalar> 
59
(
796.983484208
796.98557361
796.985565698
796.987937107
796.987935212
796.991217328
796.991240764
796.99490269
796.994933556
796.998107564
796.997901731
796.998894941
796.996860146
797.002380779
797.002810938
797.011855148
797.012372121
797.026699953
797.026895584
797.050793427
797.050760616
797.083798849
797.083895048
797.123570673
797.123464935
797.162649292
797.162549324
797.205561057
797.204887879
797.249811654
797.248248192
797.302886887
797.304077347
797.365179817
797.372794461
797.44721992
797.440674349
797.506986697
797.518195696
797.573284176
797.707609771
797.739990678
797.7578577
797.786062238
797.7901362
797.810747386
797.809640469
797.823934086
797.826338797
797.826712142
797.825395204
797.798833001
797.791580707
797.723686119
797.663749699
797.546135104
797.456348995
797.380150768
797.36426747
)
;
    }
    procBoundary0to1
    {
        type            processor;
        value           nonuniform List<scalar> 
41
(
388.966827746
338.347151495
319.004121073
308.891613636
303.402653613
301.372319086
300.635959348
300.382115589
300.277080759
300.208811437
300.153640463
300.108502251
300.072733475
300.047554154
300.029209414
300.016839458
300.008289754
300.002695335
300.000347736
300.000034384
300.000000003
300
300
300
300
300
300
300
300
300
300
300
300
300
300
300
300.00000374
300
300
300
300
)
;
    }
}


// ************************************************************************* //
