/*--------------------------------*- C++ -*----------------------------------*\
| =========                 |                                                 |
| \\      /  F ield         | OpenFOAM: The Open Source CFD Toolbox           |
|  \\    /   O peration     | Version:  2312                                  |
|   \\  /    A nd           | Website:  www.openfoam.com                      |
|    \\/     M anipulation  |                                                 |
\*---------------------------------------------------------------------------*/
FoamFile
{
    version     2.0;
    format      ascii;
    arch        "LSB;label=32;scalar=64";
    class       volScalarField;
    location    "0.5/water";
    object      k.gas;
}
// * * * * * * * * * * * * * * * * * * * * * * * * * * * * * * * * * * * * * //

dimensions      [0 2 -2 0 0 0 0];

internalField   nonuniform List<scalar> 
1503
(
0.0357425280991
0.00837455743316
0.00224690526417
0.000878413884272
0.00097576888436
0.00117889631848
0.00124818972353
0.0012663827122
0.00127154838392
0.00127110374161
0.00126757336598
0.00126247789653
0.0012570492612
0.00125203599303
0.00124779856468
0.00124443196406
0.00124188023781
0.00124002150283
0.00123872200263
0.00123786535352
0.488625698001
0.152143020782
0.0417669496995
0.0134477126215
0.00366565299199
0.00167754477249
0.00117962893982
0.00122690048552
0.00127308689985
0.0012820630563
0.00128089647237
0.00127640456458
0.00127030301702
0.00126363348253
0.00125715828148
0.00125138240117
0.00124656485579
0.0012427705923
0.00123994347342
0.00123797412082
0.682360696118
0.256425360566
0.0919073656344
0.030794962622
0.0110110148928
0.00358875549982
0.00162016772422
0.00119065386549
0.00125130458664
0.001285552621
0.00129052032185
0.00128868313377
0.00128400377948
0.00127774454341
0.00127075899948
0.00126376319256
0.00125732238859
0.00125180755398
0.00124739731624
0.00124412406148
0.835051521206
0.332970819388
0.132108469199
0.0504124718296
0.0210567032593
0.00678136681317
0.00255416726013
0.00133920955959
0.00121722123578
0.00127874966301
0.00129453593024
0.00129596729705
0.00129341941428
0.00128859649726
0.00128234882647
0.0012753618108
0.00126829183556
0.00126171743516
0.00125606571276
0.0012515853756
0.909747321305
0.38102176699
0.160558645837
0.0671055261861
0.0262645902353
0.0117873975407
0.00360400372419
0.00161405925396
0.00119808700228
0.00126019684153
0.00129454712795
0.00129969226364
0.00129937045072
0.00129629567202
0.00129135512273
0.00128514747001
0.00127826647138
0.00127133938261
0.00126494824601
0.00125954272816
0.914000862564
0.403642471651
0.179447437136
0.0796150431755
0.0341008545849
0.013216031074
0.00572147816635
0.00179644989076
0.00115396578292
0.00121897068749
0.00129043292946
0.0013010553879
0.00130250932401
0.00130108657125
0.00129757180441
0.00129247712687
0.00128627770243
0.00127953692186
0.00127287816225
0.00126688283519
0.900491164332
0.413406109163
0.190879017487
0.0879600726803
0.0398084958298
0.0170493309837
0.00640098034834
0.00249594509614
0.00100501888471
0.00110123540003
0.00127553524062
0.00130142582656
0.00130378376109
0.00130367952973
0.00130151436928
0.00129762498237
0.00129234876166
0.00128613263797
0.00127955892128
0.00127326445579
0.917351000066
0.423886011737
0.198176740784
0.0932350766359
0.0438509258024
0.0201407353361
0.00847491733647
0.00328792273449
0.00111069569347
0.000840017638072
0.00121292192468
0.00130137637413
0.0013046504873
0.00130512530283
0.00130407914283
0.00130132742032
0.00129701847872
0.00129146206541
0.00128515611472
0.00127873288337
0.954800721648
0.437306637532
0.203468115036
0.0968824882529
0.0469713044007
0.0227664013777
0.0105207240033
0.00422065813957
0.00174459216417
0.00066378170816
0.000999712953209
0.00129155977142
0.00130738288079
0.00130685732593
0.00130640347708
0.00130453902024
0.0013010492113
0.00129608117082
0.00129003150452
0.0012835071451
1.00582722272
0.448345852123
0.207747674913
0.100218990122
0.0498002883216
0.0251146165896
0.012450505029
0.00567630433349
0.00212755944926
0.000900053753695
0.000656197856124
0.00120386428342
0.00131324695262
0.00131065133513
0.0013096331748
0.00130815806378
0.00130514631977
0.00130050304411
0.00129452241855
0.00128778235818
1.02275845339
0.455337535607
0.212293066997
0.103606158789
0.0524702570912
0.0272847411293
0.0142961925906
0.00717421267589
0.00315035540309
0.00116889130321
0.000577053436496
0.00087664328286
0.00130282904344
0.00131841993991
0.00131474109444
0.00131282631663
0.00130977213633
0.00130504036028
0.00129881356017
0.00129163717596
1.02132366176
0.457463540392
0.215050901656
0.106150131403
0.0546880585304
0.0292146322537
0.0159734936957
0.00863345568749
0.00426193272171
0.00172750675678
0.000824570394253
0.000527551949728
0.0011504102026
0.00132835240854
0.00132241656424
0.00131881259273
0.0013150578835
0.0013097416989
0.00130289410539
0.00129502388818
1.01498180703
0.456175952649
0.215940951818
0.107583717505
0.056237292966
0.0307540667468
0.0174146459619
0.00993154712002
0.00531745683163
0.0024005774504
0.000951386403335
0.000571188075775
0.00072923513677
0.00130861670155
0.00133265096292
0.00132599033185
0.00132082685141
0.00131443745645
0.00130661712457
0.00129782833051
1.01162508755
0.455186577569
0.215848572201
0.108130186616
0.0571456673781
0.0318554993798
0.0185555332664
0.0109794303291
0.00621472102387
0.0030152866809
0.00127053272058
0.000657407943761
0.000459288749876
0.00114698839701
0.0013425195045
0.00133405835834
0.00132679822115
0.00131892586159
0.00130985590168
0.00129999639451
1.01446925958
0.455822341861
0.215802011382
0.108169756675
0.0575811173616
0.0326009233314
0.0194074465189
0.0117792985781
0.0069111532276
0.00352689487759
0.0015461547907
0.000775873136012
0.000499821289005
0.000809797307475
0.00133954302668
0.00134268570895
0.0013328028131
0.00132315432051
0.00131266073019
0.00130165324622
1.02502470008
0.459732924933
0.21697816386
0.108616208471
0.0580700753555
0.0332190608447
0.0200478312076
0.0123690853237
0.00743687510252
0.00396825631813
0.00179881860703
0.000931210067131
0.000623285093955
0.000549850653779
0.00130469491821
0.00135206599935
0.00133894228736
0.00132732076512
0.0013153349195
0.0013031489294
1.04597869403
0.467660050296
0.220245908398
0.110260393264
0.0591070099815
0.0339267102802
0.0205696893427
0.0128303335982
0.00789656869514
0.00442222740045
0.00208769953015
0.00108620809778
0.000637146721767
0.000480112681922
0.00123162537087
0.00136348115566
0.00134572467726
0.00133189008838
0.0013183993904
0.00130500437005
1.07570737496
0.480005733152
0.226364837685
0.11364114859
0.0609089051362
0.03478668763
0.0210200533866
0.0132189096328
0.00835473891322
0.00493300024948
0.00247914100191
0.00127178548252
0.000755800564761
0.000542838156206
0.00111664955824
0.00138146699854
0.00135466210184
0.00133758993826
0.00132246919744
0.00130777812512
1.10635653271
0.496625152129
0.236400204502
0.119312773727
0.0635002717969
0.035684748863
0.0213244318236
0.0135119997835
0.00881001849372
0.00551618062451
0.00296294286268
0.00150103567324
0.000942147748435
0.000728715436395
0.000903244597152
0.00140364368864
0.00136859498808
0.00134533300554
0.00132809366891
0.0013119155695
1.12613043319
0.52284418353
0.25338658639
0.127109210345
0.0659987674244
0.0361187875243
0.021345652135
0.0137189131355
0.00923544501977
0.00606611320101
0.00342904733837
0.00175568182655
0.00115020111781
0.000764552711805
0.000656099842857
0.0013463948303
0.00139096660021
0.00135605372493
0.0013355945564
0.00131763589686
1.19362641574
0.567101574387
0.274068286888
0.133963806074
0.0676415702991
0.0363510714073
0.0215621624838
0.013985041203
0.00958912966826
0.00653380327431
0.00386466732023
0.00192765921828
0.00131556993144
0.00101003998952
0.000792702101761
0.000924246194582
0.00141003747451
0.00137058107323
0.00134499372921
0.00132490946244
1.33107468612
0.617552734351
0.289458131597
0.138882574395
0.0699775849736
0.037779349511
0.0223154736829
0.0144259032038
0.00996365842577
0.00696663281965
0.00427462413747
0.0020786738886
0.00135156625234
0.00118422394632
0.00083763023804
0.000552032171561
0.00128699784084
0.00138807821986
0.00135602463747
0.00133347242912
1.46572638679
0.648204882312
0.299494845091
0.144527091864
0.0737797390239
0.0401538082768
0.0235849895764
0.0150889876145
0.010413531106
0.00741537684661
0.00469307545535
0.00224461682245
0.00136387694937
0.00123750431648
0.00103543227608
0.000675258788505
0.000805343682181
0.00139177349745
0.00136810993104
0.00134281627996
1.50996846359
0.666766239326
0.308128775471
0.150172339653
0.0775225905896
0.0424626359119
0.0248815342508
0.0158056120876
0.0109156194276
0.00789241398516
0.00509988524141
0.00243022305793
0.00139145990352
0.00124845325159
0.00113919042889
0.000691686981483
0.000461391249979
0.00131305202663
0.00137990163961
0.00135221107306
1.52817912504
0.676003599798
0.313423536937
0.153865675486
0.080062386746
0.0441418607211
0.0259100120734
0.0164509343325
0.0114585386213
0.00838817805381
0.00548308586521
0.00262976983569
0.00143904390515
0.00127510720669
0.00120104212542
0.00083373180375
0.000444195804409
0.00109099897415
0.00138818033477
0.00136079447031
1.53683763037
0.681073820817
0.317092383871
0.156232518809
0.0816508359921
0.0452589310323
0.0266831950671
0.0170672674085
0.0120520759244
0.00887219691289
0.00585315946557
0.0028628000657
0.0015193501888
0.00133624766766
0.00127086835223
0.000946113656832
0.000543897896051
0.000825237350217
0.00138858138634
0.00136779775279
1.53881603882
0.684516554081
0.320085211239
0.157903285482
0.0827278366733
0.0460811839871
0.0273733844488
0.0177454183738
0.0126777814772
0.00932752485137
0.00621409040658
0.00312929937321
0.00164301818271
0.00143623390373
0.0013748812986
0.00106271096472
0.000616528220294
0.00062562061433
0.00137785084915
0.00137314591866
1.54787970237
0.687701687534
0.322096576404
0.159030564813
0.083586604443
0.0468252253801
0.028079313443
0.0184667696968
0.0132647057237
0.00973359728336
0.00654668442832
0.00339857919863
0.00179392905433
0.00156452174506
0.00150097264466
0.00120615315711
0.000663234900068
0.000506696648179
0.00134592142732
0.00137764917889
1.5667425163
0.694545107719
0.324735195086
0.160353348316
0.0844874271469
0.0475647016516
0.028783212479
0.0191404893112
0.0137407237304
0.0100599538886
0.00681885923003
0.00363282030447
0.00194410196504
0.00169456233284
0.00163536004313
0.00137986795679
0.000833946673286
0.000480952521706
0.00125944849659
0.00138241447008
1.59096805977
0.703319111279
0.328169611205
0.161759067028
0.0852466522405
0.0481487845038
0.0293697107843
0.0196474847002
0.0140519193212
0.0102720769203
0.00699889068689
0.00380545793805
0.00206809413612
0.00179594665592
0.00175247141724
0.00155389120869
0.00103373763634
0.000580782630917
0.00107204336286
0.00138806041032
1.61283505435
0.712126039489
0.331611163175
0.163004235348
0.0857876232022
0.048532249552
0.0297650742458
0.019915452848
0.0141810400629
0.0103494637048
0.00707429088057
0.00391739876627
0.00215596968704
0.00186644752211
0.00184915864502
0.001667421258
0.0012210187105
0.000730861299945
0.000817839332808
0.00139337709505
1.63336574284
0.718362954224
0.333645719158
0.163677634103
0.0860802417173
0.0487282875326
0.0299156824933
0.0199209663254
0.0141276596659
0.0102874514221
0.00705167006827
0.00398354193102
0.0022162590694
0.00192301127834
0.00192430671592
0.00175675632573
0.00137235890342
0.000742937794563
0.000626838114955
0.00139070764646
1.65054501088
0.720537922842
0.333526854507
0.163704359673
0.0861282091048
0.0486653096064
0.0297174205282
0.0196468312417
0.0138853359828
0.0100813504766
0.00693747569395
0.00400723794195
0.00227104719942
0.00196981063793
0.00197602902924
0.00183024022963
0.00149330071768
0.000896870675207
0.00057155210626
0.0013603373179
1.659125487
0.71724618939
0.331603701915
0.163705743337
0.086260784766
0.0484071474631
0.0292141597918
0.0191571805525
0.0134799800073
0.00974419282527
0.00672960745709
0.00399706748973
0.00234342699654
0.00199787885818
0.00200143163327
0.00188938149234
0.00160681740515
0.0010675912824
0.000648288513655
0.00127080422689
1.61160136731
0.701669897981
0.329934028203
0.165219902453
0.0870438759316
0.0481739844183
0.0286149147648
0.0185792690683
0.0129767269086
0.00932024349186
0.00647511861156
0.00401831509463
0.00241926226167
0.00199348183586
0.00199285928381
0.00193519674986
0.0017218307394
0.00125096555651
0.000835736663986
0.00109548960312
1.50887349586
0.68535953803
0.333609093544
0.170194755279
0.0890185942083
0.0482985309487
0.028279687652
0.018167100884
0.0125306714578
0.00894106827789
0.00631392124017
0.00409108833647
0.00248621582507
0.0019509134275
0.00194193149829
0.00195765099792
0.00182036603198
0.0014391256831
0.000837196026692
0.000846726064329
1.44940772906
0.690504230705
0.347408750328
0.179066738453
0.0923203977898
0.0500783406109
0.0290205097181
0.0182209008631
0.0123342725197
0.00877556155904
0.00631915298133
0.00422862813209
0.00255402414235
0.00187687205957
0.00184470077529
0.00192884379461
0.00185924374215
0.00158143510869
0.00102227279449
0.000672888188622
1.47873134401
0.719918300382
0.367435895761
0.189687618007
0.0992170791649
0.0545560800994
0.0313455091501
0.0191534356156
0.012632282433
0.00890547143384
0.0064890998313
0.00443791165289
0.00264588434592
0.00179419504454
0.00171303988552
0.00184047818656
0.00183244478507
0.00162559262022
0.00120648837034
0.000778359314355
0.00123737238473
0.0012371683431
0.00123718385759
0.00123738229725
0.00123775358802
0.00123830350903
0.00123904540272
0.00123999151653
0.0012411412722
0.00124246462379
0.00124387981389
0.0012452283634
0.00124625613128
0.00124661776532
0.00124593114294
0.00124399678783
0.00124306257988
0.00129212012706
0.00262402208526
0.0232983238388
0.0012367707509
0.00123621032936
0.00123614675571
0.00123648192411
0.0012371637154
0.00123816332344
0.0012394540478
0.00124099170588
0.00124269635121
0.0012444376709
0.00124602798864
0.00124722469817
0.00124773164877
0.00124716341163
0.00124495735231
0.00124136190363
0.00126054715266
0.00172001856147
0.00713666807468
0.0433771007564
0.00124198362531
0.00124086601081
0.00124055910449
0.00124088270079
0.001241709597
0.00124293624143
0.00124445339522
0.00124612451687
0.00124777414639
0.00124918739833
0.00125011560618
0.00125027087981
0.00124927206645
0.001246490638
0.00124102412688
0.00123711887992
0.00133251755041
0.00268501680914
0.0129840219189
0.0557954975843
0.00124844801874
0.00124663400621
0.00124590585408
0.00124600506067
0.00124671750285
0.00124784933014
0.00124920108391
0.00125055441085
0.00125167176825
0.001252302047
0.00125217453301
0.00125095164113
0.00124809739407
0.0012426679075
0.001234186228
0.00124194769493
0.00154056445997
0.00443702514316
0.0194663086337
0.062581261602
0.00125550178846
0.00125295201599
0.00125168108949
0.00125137462983
0.00125174221784
0.00125250799235
0.00125339826368
0.00125413921282
0.00125446098989
0.0012540940163
0.00125273501896
0.00124995344633
0.00124501282474
0.00123683351719
0.00122783862982
0.00127612753369
0.00198863539677
0.00698084712219
0.0252956628779
0.0658378548085
0.00126211444881
0.00125887523473
0.00125701304025
0.00125619026472
0.00125606322312
0.00125629482959
0.00125655993775
0.00125655130166
0.00125597969781
0.00125455260428
0.00125191134191
0.00124750573312
0.00124044021999
0.00123010669905
0.00122718195925
0.00137016463985
0.00277576339282
0.0100359808247
0.0297435587604
0.067135245524
0.00126794812996
0.00126409380743
0.00126162795282
0.00126022376656
0.00125951049689
0.00125911310087
0.00125867462841
0.00125786657397
0.00125638061633
0.00125388941881
0.00124996275111
0.00124393834024
0.00123493217868
0.00122411058355
0.00124024072833
0.00156438731917
0.00394548440919
0.0131421650743
0.0327452458943
0.0673480839228
0.00127299417339
0.00126856712244
0.00126548182589
0.00126344539909
0.00126208297217
0.00126100096563
0.00125982382953
0.00125820611234
0.00125581553269
0.00125228033938
0.0012470974342
0.00123954611355
0.00122911618804
0.00122113742902
0.00127864595394
0.00190341269181
0.00544724965556
0.0159019963699
0.0346013503
0.0669290572358
0.00127736692266
0.00127235654592
0.00126861495855
0.00126589595703
0.00126383573094
0.00126203472787
0.00126010549298
0.00125768534453
0.00125441295657
0.00124986912528
0.00124349576229
0.00123463020974
0.00122378674121
0.00122447982894
0.00135820958474
0.00242402879078
0.00714471590639
0.0181189987939
0.0356527104201
0.0661254329297
0.0012811629651
0.00127550923052
0.00127105786064
0.00126760973717
0.00126481756167
0.00126228095205
0.00125960221246
0.0012563993868
0.00125227960114
0.00124678201966
0.00123933581289
0.00122954178289
0.00122002177037
0.00123883762837
0.00149865902776
0.0031400112838
0.00886751115069
0.0197810119572
0.036160191453
0.0650851685627
0.00128439984773
0.00127801943947
0.00127280742047
0.00126860043692
0.00126506418833
0.00126179662918
0.00125838859094
0.00125443721216
0.00124951980596
0.00124315061974
0.00123482058228
0.00122472818041
0.0012193261271
0.00127074250651
0.00172166663722
0.00403232313681
0.0104706484048
0.0209717668699
0.0363010718558
0.0639005488228
0.00128702031441
0.0012798431862
0.00127384588406
0.00126888101888
0.00126461778918
0.00126064837712
0.0012565502897
0.00125190015338
0.0012462526576
0.00123912747115
0.00123019618096
0.00122077748643
0.00122380388841
0.0013288699017
0.00204665324188
0.00505109325473
0.011867980208
0.0217964793996
0.0361935098792
0.0626297189326
0.00128895163642
0.00128095212169
0.0012741869792
0.00126850181031
0.00126355797444
0.00125893742663
0.00125420374293
0.00124891654438
0.00124262173202
0.00123489248472
0.00122576273774
0.00121846860909
0.00123635982704
0.00142400491007
0.00248518844533
0.00612880377609
0.0130321316959
0.0223467505741
0.0359167890463
0.0613091306162
0.00129020252414
0.00128140501729
0.00127392742423
0.00126758677231
0.00126202646577
0.00125681525749
0.00125150435748
0.00124564358716
0.00123879204927
0.00123064853483
0.00122188077491
0.00121883410479
0.0012609046201
0.00156832690701
0.00303617611231
0.00719798986646
0.0139748828296
0.0226926931466
0.0355244128288
0.0599614215416
0.0012909431886
0.00128139632428
0.00127327303058
0.0012663438932
0.00126022645128
0.00125447510799
0.0012486324671
0.00124224982163
0.00123493182057
0.00122660806541
0.00121897915127
0.00122324158078
0.00130250076367
0.00177377648184
0.00368417041524
0.00820550722681
0.0147254920421
0.0228857140253
0.0350525947689
0.0586007502515
0.00129152238736
0.00128125163437
0.00127251937835
0.00126503622852
0.00125838795129
0.00125211482369
0.00124575643453
0.00123888135812
0.00123118556074
0.00122298011341
0.00121757577991
0.00123349638374
0.00136735889668
0.00204970859918
0.00440188831208
0.00911886701088
0.0153162876998
0.0229631530709
0.0345259366143
0.0572365722692
0.00129240878634
0.00128136760417
0.00127199076118
0.00126392159953
0.00125671074747
0.0012498855842
0.0012429897246
0.00123562998321
0.00122765667883
0.0012199745699
0.00121832521701
0.00125196353205
0.00146260923442
0.0024005773107
0.00515605565285
0.00992501951395
0.015776293761
0.0229522087593
0.0339612547029
0.055876197157
0.00129407812124
0.00128211954161
0.00127196340394
0.00126318992114
0.00125531584702
0.00124785783811
0.00124037166979
0.00123252917687
0.00122442014626
0.00121783817803
0.00122210198752
0.00128170226814
0.00159584053041
0.00282456696033
0.00591428700279
0.0106249564743
0.0161298161168
0.022872934916
0.0333701515078
0.0545261976153
0.00129689545119
0.00128377779112
0.00127261222129
0.00126293633745
0.0012542407394
0.00124603448527
0.00123789470644
0.00122959224704
0.00122157087092
0.00121692159748
0.00123011728126
0.00132660548207
0.00177447059845
0.00331368878554
0.00665052383895
0.0112276388807
0.0163969424237
0.0227404604439
0.0327607333207
0.0531927424608
0.00130104041544
0.00128647137492
0.00127401139766
0.00126319101281
0.0012534888193
0.00124441117757
0.00123556843437
0.0012268754749
0.00121928669212
0.0012177581508
0.00124405758675
0.00139152771006
0.00200500711625
0.0038551860494
0.00734756199968
0.0117452357317
0.0165942690765
0.0225665031208
0.0321387184329
0.0518810784191
0.00130650797921
0.00129021373712
0.00127618380922
0.00126398298611
0.00125309748343
0.00124304061461
0.00123347489686
0.00122452316917
0.00121787034817
0.0012211310879
0.00126623267531
0.00148234452643
0.00229218400223
0.00443360646912
0.00799664211589
0.0121901031033
0.0167353268166
0.0223602595724
0.031508112203
0.0505945855319
0.00131313653949
0.00129493879848
0.00127913730091
0.00126537058228
0.00125315883563
0.00124204187234
0.0012317672496
0.001222760442
0.00121775111552
0.00122812370541
0.00129971833784
0.00160580774593
0.00263795423306
0.00503284736216
0.00859515677639
0.0125731435685
0.0168307574439
0.0221288356445
0.0308715987438
0.0493339451439
0.00132058677522
0.00130047045326
0.0012828217753
0.00126738861311
0.00125376095796
0.00124153949097
0.001230611033
0.00122184439018
0.00121946473716
0.00124017064946
0.00134846308675
0.0017690152729
0.00304050422526
0.00563775282383
0.00914387820456
0.0129030986751
0.016888475088
0.0218774586205
0.0302308054504
0.0480968827712
0.00132829289513
0.00130644410208
0.00128703808413
0.00126995569823
0.0012549007677
0.00124158619255
0.00123012067281
0.00122202194625
0.0012236530333
0.00125913351413
0.00141729601561
0.0019784154531
0.00349371522805
0.00623516489021
0.00964479273872
0.0131864870686
0.0169139971898
0.0216096902944
0.0295865543928
0.0468786610118
0.00133550123407
0.00131230521443
0.00129141554634
0.00127284384996
0.00125645356459
0.0012421374607
0.00123034407812
0.00122353443722
0.00123111211189
0.00128740299915
0.00151175369463
0.00223853129144
0.00398752909349
0.00681450790651
0.01009997848
0.0134279906606
0.0169109872152
0.0213277592147
0.0289391532724
0.0456731382492
0.00134148588438
0.00131746950745
0.00129552471284
0.00127575649766
0.00125822795684
0.00124309373502
0.00123130294351
0.00122667272342
0.00124288947591
0.00132800076417
0.0016376790511
0.00255084380768
0.00450931577254
0.00736800300351
0.0105113590087
0.0136310605992
0.0168818978138
0.0210329883768
0.0282886947992
0.0444739689117
0.0013459302782
0.00132159897462
0.00129907622644
0.00127846962673
0.00126006713194
0.00124437826055
0.00123306403972
0.00123186483512
0.00126041150683
0.00138463713095
0.00180063533485
0.00291327982906
0.00504581067069
0.00789056495228
0.0108808716741
0.0137984917987
0.0168285404782
0.02072621311
0.0276353056037
0.0432755222353
0.00134913818886
0.00132478892332
0.00130207169956
0.00128094710028
0.00126193728951
0.00124601042225
0.00123581283107
0.00123977284382
0.00128561140441
0.00146167660553
0.00200524582689
0.00332045349564
0.00558488893413
0.00837940213383
0.0112106168534
0.013932772147
0.0167524387778
0.0204080685006
0.0269792830961
0.0420733067234
0.001351970352
0.00132757684386
0.001304836368
0.00128337941302
0.00126396659077
0.00124814605894
0.00123990457438
0.0012513733045
0.00132101801904
0.00156396087675
0.0022545471198
0.00376443601218
0.00611658526301
0.00883337486298
0.0115027861815
0.0140361587819
0.0166549359757
0.0200790937629
0.0263211075256
0.0408639902508
0.0013556709232
0.00133080617965
0.00130793385183
0.00128613396873
0.00126641714543
0.00125106533115
0.00124587388331
0.00126799968981
0.00136976259523
0.00169643728109
0.00254938829897
0.00423567669264
0.0066332288166
0.00925226302187
0.0117594254401
0.0141105878894
0.0165371464659
0.0197396919135
0.0256613629459
0.0396453285008
0.00136142282044
0.00133527325399
0.00131192778685
0.00128959529733
0.00126957596058
0.00125510112196
0.00125440181406
0.00129134050435
0.00143546463592
0.00186356683435
0.00288793847124
0.00472384166761
0.00712901580482
0.00963617215218
0.01198223516
0.0141576033147
0.0163999063939
0.0193900582273
0.0250006448219
0.0384163329226
0.00136976507501
0.00134131415877
0.0013170831223
0.00129395286652
0.00127360937176
0.0012605494805
0.00126627774262
0.00132340822421
0.00152198059807
0.00206858659198
0.00326549392698
0.005218581853
0.00759952245987
0.00998527649239
0.0121725871929
0.014178445165
0.016243845881
0.0190301908304
0.0243395234592
0.037177812962
0.00138083626732
0.00134874673609
0.00132324138618
0.00129908928832
0.00127849114811
0.00126764589506
0.00128241375118
0.00136650382431
0.00163305864229
0.0023128644263
0.00367485445008
0.00571035057058
0.00804152107647
0.0102999465163
0.0123317898775
0.0141743146757
0.0160696090111
0.0186600395066
0.0236785987425
0.035933130924
0.00139562986646
0.00135708094539
0.00132985113336
0.00130459486448
0.00128404377159
0.00127664045251
0.0013039264032
0.00142319030336
0.00177201540616
0.00259565887104
0.00410737114353
0.00619126744986
0.00845312984349
0.0105811059886
0.0124614644985
0.0141466997097
0.0158781377878
0.0182797559589
0.0230186198336
0.0346887822019
0.00141611425952
0.00136553960096
0.0013359911334
0.00130985110828
0.00129007147065
0.0012879534371
0.00133226794447
0.00149630468564
0.00194159394594
0.00291447224349
0.00455443274758
0.00665584631018
0.00883406780622
0.0108305616853
0.0125638314557
0.0140976025737
0.0156708915238
0.0178899493369
0.0223606059702
0.0334543919892
0.00144203957011
0.00137375758057
0.00134084012724
0.00131440851289
0.00129667154253
0.00130242493552
0.00136941688801
0.00158908195055
0.0021441246973
0.00326591845994
0.00500891025025
0.00710134300716
0.00918572182784
0.0110510798047
0.012641747755
0.0140295523366
0.01544989233
0.0174918273802
0.0217058857964
0.0322418720903
0.0014480738024
0.00138355968748
0.00134465597941
0.00131860969654
0.00130461553734
0.00132155785484
0.00141808801759
0.00170538783552
0.002381879375
0.00364666947801
0.0054659788589
0.00752748317453
0.00951077878242
0.0112460641607
0.0126984142088
0.0139453470019
0.0152175288033
0.0170870792652
0.0210557429883
0.0310636083674
0.00129901952324
0.00139889122839
0.00134886704547
)
;

boundaryField
{
    emptyPatch
    {
        type            empty;
    }
    minY
    {
        type            fixedValue;
        value           uniform 0.000138;
    }
    maxY
    {
        type            inletOutlet;
        inletValue      nonuniform List<scalar> 0();
        value           nonuniform List<scalar> 0();
    }
    maxX
    {
        type            kqRWallFunction;
        value           nonuniform List<scalar> 
37
(
0.0232983238388
0.0433771007564
0.0557954975843
0.062581261602
0.0658378548085
0.067135245524
0.0673480839228
0.0669290572358
0.0661254329297
0.0650851685627
0.0639005488228
0.0626297189326
0.0613091306162
0.0599614215416
0.0586007502515
0.0572365722692
0.055876197157
0.0545261976153
0.0531927424608
0.0518810784191
0.0505945855319
0.0493339451439
0.0480968827712
0.0468786610118
0.0456731382492
0.0444739689117
0.0432755222353
0.0420733067234
0.0408639902508
0.0396453285008
0.0384163329226
0.037177812962
0.035933130924
0.0346887822019
0.0334543919892
0.0322418720903
0.0310636083674
)
;
    }
    water_to_heater
    {
        type            kqRWallFunction;
        value           nonuniform List<scalar> 
61
(
0.0357425280991
0.488625698001
0.488625698001
0.682360696118
0.682360696118
0.835051521206
0.835051521206
0.909747321305
0.914000862564
0.900491164332
0.900491164332
0.917351000066
0.917351000066
0.954800721648
0.954800721648
1.00582722272
1.02275845339
1.02132366176
1.02132366176
1.01498180703
1.01498180703
1.01162508755
1.01162508755
1.01446925958
1.02502470008
1.04597869403
1.04597869403
1.07570737496
1.07570737496
1.10635653271
1.10635653271
1.12613043319
1.19362641574
1.33107468612
1.33107468612
1.46572638679
1.46572638679
1.50996846359
1.50996846359
1.52817912504
1.53683763037
1.53881603882
1.53881603882
1.54787970237
1.54787970237
1.5667425163
1.5667425163
1.59096805977
1.61283505435
1.63336574284
1.63336574284
1.65054501088
1.65054501088
1.659125487
1.659125487
1.61160136731
1.50887349586
1.44940772906
1.44940772906
1.47873134401
1.47873134401
)
;
    }
    procBoundary2to3
    {
        type            processor;
        value           nonuniform List<scalar> 
41
(
1.54790803575
0.757484819228
0.383635080135
0.200986727378
0.109553406262
0.0621995427199
0.0358026926727
0.0212317657605
0.0134914715781
0.0093242065787
0.00681578538544
0.00474687866691
0.00279736752262
0.00173444710671
0.00158078112744
0.00171669946429
0.00176481326077
0.0016254795489
0.00132402146801
0.000778666875074
0.00132364786535
0.00131534683422
0.00134753024273
0.00148183899308
0.00184985840775
0.00265719782726
0.00405386328976
0.00592292609423
0.00793552066735
0.00981241262328
0.0114189233525
0.0127369143089
0.0138478252146
0.0149768127634
0.0166793904237
0.0204154311313
0.0299356420829
0.000861777148414
0.00141846355062
0.00132364786535
0.00135538337236
)
;
    }
}


// ************************************************************************* //
