/*--------------------------------*- C++ -*----------------------------------*\
| =========                 |                                                 |
| \\      /  F ield         | OpenFOAM: The Open Source CFD Toolbox           |
|  \\    /   O peration     | Version:  2312                                  |
|   \\  /    A nd           | Website:  www.openfoam.com                      |
|    \\/     M anipulation  |                                                 |
\*---------------------------------------------------------------------------*/
FoamFile
{
    version     2.0;
    format      ascii;
    arch        "LSB;label=32;scalar=64";
    class       volScalarField;
    location    "0.87/water";
    object      T.gas;
}
// * * * * * * * * * * * * * * * * * * * * * * * * * * * * * * * * * * * * * //

dimensions      [0 0 0 1 0 0 0];

internalField   nonuniform List<scalar> 
1496
(
584.932292886
383.651072672
321.792601177
305.502044801
301.902926882
301.106467352
300.847778186
300.707751215
300.610651965
300.531699923
300.461241963
300.395827963
300.334785602
300.278596672
300.227837597
300.182559606
300.142188039
300.106256455
300.076032539
300.052306262
586.358530037
384.485622936
321.987509138
305.760985203
302.068883475
301.197816919
300.875206377
300.71123779
300.604871694
300.521696949
300.449160926
300.382704662
300.320694493
300.263068863
300.210662991
300.163944
300.122991632
300.088192108
300.060596495
300.038826982
589.103972768
385.355448491
324.336576643
307.281523126
302.829313741
301.490315122
300.981029497
300.74413715
300.609773379
300.515086466
300.437131359
300.367208665
300.302031052
300.242671136
300.189990564
300.143932256
300.104476561
300.072156139
300.04616667
300.03107251
584.470762594
388.944630389
328.627637367
310.00598059
304.062275535
301.996074156
301.174867575
300.81117816
300.627290248
300.512560477
300.42422221
300.347127896
300.279590492
300.2204672
300.169285758
300.125446023
300.08867846
300.057556621
300.038470043
300.027806242
555.992332322
390.850314531
333.068268732
312.778920367
305.410843967
302.577529925
301.406427475
300.895265996
300.651707794
300.510685096
300.407060095
300.324418895
300.256247975
300.199121757
300.150975407
300.110489856
300.074956562
300.049943109
300.036270014
300.027254567
492.304450111
382.91267901
334.624727371
314.547427341
306.41912615
303.043170346
301.599046486
300.96734816
300.671147365
300.502182676
300.386158293
300.300757843
300.234318906
300.180787754
300.136840801
300.098367681
300.06772911
300.048827244
300.036489176
300.028451898
451.841877826
371.711447953
332.516019209
314.64313148
306.731964242
303.231093673
301.684131625
300.997764071
300.67059822
300.482421258
300.362138584
300.278037295
300.215586228
300.167033592
300.126533901
300.091890048
300.068098813
300.050556276
300.038847167
300.030747274
440.062649767
363.661052549
329.013165064
313.45216925
306.355007031
303.106084058
301.637240283
300.971660787
300.641613669
300.452509012
300.336033604
300.257598862
300.201332225
300.157765316
300.120490093
300.093498191
300.072436473
300.055575238
300.043668425
300.034254719
437.004876124
357.222077927
324.868347753
311.4438898
305.468416371
302.729410993
301.476930896
300.892632898
300.587452293
300.415792581
300.310607089
300.241324004
300.191791922
300.15250946
300.122621152
300.099641412
300.080233593
300.063927873
300.050687237
300.039197783
436.003151601
349.856528118
320.026402785
308.966909384
304.307745962
302.213150906
301.248022748
300.776065156
300.521347459
300.377432341
300.288917187
300.230054268
300.18707989
300.1544178
300.129646809
300.10848982
300.09021202
300.074140908
300.059370308
300.045347796
434.752797822
342.920747928
315.741812261
306.743445246
303.228652784
301.712669993
301.012506351
300.652520962
300.459114514
300.345970895
300.274612735
300.225507927
300.189417905
300.161799782
300.138829816
300.118789338
300.100806291
300.084093459
300.067880186
300.051864882
432.37174008
340.756480187
313.182599441
305.196370874
302.423457453
301.317603263
300.811903925
300.556111901
300.414579307
300.328291703
300.270917522
300.229652777
300.197870337
300.171751721
300.149420935
300.129473981
300.110742552
300.092559017
300.074467885
300.056521421
418.950625337
338.510647758
311.705863453
304.211363158
301.876601727
301.034748923
300.674913278
300.497118444
300.394447498
300.327655847
300.279566348
300.241470915
300.210575105
300.184514517
300.161467795
300.140066337
300.11942463
300.099053026
300.07868351
300.058534818
397.230444391
333.473865883
310.04782086
303.29513042
301.396586276
300.817994978
300.592614054
300.47551066
300.399781829
300.343629238
300.299156509
300.262060699
300.230122462
300.201817739
300.175856629
300.151209877
300.127297151
300.103768897
300.080582212
300.058297219
382.284066847
329.58391775
307.637860595
302.057737224
300.976666286
300.69561439
300.571641916
300.491628566
300.429900556
300.378204234
300.333267844
300.293551242
300.25778656
300.224942273
300.194070148
300.164654981
300.136092164
300.108243695
300.081361972
300.056266875
383.128412828
331.503158366
306.380603482
301.663199653
300.875768715
300.697288079
300.608663315
300.541388675
300.483611595
300.431298131
300.382671108
300.337101915
300.29444694
300.254630809
300.217263595
300.181656471
300.147297313
300.113890306
300.082250296
300.053570162
417.433890668
344.968490045
310.972447722
302.459961181
301.026637112
300.772233811
300.679672283
300.61296902
300.553964953
300.498413703
300.44432393
300.391142624
300.339633615
300.290843123
300.244997668
300.20180084
300.160538231
300.120859501
300.083592254
300.050637714
499.150264087
362.506827435
319.099917592
305.459732549
301.757422434
300.966885706
300.778757814
300.694023668
300.628268746
300.567108349
300.506932991
300.446613203
300.386756243
300.328918339
300.2741931
300.222702551
300.173937743
300.127720818
300.084733985
300.047476008
541.765175627
378.315265641
327.224304292
309.398214241
303.420729988
301.554814557
300.988593868
300.787478835
300.695565702
300.625139577
300.559445668
300.493760298
300.427861674
300.362788985
300.300244477
300.241143248
300.185412415
300.13317447
300.085188318
300.044481688
557.810143948
389.832695507
334.579903922
313.7685305
305.667788394
302.571609421
301.4151606
300.974056628
300.794083953
300.672704705
300.596628363
300.527453294
300.457644251
300.388219756
300.320363999
300.255336093
300.194066821
300.13714457
300.085619215
300.042976987
546.950477157
395.150179014
340.123238425
317.692494559
307.975254044
303.758318893
301.9764825
301.226349623
300.904371097
300.728198383
300.625147096
300.548378352
300.477146516
300.40567117
300.334399869
300.265224711
300.200165654
300.140458864
300.087157637
300.043586941
505.429456928
390.945914094
341.827579506
319.910778532
309.616452588
304.723205458
302.471882568
301.46001917
301.004055649
300.777834236
300.64844719
300.561553497
300.488041494
300.416041286
300.343024019
300.271821282
300.204886448
300.143881999
300.089919154
300.045737484
473.332683915
380.707779133
339.090908076
319.653208012
310.029000592
305.145949254
302.745999917
301.606989058
301.071306347
300.809054711
300.661592498
300.566629344
300.491206552
300.419932884
300.347074441
300.275548027
300.208223883
300.147186034
300.093401075
300.049021817
461.807456219
370.659873559
333.545659654
317.163103866
309.112426995
304.881619901
302.698506605
301.611774021
301.079176572
300.812519196
300.661844266
300.563964926
300.487915968
300.418162557
300.347074365
300.276576903
300.210319378
300.150350604
300.097548888
300.053299269
455.604572237
355.58740234
324.42500392
312.785044023
307.125459586
304.031156277
302.351489095
301.475604402
301.026615493
300.791176774
300.650126733
300.554465943
300.479635864
300.411967723
300.343383368
300.275133826
300.211192121
300.153459859
300.102338442
300.058722639
449.944507295
341.245922406
316.164932894
308.608153183
305.066136509
303.047453723
301.905067995
301.284196346
300.947375887
300.753592547
300.628195029
300.538930746
300.467423213
300.402495052
300.336653545
300.27159162
300.211042652
300.156445757
300.107751789
300.065259099
444.137132874
338.84165233
312.549494994
306.030900216
303.601708274
302.294871672
301.543551151
301.113227117
300.861489616
300.705140094
300.598673784
300.518862439
300.45241536
300.390503014
300.327299017
300.266327674
300.210026033
300.159356204
300.113512496
300.072669061
433.366873523
341.761804739
312.479238101
304.909540939
302.710075986
301.764264676
301.255361434
300.959168825
300.776823786
300.655739019
300.567699259
300.49754819
300.436017147
300.375964995
300.316302037
300.260032656
300.208656637
300.162252355
300.119612226
300.080648367
419.078780585
341.952306841
313.094961801
304.532700955
302.200261168
301.413974019
301.049878392
300.843029611
300.709881731
300.614923978
300.540637369
300.477355547
300.418193615
300.3605203
300.305420232
300.25416188
300.20774535
300.165906889
300.126058232
300.088789718
404.121164755
338.676378017
312.859275015
304.33316403
301.918567557
301.20465047
300.922831671
300.769005511
300.665087214
300.585328223
300.518498441
300.458524309
300.401878549
300.347930605
300.297010659
300.250569585
300.208950516
300.170871458
300.133281701
300.096723582
391.796846382
335.726900788
312.668070454
304.335552069
301.814892227
301.110243995
300.862460219
300.732402729
300.641241621
300.567669168
300.503787546
300.44553945
300.391019782
300.340035822
300.293211595
300.250950644
300.212857224
300.177165532
300.14113647
300.104356072
388.099002055
336.835782088
314.281633416
305.152960697
302.089493161
301.190889853
300.88555471
300.73799008
300.640366298
300.563705725
300.497919007
300.439299584
300.386564018
300.338679338
300.295228447
300.256001716
300.219867113
300.184767725
300.148838483
300.111765597
403.837256169
349.876186533
321.313570368
308.144961665
303.260267032
301.622148874
301.037955669
300.788594818
300.654005142
300.567290943
300.498701429
300.440542335
300.390106299
300.344787842
300.303219914
300.264785684
300.228522952
300.192986933
300.15592577
300.118467343
470.371613159
372.203967081
328.299373447
310.617616886
304.262464506
302.02830701
301.18691647
300.827321903
300.669202367
300.576764346
300.50683787
300.449455296
300.400548995
300.355802892
300.313818894
300.274156745
300.236287369
300.199229252
300.161357039
300.123990705
548.134622274
383.382059234
328.73548069
310.303714483
304.15966179
302.014191773
301.187234032
300.842977664
300.685496216
300.591985628
300.521815063
300.463732533
300.414565599
300.368029937
300.323547815
300.281280026
300.241185519
300.202601466
300.165230249
300.127985078
579.252394158
385.569027215
326.846994669
309.069174292
303.638009514
301.831354423
301.139703906
300.83997975
300.692784762
300.60159737
300.532885461
300.477654705
300.426728898
300.376871755
300.329095597
300.28408028
300.242778066
300.204439322
300.167406558
300.130199486
587.549516316
385.966588632
325.358821226
308.027145909
303.162986255
301.65284544
301.085205491
300.830711546
300.696983944
300.610207757
300.543533991
300.48668687
300.432079637
300.379108105
300.329536552
300.283950376
300.242632371
300.204520201
300.167652413
300.130220206
300.008322627
300.00579323
300.004338835
300.003470068
300.00278845
300.002519711
300.002483432
300.002139294
300.001912314
300.00199005
300.002278789
300.003098339
300.004518788
300.005681565
300.00586205
300.005804427
300.033979652
300.021828056
300.013785924
300.009133609
300.006441873
300.004881466
300.004015982
300.003522389
300.003194278
300.00301321
300.002868386
300.002446267
300.00216872
300.002199538
300.00249339
300.003403669
300.005725956
300.007139793
300.007684423
300.007796585
300.025540951
300.016362995
300.011118304
300.008066414
300.006188542
300.005047996
300.00441625
300.004043313
300.003791491
300.003582566
300.003275593
300.002769394
300.002443448
300.002433641
300.002768783
300.003761079
300.007690107
300.00953391
300.010963526
300.011368106
300.021087273
300.014563088
300.010837381
300.008480201
300.006884198
300.005831634
300.005228303
300.004827616
300.004496724
300.004202705
300.003693027
300.003101417
300.002731744
300.002692516
300.00307458
300.004254071
300.010804373
300.013604763
300.016626993
300.017620805
300.020061372
300.014952044
300.011806871
300.009640688
300.008024351
300.006885539
300.00620884
300.005692369
300.00522238
300.004779402
300.004089143
300.003424842
300.003025153
300.002979803
300.003448105
300.00498332
300.015599533
300.02009689
300.025799765
300.027442183
300.020957944
300.016406552
300.013289708
300.011041425
300.009229646
300.007958997
300.007156827
300.006505653
300.005900179
300.005243531
300.004427141
300.003720856
300.00332389
300.003320623
300.003983066
300.006089609
300.022204723
300.029117131
300.038909253
300.040748233
300.022608613
300.018158404
300.014835373
300.012356412
300.010280307
300.008904687
300.0079938
300.007209505
300.006457061
300.005573341
300.004683393
300.00398705
300.003655219
300.003785711
300.004831684
300.007762263
300.03060133
300.039667881
300.055099873
300.056664537
300.024536343
300.019798562
300.016213507
300.013458685
300.011122418
300.009715192
300.008671224
300.00772708
300.006749257
300.00574989
300.004862292
300.004256906
300.004096222
300.004523022
300.006292969
300.01036062
300.040548244
300.049450656
300.07235399
300.073343362
300.026887429
300.021441655
300.017440455
300.014386225
300.011861467
300.010323442
300.009085571
300.007922867
300.006807054
300.005793829
300.005010531
300.004623866
300.004805897
300.005845226
300.008953654
300.015267624
300.050480849
300.05736445
300.088614939
300.08929625
300.029945592
300.023296111
300.018611196
300.015099639
300.012380011
300.010630012
300.009155569
300.0078355
300.006683549
300.005773194
300.005239826
300.005272407
300.006068447
300.008801201
300.013929717
300.028035051
300.044416785
300.064972793
300.103418409
300.103902224
300.033680559
300.025259254
300.019581127
300.015517212
300.01257929
300.010604862
300.00893147
300.007541099
300.006472565
300.005818166
300.005762659
300.006588881
300.009112689
300.015192248
300.026948994
300.040676341
300.050017225
300.076740168
300.12260784
300.124418894
300.037491608
300.026796789
300.02010788
300.015517829
300.012435942
300.010223691
300.008428982
300.007090637
300.006282288
300.006200353
300.007237919
300.010116801
300.017309086
300.036323595
300.04757135
300.05772775
300.070742032
300.095677316
300.143799904
300.146181939
300.04018763
300.027313013
300.019879437
300.015022712
300.011782153
300.009428896
300.007638216
300.006551803
300.006389322
300.007559477
300.010796952
300.020169242
300.042258331
300.057364458
300.073013819
300.084850135
300.096240266
300.120225321
300.171195613
300.172353757
300.04035377
300.026217666
300.018575961
300.013753101
300.010569236
300.008269103
300.006726216
300.006296379
300.007385665
300.0107257
300.021351778
300.042032338
300.063395075
300.084762164
300.102296891
300.114747951
300.128355676
300.152628198
300.206050487
300.205751587
300.03825834
300.023549729
300.016232108
300.01181733
300.008980256
300.006960887
300.006051137
300.006772355
300.009983681
300.019927142
300.039175732
300.061337179
300.088352768
300.11264569
300.133804998
300.15211044
300.169904877
300.194699642
300.249892562
300.24858794
300.034834607
300.020016632
300.013372649
300.009605699
300.007316148
300.005881321
300.006015078
300.008386142
300.01626683
300.031489181
300.052971215
300.080013936
300.111090555
300.143684608
300.17378085
300.200175118
300.224048589
300.249148931
300.300351787
300.299666665
300.030551434
300.016335839
300.010424946
300.007506963
300.00589296
300.005386331
300.006690787
300.011145198
300.020921845
300.037379088
300.059081572
300.088055011
300.126129156
300.171442492
300.216735669
300.257825312
300.29047034
300.317395918
300.360530157
300.360125486
300.025865159
300.012751177
300.00773243
300.005772516
300.004949221
300.005336756
300.007481397
300.012507249
300.021592314
300.035761875
300.054985719
300.08212696
300.120973119
300.173447406
300.236654468
300.304767028
300.361215499
300.393820171
300.429740015
300.429363073
300.021397405
300.009570622
300.005471977
300.00457047
300.004458675
300.005347442
300.007681225
300.011985481
300.018851758
300.029714942
300.044787982
300.065968065
300.096838342
300.140875631
300.205918702
300.300494685
300.40603597
300.4685795
300.504802653
300.50287717
300.018224555
300.007156223
300.004038644
300.003923352
300.004225183
300.005158863
300.007104826
300.010305477
300.015311191
300.022845149
300.033517008
300.04820067
300.069905233
300.100120307
300.14880632
300.241204762
300.391359364
300.525549526
300.582967403
300.572723344
300.016613974
300.005757918
300.00335842
300.003686831
300.004275672
300.005115803
300.006540786
300.008808907
300.012363435
300.017582197
300.024778688
300.03462946
300.049513379
300.070268802
300.105970254
300.185144882
300.359396298
300.569902773
300.664177562
300.648616105
300.016482405
300.005273162
300.00315931
300.003796524
300.004642203
300.005482366
300.006576766
300.008173046
300.010759374
300.014422234
300.019581567
300.026932849
300.038083879
300.055478407
300.086026441
300.156777023
300.3394117
300.623361389
300.754784404
300.736000039
300.017588666
300.005437406
300.003282832
300.00411817
300.005261285
300.006284943
300.007339184
300.008671543
300.010673902
300.013701299
300.017936668
300.024305604
300.03505852
300.053064318
300.086733137
300.156373573
300.336779962
300.701842217
300.872799091
300.842858519
300.019688426
300.006197221
300.003671323
300.004566146
300.006008203
300.007359734
300.008610345
300.010077603
300.012127157
300.015102525
300.01954036
300.027147044
300.040378366
300.063983524
300.106684589
300.185826629
300.368801473
300.810831399
301.010521295
300.970377797
300.02287945
300.007776122
300.004413993
300.005125731
300.006744001
300.008439719
300.010049373
300.011952903
300.014595315
300.018475929
300.024538488
300.034994403
300.054365105
300.088605725
300.146388839
300.244105297
300.472442188
300.936301869
301.163116572
301.11826762
300.027403781
300.010609204
300.005796649
300.005885731
300.007410736
300.009291878
300.01132009
300.013953144
300.017837734
300.023768792
300.033266043
300.049348016
300.077704179
300.126949562
300.204908171
300.329215213
300.632646752
301.095426762
301.324945674
301.282792706
300.033447124
300.014990872
300.00824294
300.00713401
300.008169529
300.009966746
300.012306512
300.016018243
300.022091992
300.031634416
300.046651361
300.070891908
300.111731477
300.179528743
300.283011688
300.443156614
300.836955586
301.286319618
301.48060714
301.443671008
300.040778229
300.020914196
300.011988331
300.009210038
300.009379181
300.01082826
300.013234454
300.018211545
300.027685407
300.042986211
300.066029706
300.10134445
300.158638678
300.253177987
300.389823228
300.609717499
301.098782222
301.491885199
301.63067221
301.589213656
300.048932863
300.027936055
300.016825565
300.012215926
300.011324839
300.012271789
300.014533919
300.020433505
300.034369363
300.0589556
300.095526736
300.151012857
300.239010661
300.375463498
300.590435997
300.947759798
301.442585991
301.65718846
301.767803714
301.722993888
300.057199882
300.03510718
300.022054406
300.015826322
300.013961755
300.014432891
300.016502125
300.022837193
300.040695483
300.079235802
300.147444404
300.249286085
300.398115049
300.638389758
300.97111437
301.346537211
301.646433352
301.786863943
301.880403665
301.835624061
300.065008326
300.041537182
300.026846033
300.019375836
300.016862686
300.017037576
300.018961207
300.025530204
300.046632746
300.102472258
300.217701269
300.4186005
300.651656799
300.870020586
301.15347947
301.494652668
301.767515753
301.91577242
302.000481882
301.979701508
300.072064583
300.047099967
300.031038282
300.022689653
300.019792377
300.019793931
300.021579505
300.028300105
300.052577401
300.123455513
300.290112521
300.533732081
300.737021069
300.930583831
301.208983846
301.573168908
301.877266206
302.043242218
302.131056309
302.153015968
300.078425538
300.052096729
300.034913432
300.025929065
300.022786032
300.022636167
300.024306718
300.031245583
300.058104669
300.134040817
300.31721868
300.574646188
300.773868281
300.947139571
301.251114809
301.653667099
301.973025743
302.154031441
302.26128117
302.345293012
300.08420605
300.056703522
300.038646143
300.029216909
300.025886143
300.025613933
300.027332003
300.03492303
300.064058275
300.139673031
300.323191974
300.562445621
300.745387046
300.90088286
301.259380781
301.716318931
302.051856582
302.26151576
302.398335759
302.55812373
300.089088001
300.060786423
300.042168531
300.032496167
300.029085046
300.028827866
300.030962211
300.040211377
300.073573293
300.183494206
300.327029122
300.532202288
300.681654536
300.728052155
301.148033215
301.728527148
302.150726852
302.435402394
302.623576291
302.87580612
300.092684016
300.064033106
300.045233877
300.035638977
300.032402687
300.032455188
300.035700298
300.04875232
300.090296288
300.218235714
300.333679898
300.495897161
300.607822672
300.507227876
300.978995123
301.83042526
302.564453998
303.125364961
303.467040867
303.807600612
300.094650911
300.066125793
300.047654216
300.038558537
300.035834704
300.036853112
300.04301887
300.063734847
300.137033868
300.229885559
300.328342686
300.454797634
300.536359749
300.399043176
301.008512079
302.706800347
304.893111204
306.762123667
308.159985757
308.366761193
300.094706636
300.066842651
300.049309026
300.041268794
300.039597944
300.043088586
300.055450278
300.086363061
300.155182413
300.23269935
300.31712054
300.4174358
300.479967628
300.479979563
301.667052309
305.831578603
315.667756806
326.735836741
333.171353878
328.246346485
)
;

boundaryField
{
    emptyPatch
    {
        type            empty;
    }
    minY
    {
        type            fixedValue;
        value           nonuniform List<scalar> 0();
    }
    maxY
    {
        type            inletOutlet;
        inletValue      uniform 373;
        value           nonuniform List<scalar> 
40
(
587.549517519
385.966588516
325.358821197
308.027145885
303.162986243
301.652845434
301.085205487
300.830711544
300.696983943
300.610207756
300.54353399
300.48668687
300.432079636
300.379108104
300.32953655
300.283950373
300.242632367
300.204520195
300.167652402
300.130220189
300.094706617
300.066842638
300.049309021
300.041268797
300.039597951
300.043088601
300.055450306
300.086363089
300.155182419
300.23269935
300.31712054
300.417435799
300.47996762
300.479978972
301.667045997
373
373
373
373
373
)
;
    }
    water_to_cooler
    {
        type            copiedFixedValue;
        sourceFieldName T.liquid;
        value           nonuniform List<scalar> 
38
(
300.001545553
300.001746099
300.002083374
300.002646937
300.003535151
300.004850127
300.006623654
300.008778542
300.011184729
300.013780489
300.016572499
300.019880928
300.024157794
300.029801915
300.037139982
300.046482829
300.058339728
300.073272475
300.091964217
300.115235375
300.144600404
300.181705238
300.229312021
300.290774222
300.370799568
300.475043105
300.607645727
300.772697914
300.977854404
301.236410087
301.56828982
301.987876674
302.497708796
303.075574601
303.675946486
304.253883677
304.815167986
305.352062603
)
;
    }
    water_to_heater
    {
        type            copiedFixedValue;
        sourceFieldName T.liquid;
        value           nonuniform List<scalar> 
59
(
789.963160329
789.898014644
789.898549996
789.803658652
789.797399004
789.689150048
789.645736168
789.569302181
789.455861551
789.451188675
789.414435292
789.448263852
789.447286376
789.480461856
789.480229345
789.508005821
789.507666478
789.553048718
789.552253816
789.614447175
789.611837944
789.667662613
789.676215403
789.710173478
789.706674695
789.725128655
789.720760633
789.839026713
789.882901
789.868831641
789.877052111
789.878692013
789.854747571
789.878432582
789.803868994
789.816261078
789.810191925
789.873430945
789.871374532
789.937410516
789.935569726
789.996329347
789.993106985
790.025102766
790.013882874
790.027452619
790.023900022
789.998780525
790.001839637
789.92666352
789.926596576
789.796380989
789.844969811
789.647512041
789.77268826
789.522032727
789.552719113
789.371576019
789.37820045
)
;
    }
    procBoundary0to1
    {
        type            processor;
        value           nonuniform List<scalar> 
41
(
584.985194454
383.220313604
321.909052384
305.695402753
301.997778064
301.149831816
300.870562222
300.721642879
300.621263708
300.541604567
300.471108908
300.405953493
300.34548001
300.290231463
300.240702678
300.196801999
300.157950636
300.12344818
300.092794738
300.0664762
300.01274841
300.008403712
300.005810874
300.004155129
300.00272147
300.002113711
300.002113144
300.001847898
300.001672428
300.001806446
300.002163115
300.002832637
300.004199238
300.004621822
300.004797892
300.004618794
300.046607819
300.031048808
300.020104254
300.012732177
300.012732177
)
;
    }
}


// ************************************************************************* //
