/*--------------------------------*- C++ -*----------------------------------*\
| =========                 |                                                 |
| \\      /  F ield         | OpenFOAM: The Open Source CFD Toolbox           |
|  \\    /   O peration     | Version:  2312                                  |
|   \\  /    A nd           | Website:  www.openfoam.com                      |
|    \\/     M anipulation  |                                                 |
\*---------------------------------------------------------------------------*/
FoamFile
{
    version     2.0;
    format      ascii;
    arch        "LSB;label=32;scalar=64";
    class       volScalarField;
    location    "0.64/water";
    object      alphat.gas;
}
// * * * * * * * * * * * * * * * * * * * * * * * * * * * * * * * * * * * * * //

dimensions      [1 -1 -1 0 0 0 0];

internalField   nonuniform List<scalar> 
1496
(
2.31391471624e-06
3.26356531047e-06
2.80060300292e-06
2.08567901902e-06
1.62864045308e-06
1.4238589878e-06
1.35328754025e-06
1.32623463583e-06
1.30128680733e-06
1.25449062909e-06
1.17891362052e-06
1.08890807181e-06
1.0090620971e-06
9.52666476892e-07
9.16670938255e-07
8.84768972841e-07
8.35253022827e-07
7.49499476591e-07
6.15875618205e-07
4.41570683675e-07
2.53725691621e-06
3.44499780796e-06
2.71846585071e-06
1.89294879889e-06
1.39250268378e-06
1.22583838641e-06
1.21760658488e-06
1.23346943974e-06
1.23008120537e-06
1.19618022362e-06
1.1352468602e-06
1.06327819244e-06
9.96803898817e-07
9.44167517639e-07
9.00438025584e-07
8.49244032645e-07
7.70773294593e-07
6.48561067251e-07
4.79521754046e-07
2.93638005304e-07
2.84159103444e-06
3.76091371077e-06
3.0130725354e-06
2.08987326833e-06
1.40571489874e-06
1.09923856979e-06
1.09231846367e-06
1.13708658694e-06
1.15448328204e-06
1.13570981565e-06
1.09025487568e-06
1.03317561968e-06
9.75844364865e-07
9.21557188165e-07
8.62040013977e-07
7.8100855803e-07
6.61672274418e-07
4.97369550492e-07
3.08662779213e-07
1.5563156323e-07
3.28637919814e-06
4.06722088981e-06
3.43775197928e-06
2.48462520431e-06
1.6542491131e-06
1.10183191079e-06
9.55941062877e-07
1.0166439298e-06
1.07315548695e-06
1.08042121192e-06
1.05102497285e-06
1.00266788896e-06
9.45244912033e-07
8.78077944482e-07
7.90467439205e-07
6.68223149488e-07
5.05078382505e-07
3.18471755766e-07
1.59477366337e-07
7.5073997946e-08
3.70682932033e-06
4.32229760598e-06
3.74886603627e-06
2.83263630345e-06
1.98289709276e-06
1.29150288769e-06
9.17233184002e-07
8.89652807065e-07
9.76069722145e-07
1.02123674619e-06
1.01088521575e-06
9.65549682709e-07
8.97133484686e-07
8.03910799459e-07
6.76718156586e-07
5.11981911505e-07
3.27467533975e-07
1.66790876572e-07
7.60095070343e-08
4.21208436368e-08
4.03263022259e-06
4.51211369099e-06
3.9946520956e-06
3.13390287126e-06
2.30171924913e-06
1.56346611455e-06
1.01793817918e-06
8.25659172484e-07
8.8168252609e-07
9.56583947664e-07
9.64643885169e-07
9.15548071301e-07
8.24594326566e-07
6.94583089209e-07
5.26926687566e-07
3.41331724949e-07
1.79533902021e-07
8.10557721484e-08
4.17031845683e-08
2.67708390206e-08
4.25512684509e-06
4.70118960098e-06
4.24466847221e-06
3.42930068247e-06
2.60221017838e-06
1.83666567868e-06
1.18763952537e-06
8.4005444578e-07
8.19271455087e-07
8.97680569536e-07
9.14444984512e-07
8.51596422211e-07
7.28295838106e-07
5.59771501943e-07
3.68990726463e-07
2.00793487048e-07
9.31352328198e-08
4.5078746012e-08
2.56162016696e-08
1.80080637793e-08
4.37477686172e-06
4.89009856694e-06
4.50795255602e-06
3.72445022863e-06
2.88338814575e-06
2.08009598238e-06
1.35945516715e-06
8.95349667322e-07
7.93370606549e-07
8.54362562576e-07
8.65332052358e-07
7.78277068524e-07
6.18436923259e-07
4.21797529001e-07
2.38232488717e-07
1.14787142338e-07
5.48515080875e-08
2.90561085735e-08
1.6872810844e-08
1.35386535323e-08
4.26942782235e-06
5.00546325352e-06
4.7273387052e-06
3.97532328839e-06
3.11419075959e-06
2.26779660187e-06
1.49154670163e-06
9.51514446217e-07
7.90324264329e-07
8.27293878131e-07
8.20518962611e-07
7.02888619399e-07
5.09628001308e-07
3.04831721253e-07
1.52944578374e-07
7.34121134579e-08
3.76783169677e-08
2.04460772036e-08
1.32786793441e-08
1.13279081293e-08
3.85339254423e-06
4.98846890381e-06
4.84348204475e-06
4.12359712069e-06
3.2469978716e-06
2.36643520605e-06
1.55543012152e-06
9.83600454074e-07
7.99446257575e-07
8.16287546566e-07
7.82664355417e-07
6.32251392625e-07
4.15478697433e-07
2.22447335724e-07
1.07701028348e-07
5.44446810271e-08
2.92782851404e-08
1.7478837678e-08
1.23382048993e-08
1.04529522035e-08
3.38002050158e-06
4.83581166669e-06
4.82611144438e-06
4.13615427432e-06
3.25329267573e-06
2.35945230413e-06
1.54425363385e-06
9.86829713669e-07
8.15991801898e-07
8.20318258344e-07
7.55441642438e-07
5.71956182724e-07
3.43675209636e-07
1.73799221411e-07
8.66288354659e-08
4.66568037525e-08
2.73040451511e-08
1.80907868149e-08
1.30948750105e-08
1.06533074442e-08
3.04530138035e-06
4.55630419862e-06
4.68173475343e-06
4.02286292817e-06
3.14340855636e-06
2.25677947242e-06
1.4694672117e-06
9.70465656728e-07
8.41098299983e-07
8.35008242052e-07
7.3493640192e-07
5.22005685829e-07
2.95189576836e-07
1.50330853534e-07
7.98526253451e-08
4.63088172373e-08
3.02706336946e-08
2.11883167921e-08
1.53035074329e-08
1.18369762636e-08
2.73684948377e-06
4.26916835775e-06
4.4468118356e-06
3.79935400462e-06
2.93302329675e-06
2.07698075702e-06
1.35267017113e-06
9.5223044784e-07
8.77567620685e-07
8.54048247388e-07
7.15683458111e-07
4.82036192796e-07
2.69238077889e-07
1.44452721913e-07
8.14747048094e-08
5.20976425402e-08
3.67383202372e-08
2.65330259017e-08
1.91201724708e-08
1.41303341645e-08
2.42792414541e-06
3.93475625773e-06
4.10789943908e-06
3.46792461219e-06
2.64079616573e-06
1.8468263371e-06
1.22758735011e-06
9.54105966928e-07
9.24199962435e-07
8.69222675801e-07
6.93909817904e-07
4.55426597204e-07
2.625714112e-07
1.4774866754e-07
8.99420212902e-08
6.2379063673e-08
4.59364165603e-08
3.40136892388e-08
2.47578695298e-08
1.77788160285e-08
2.11190822456e-06
3.47338691081e-06
3.64891697412e-06
3.05500716756e-06
2.3086122779e-06
1.61228150753e-06
1.13956625681e-06
9.89046440738e-07
9.70339217716e-07
8.72420413299e-07
6.73549497372e-07
4.44574116742e-07
2.65831022482e-07
1.57729434435e-07
1.04005561061e-07
7.58821094458e-08
5.73270611669e-08
4.32232820476e-08
3.18857897223e-08
2.27674959918e-08
1.80811945393e-06
2.89538336227e-06
3.11425027343e-06
2.63805617504e-06
2.00380336941e-06
1.43899956371e-06
1.11943466618e-06
1.04369740075e-06
9.99807195083e-07
8.66424971009e-07
6.59771217874e-07
4.43099882268e-07
2.74981050762e-07
1.74291659446e-07
1.22394654892e-07
9.19430630401e-08
7.04502578061e-08
5.35938478605e-08
3.97527512773e-08
2.81171040157e-08
1.65950842801e-06
2.51133108668e-06
2.71415843712e-06
2.33569074225e-06
1.80637816199e-06
1.36762028175e-06
1.15021961031e-06
1.08956190127e-06
1.01357151964e-06
8.58589684472e-07
6.53164659443e-07
4.47937785594e-07
2.911857496e-07
1.97270931286e-07
1.44294879134e-07
1.10216132752e-07
8.49822975037e-08
6.46806060975e-08
4.77093738097e-08
3.30001156497e-08
1.92694603116e-06
2.42295122547e-06
2.55482991394e-06
2.2095352141e-06
1.74922973468e-06
1.37501111695e-06
1.19345718555e-06
1.12282981538e-06
1.02197329552e-06
8.56019232255e-07
6.54283547447e-07
4.61672927405e-07
3.17289360825e-07
2.26245165143e-07
1.69615812754e-07
1.30657177027e-07
1.00805841844e-07
7.62919053935e-08
5.55239678345e-08
3.73175317121e-08
2.22761189262e-06
2.62385185149e-06
2.66939574198e-06
2.28801137716e-06
1.79269715233e-06
1.4113531711e-06
1.23705072022e-06
1.15459621066e-06
1.03597433616e-06
8.63262789847e-07
6.69002737144e-07
4.9125774929e-07
3.55005761828e-07
2.61963448181e-07
1.99095425307e-07
1.53720623967e-07
1.18124551443e-07
8.85168250566e-08
6.32814133862e-08
4.13583213963e-08
2.76973558486e-06
3.16120471165e-06
3.0403945755e-06
2.48102963414e-06
1.86779917721e-06
1.46492473503e-06
1.2977314798e-06
1.20071595768e-06
1.0649221184e-06
8.90875260351e-07
7.09097506918e-07
5.42963975819e-07
4.07495592711e-07
3.07163168282e-07
2.34855918733e-07
1.80748314918e-07
1.37652118396e-07
1.01696797585e-07
7.11998713262e-08
4.53804683271e-08
3.56207278601e-06
3.89273449188e-06
3.54294794877e-06
2.71557059207e-06
1.98385779086e-06
1.58307247003e-06
1.4122371023e-06
1.2844370111e-06
1.12967949164e-06
9.56719834001e-07
7.83750269929e-07
6.22199282078e-07
4.81029628219e-07
3.67520608085e-07
2.81252976932e-07
2.14694796641e-07
1.61068933059e-07
1.16551920922e-07
7.95765268162e-08
4.95446696867e-08
4.27475831459e-06
4.44410571437e-06
3.90800248341e-06
2.94898621823e-06
2.20146626894e-06
1.81793927498e-06
1.61621078666e-06
1.43746282882e-06
1.25330785369e-06
1.07024547346e-06
8.93835787805e-07
7.29154991788e-07
5.80177473952e-07
4.5078279473e-07
3.44837873378e-07
2.60492534322e-07
1.91615519883e-07
1.34677880746e-07
8.894695452e-08
5.40373698412e-08
3.80870160941e-06
4.44730001203e-06
4.05102810028e-06
3.22956852447e-06
2.51693448728e-06
2.11884604967e-06
1.87137997807e-06
1.64222897626e-06
1.42552233627e-06
1.22268262798e-06
1.03032255139e-06
8.53792884657e-07
6.96549831856e-07
5.56421274511e-07
4.31417106073e-07
3.23686916887e-07
2.33646891702e-07
1.58742655956e-07
1.00374865743e-07
5.92335655653e-08
3.18975721737e-06
4.37104609699e-06
4.17806118914e-06
3.45948544347e-06
2.79452965144e-06
2.38714544431e-06
2.11203402587e-06
1.84463228111e-06
1.59619715522e-06
1.37674417997e-06
1.16878976196e-06
9.77042279233e-07
8.11175738252e-07
6.66932921235e-07
5.33672387308e-07
4.06467236942e-07
2.90495627802e-07
1.91461947846e-07
1.15294151331e-07
6.57656545528e-08
2.99988642511e-06
4.3396968562e-06
4.26555513679e-06
3.59661320857e-06
2.9695995176e-06
2.57214117944e-06
2.2988829001e-06
2.02463280854e-06
1.74558938794e-06
1.50716455187e-06
1.2839819213e-06
1.07923345671e-06
9.06059290085e-07
7.62475136308e-07
6.30931173615e-07
4.97195106942e-07
3.60696413813e-07
2.34138175092e-07
1.34969860776e-07
7.4368164232e-08
2.91270554279e-06
4.30838686232e-06
4.30703700733e-06
3.66492965788e-06
3.06535571157e-06
2.68036964403e-06
2.41195259039e-06
2.14774371052e-06
1.86381875661e-06
1.60765407657e-06
1.36980678618e-06
1.15527831068e-06
9.757288207e-07
8.3379647386e-07
7.09264806327e-07
5.78632134477e-07
4.33323916971e-07
2.83984246136e-07
1.59738591663e-07
8.55099915271e-08
2.88487301949e-06
4.31719542564e-06
4.31700598363e-06
3.67348276339e-06
3.0910245124e-06
2.71546743302e-06
2.44779938155e-06
2.18948927158e-06
1.91850052609e-06
1.65683375185e-06
1.41983254619e-06
1.20617749929e-06
1.02485455351e-06
8.84135097106e-07
7.66637404929e-07
6.43227834334e-07
4.97197672683e-07
3.33891647535e-07
1.87762645194e-07
9.91754392664e-08
2.89628070223e-06
4.34816519603e-06
4.3009571371e-06
3.64144133358e-06
3.06369152418e-06
2.68539495732e-06
2.41120447774e-06
2.15668496478e-06
1.90070294399e-06
1.65491720278e-06
1.43179926679e-06
1.22988137078e-06
1.0558797354e-06
9.19432030711e-07
8.07714195925e-07
6.91255596402e-07
5.47605464746e-07
3.77515931307e-07
2.16107959015e-07
1.14924661449e-07
2.91960807626e-06
4.3919940784e-06
4.32730052703e-06
3.63651507707e-06
3.02431810445e-06
2.61231743946e-06
2.32511528316e-06
2.07290247707e-06
1.8358168622e-06
1.61693429473e-06
1.41628267025e-06
1.23161556203e-06
1.07083458924e-06
9.42915668036e-07
8.37149887524e-07
7.25509301119e-07
5.83871953225e-07
4.111998105e-07
2.42066756186e-07
1.32083875222e-07
2.89302070954e-06
4.44591315463e-06
4.41757492882e-06
3.69838939168e-06
3.01552754285e-06
2.53160551845e-06
2.21171307342e-06
1.95849709243e-06
1.74379341667e-06
1.55361807687e-06
1.37880504368e-06
1.21646551669e-06
1.07408055822e-06
9.58880010208e-07
8.60453201036e-07
7.5212896362e-07
6.10310329031e-07
4.35508060962e-07
2.63508092576e-07
1.4929728144e-07
2.83019450989e-06
4.37120783672e-06
4.43784261105e-06
3.78642496031e-06
3.0729438965e-06
2.50423465338e-06
2.11127737047e-06
1.8441443462e-06
1.64548351322e-06
1.47954433604e-06
1.33008194092e-06
1.19223007821e-06
1.07126594851e-06
9.71603165518e-07
8.81635558091e-07
7.75291340154e-07
6.31067767393e-07
4.54116810776e-07
2.82201356034e-07
1.67134197066e-07
2.99536578651e-06
4.16895173649e-06
4.2819434419e-06
3.79157952946e-06
3.14074344184e-06
2.53700662141e-06
2.08007635883e-06
1.77914004817e-06
1.5751087987e-06
1.41880274101e-06
1.28657361681e-06
1.16976599646e-06
1.06953840516e-06
9.85682073247e-07
9.03656264084e-07
7.97004595618e-07
6.48886123319e-07
4.70781507455e-07
3.01333270169e-07
1.87539065603e-07
3.21961776571e-06
3.93262919748e-06
4.0056036494e-06
3.65636952516e-06
3.12662757278e-06
2.56153636889e-06
2.09254553486e-06
1.76772455385e-06
1.54728882715e-06
1.38641149997e-06
1.26048852809e-06
1.15809327813e-06
1.07512130785e-06
1.00480599754e-06
9.27601655297e-07
8.17867595322e-07
6.66273216013e-07
4.89166997411e-07
3.24252940215e-07
2.1281940318e-07
3.1839742384e-06
3.6309070124e-06
3.63639695258e-06
3.40737345294e-06
3.01158796793e-06
2.53039489172e-06
2.09710880277e-06
1.77400835404e-06
1.54421094611e-06
1.37682453298e-06
1.2527275208e-06
1.16056878401e-06
1.09135817807e-06
1.03031583071e-06
9.53099440026e-07
8.38872752636e-07
6.85939700339e-07
5.12497193294e-07
3.53839983617e-07
2.45208926161e-07
3.01760653522e-06
3.34176311747e-06
3.27488043486e-06
3.11377628531e-06
2.82880776377e-06
2.44238569151e-06
2.06739501309e-06
1.76721615656e-06
1.54219461061e-06
1.37610268333e-06
1.25745099272e-06
1.17624990561e-06
1.11839634416e-06
1.06120099813e-06
9.80092471521e-07
8.61925409632e-07
7.10282941944e-07
5.4322160963e-07
3.92101938639e-07
2.86449442392e-07
2.87728482395e-06
3.10411842816e-06
2.9555990222e-06
2.81405161534e-06
2.61293732862e-06
2.31413987185e-06
2.00181124245e-06
1.73577717942e-06
1.52788152395e-06
1.37412256157e-06
1.26921523069e-06
1.20288428959e-06
1.1541644379e-06
1.09616709224e-06
1.0094796238e-06
8.88662149334e-07
7.40992665482e-07
5.82576131237e-07
4.39574009189e-07
3.37190141383e-07
2.81758244175e-06
2.93887789018e-06
2.71192633621e-06
2.55272849334e-06
2.40834155132e-06
2.18195233257e-06
1.92405967925e-06
1.69176299615e-06
1.50687681872e-06
1.3740825262e-06
1.28985937518e-06
1.23885943004e-06
1.19479463877e-06
1.13260021279e-06
1.0396366338e-06
9.17737645756e-07
7.76487805104e-07
6.279266742e-07
4.93481722732e-07
3.95313633676e-07
6.37798234756e-08
5.12232655754e-08
4.74167409441e-08
4.85005365143e-08
5.30910523175e-08
6.31160158126e-08
1.0602319812e-07
7.92043432434e-08
3.72434036907e-08
2.88885908819e-08
4.31197880871e-08
1.11396125373e-07
2.13524804072e-07
2.72530817994e-07
2.94471724824e-07
5.34973126471e-07
2.72947685384e-07
1.54612680721e-07
8.93851885704e-08
6.03225522911e-08
5.01363301412e-08
4.82607433646e-08
4.96933944357e-08
5.31458333638e-08
5.89429962861e-08
6.45885515169e-08
5.98040393495e-08
4.23957493867e-08
3.14284068138e-08
2.33893851941e-08
4.37554808228e-08
1.17716567558e-07
2.19635584549e-07
2.87221993959e-07
3.1386783217e-07
4.68750852533e-07
1.5433855768e-07
8.25172317916e-08
5.43236571173e-08
4.61049857017e-08
4.52004579998e-08
4.68515798321e-08
4.99808556576e-08
5.4027034813e-08
5.9172663323e-08
6.21138525051e-08
5.2491591536e-08
3.68856634687e-08
2.67726532129e-08
2.12370732151e-08
4.80435149037e-08
1.16681727119e-07
2.20760499209e-07
3.03060554899e-07
3.43541708378e-07
4.81776224571e-07
7.71744899307e-08
4.87253063108e-08
4.03021046636e-08
3.86354758649e-08
4.03556403462e-08
4.35018187709e-08
4.70721724862e-08
5.08284769022e-08
5.43775003715e-08
5.49228302602e-08
4.71236752066e-08
3.48051086231e-08
2.34977445836e-08
2.73475031335e-08
5.667782003e-08
1.2539396925e-07
2.2755829513e-07
3.17634604826e-07
3.78003393556e-07
5.28338333188e-07
4.45671095073e-08
3.43780569019e-08
3.15380050604e-08
3.30647006966e-08
3.612963531e-08
3.95352342377e-08
4.28717334412e-08
4.6004067439e-08
4.84034504385e-08
4.80620791985e-08
4.22910292549e-08
3.33633627304e-08
2.58660050412e-08
4.033246067e-08
7.21292231955e-08
1.42832537299e-07
2.36823184654e-07
3.26851473588e-07
4.09161183699e-07
6.08901206731e-07
2.97997244012e-08
2.54665332725e-08
2.62076872452e-08
2.90343165333e-08
3.21937426043e-08
3.51852091371e-08
3.79371705874e-08
4.04006511077e-08
4.21746420041e-08
4.18502542661e-08
3.82168110974e-08
3.37430630009e-08
3.50819240057e-08
5.25493780759e-08
8.80758001721e-08
1.59607788964e-07
2.42766964228e-07
3.27722712332e-07
4.31256228981e-07
7.26340276103e-07
2.10321289785e-08
2.04430425103e-08
2.23625931515e-08
2.51007530444e-08
2.78188365842e-08
3.02344224986e-08
3.23443403761e-08
3.41495088964e-08
3.5366914911e-08
3.47488620393e-08
3.33087648341e-08
3.39013850909e-08
4.31927974387e-08
6.28021926976e-08
1.03299584673e-07
1.74943110685e-07
2.45352900242e-07
3.19953737631e-07
4.40940857918e-07
9.47111980474e-07
1.62282204666e-08
1.69735526686e-08
1.87984684333e-08
2.10065588444e-08
2.30719586816e-08
2.47791724505e-08
2.61901146217e-08
2.74931636005e-08
2.74222725815e-08
2.46499517991e-08
2.57462185244e-08
3.28339085799e-08
5.03232325936e-08
7.47111303855e-08
1.22764794544e-07
1.92726250234e-07
2.47960680067e-07
3.07051572184e-07
4.38674727553e-07
1.59581213266e-06
1.32212531943e-08
1.4075906601e-08
1.54639016975e-08
1.7000157798e-08
1.83474525396e-08
1.93855174809e-08
2.0334843693e-08
2.16495453494e-08
1.91050332654e-08
1.75831285628e-08
2.26430426665e-08
3.92175260987e-08
6.25008696748e-08
9.40765844531e-08
1.51512933691e-07
2.12932801896e-07
2.52068921554e-07
2.90558056571e-07
4.25721402138e-07
3.40729425621e-06
1.11310728293e-08
1.16762819303e-08
1.2539923509e-08
1.34543670052e-08
1.42454185723e-08
1.50188928084e-08
1.62772897426e-08
1.82065783559e-08
1.0730114017e-08
1.51128968272e-08
2.54082966892e-08
4.43758804816e-08
7.08776123852e-08
1.20703143266e-07
1.83999081096e-07
2.3017183176e-07
2.5585051913e-07
2.72736928835e-07
3.98505920562e-07
4.29419295082e-06
9.88421415432e-09
9.9390084922e-09
1.02846677859e-08
1.07175881864e-08
1.12538964812e-08
1.22462838122e-08
1.41078179656e-08
1.43560691586e-08
9.0981109423e-09
1.32793537962e-08
2.81130761816e-08
4.64980063915e-08
7.86501566831e-08
1.45869537557e-07
2.08353175258e-07
2.42495784845e-07
2.53933942106e-07
2.58069889327e-07
3.73958887634e-07
4.09987454791e-06
9.50775310618e-09
9.03425251615e-09
8.89403699421e-09
8.94265254924e-09
9.42140298606e-09
1.0699046251e-08
1.15552342051e-08
6.75251327334e-09
9.68467852989e-09
1.19371353325e-08
2.90215783399e-08
4.60746944405e-08
9.12961823139e-08
1.69406675013e-07
2.25681682768e-07
2.50101452726e-07
2.47691467497e-07
2.50440147142e-07
3.60689811286e-07
3.9754163076e-06
9.89768262345e-09
8.82388332404e-09
8.19284563047e-09
7.83952771728e-09
7.88161216967e-09
7.1423035597e-09
5.74756338627e-09
8.81853606249e-09
1.00108160602e-08
1.08093776457e-08
2.78130956685e-08
4.68579176073e-08
1.09225113059e-07
1.91411378513e-07
2.38643326289e-07
2.52145738703e-07
2.42924641129e-07
2.50859856907e-07
3.59623732307e-07
3.80070878027e-06
1.10142142723e-08
9.06724499562e-09
7.59204817433e-09
6.08012325972e-09
4.3145408371e-09
3.36718847341e-09
7.05744557701e-09
1.00347387892e-08
1.01734320906e-08
1.02462534124e-08
2.55455112815e-08
5.29668152361e-08
1.23729687184e-07
2.0582308649e-07
2.44247036318e-07
2.48078188676e-07
2.40024129345e-07
2.57602311789e-07
3.61770653105e-07
2.72109547781e-06
1.3001673729e-08
9.64820686838e-09
6.38297656196e-09
3.51104722755e-09
2.56005770779e-09
4.55895636045e-09
8.30210691894e-09
1.04465680923e-08
1.01580142377e-08
9.54844266482e-09
2.43882564854e-08
4.34860653848e-08
1.24272174942e-07
2.17563285585e-07
2.41176846671e-07
2.4160673933e-07
2.38557612949e-07
2.66569160209e-07
3.67600076275e-07
1.73984822003e-06
1.57562223554e-08
9.90296856951e-09
4.57792189496e-09
2.09905159339e-09
2.24237989327e-09
4.96385154218e-09
8.63995370225e-09
1.02370733868e-08
9.70153953773e-09
8.07633614573e-09
1.89299968961e-08
3.63390371537e-08
1.20214896365e-07
2.18051841882e-07
2.3217413143e-07
2.3601839427e-07
2.38007978731e-07
2.73070331072e-07
3.75270750123e-07
1.20468433462e-06
1.81340331342e-08
9.39985044399e-09
3.50929535385e-09
1.83245661926e-09
2.2954803797e-09
4.84250239346e-09
8.25193527272e-09
9.31769669915e-09
8.52423306656e-09
7.12995855047e-09
1.29052360876e-08
3.27855841642e-08
1.15116197657e-07
2.11101116617e-07
2.21039443413e-07
2.31688926171e-07
2.38196934522e-07
2.77553709745e-07
3.84967463988e-07
1.03434169137e-06
1.97643055449e-08
9.05951139152e-09
3.49890926185e-09
2.14529307568e-09
2.46389186741e-09
4.36349393985e-09
7.17889575071e-09
7.69095792053e-09
6.97459624305e-09
9.28819141591e-09
1.5477445243e-08
3.58831645462e-08
1.15109702765e-07
2.03617435131e-07
2.10412999508e-07
2.27546170792e-07
2.3897330454e-07
2.82285360374e-07
4.00523827924e-07
1.13608451433e-06
2.12169465544e-08
9.606409035e-09
4.28461866319e-09
2.93714371845e-09
2.98624427329e-09
4.07455406522e-09
5.91262535532e-09
6.31230672185e-09
6.74281911079e-09
1.39608638807e-08
1.89584887515e-08
4.2596816214e-08
1.26363578682e-07
1.93660595605e-07
2.00651415627e-07
2.23366630359e-07
2.40849762798e-07
2.88999346603e-07
4.25403235348e-07
1.59560301937e-06
2.30609868415e-08
1.111698516e-08
5.63858740287e-09
4.11251628186e-09
3.92092849412e-09
4.34918545591e-09
5.10772507123e-09
5.67594491388e-09
8.00044865739e-09
1.60590899996e-08
2.28365447116e-08
5.29436163849e-08
1.33490954192e-07
1.872227056e-07
1.93303950837e-07
2.20768458191e-07
2.46560695621e-07
2.96802739222e-07
4.34946991105e-07
4.13584994073e-06
2.54112448023e-08
1.3420787726e-08
7.45584184722e-09
5.52510360323e-09
5.04309460553e-09
5.01571935849e-09
4.95398347906e-09
5.69533109913e-09
9.08028269997e-09
1.47237903688e-08
2.70845320508e-08
7.59451354358e-08
1.38800116167e-07
1.88433932188e-07
1.9131290237e-07
2.20128356499e-07
2.52905252421e-07
2.99671597967e-07
4.22448546686e-07
6.40477078939e-06
2.81576952604e-08
1.63384635139e-08
9.80641454581e-09
7.15939975964e-09
6.22291364962e-09
5.71580645896e-09
5.15458750183e-09
6.16060197443e-09
9.33920000618e-09
1.32266153511e-08
3.07688005456e-08
8.83589070873e-08
1.47311962936e-07
1.93685561837e-07
1.92900912778e-07
2.18792372553e-07
2.53542664151e-07
2.88750488376e-07
3.79734671266e-07
5.60959028077e-06
3.13148291473e-08
1.98240113702e-08
1.28774210115e-08
9.16833435949e-09
7.57044978255e-09
6.44015591805e-09
5.61650225489e-09
6.80167545839e-09
9.68816521513e-09
1.41885151253e-08
3.95955708857e-08
9.78892434706e-08
1.52180702534e-07
1.95597725092e-07
1.87602927835e-07
2.08896126907e-07
2.39661254451e-07
2.59976630878e-07
3.30052149548e-07
4.61306362876e-06
3.5147402438e-08
2.41137718593e-08
1.69819899343e-08
1.19349253023e-08
9.34631682485e-09
7.3165344524e-09
6.22022478565e-09
7.3728634274e-09
1.04994206826e-08
1.82092879496e-08
5.2045958743e-08
9.66131320478e-08
1.44776430408e-07
1.78043992596e-07
1.67003876091e-07
1.84243051888e-07
2.07993443507e-07
2.21292877852e-07
3.02283711188e-07
4.06553289887e-06
4.00671754025e-08
2.96834319466e-08
2.26134978612e-08
1.61217606454e-08
1.19176325702e-08
8.45425787435e-09
6.76686758415e-09
7.48747980316e-09
1.081259596e-08
2.19727522099e-08
4.81487712931e-08
8.1371881172e-08
1.20160552781e-07
1.4953462278e-07
1.39575250279e-07
1.54595718407e-07
1.70786672869e-07
1.93791821387e-07
4.05933002068e-07
3.78681318148e-06
4.64577324335e-08
3.69201468856e-08
3.03149971898e-08
2.24474891011e-08
1.57422386432e-08
1.01006655092e-08
7.35701793376e-09
7.21700192223e-09
1.06258031446e-08
1.97187849756e-08
3.60047333725e-08
5.60187842157e-08
8.39579819645e-08
1.13131708659e-07
1.41356610626e-07
1.35355020961e-07
1.38063691821e-07
1.81856106495e-07
6.47637721801e-07
3.33730036763e-06
5.45139703178e-08
4.57359908452e-08
3.99466636743e-08
3.09891547883e-08
2.07357470524e-08
1.2275284915e-08
8.25426250903e-09
7.39606934279e-09
9.75005016182e-09
1.61491238577e-08
2.47057589802e-08
3.30268238868e-08
5.25646634996e-08
7.85827649469e-08
9.53574579101e-08
1.1307495864e-07
1.15238702324e-07
1.57100796701e-07
3.5128176971e-07
2.8696458087e-06
6.42605111738e-08
5.56159838879e-08
5.02489635858e-08
4.00569736047e-08
2.52532567793e-08
1.40470192014e-08
9.10616893967e-09
7.34608229926e-09
8.07788889818e-09
1.26251476814e-08
1.94413872273e-08
2.5519106484e-08
3.30815711628e-08
4.69810983875e-08
6.60679831501e-08
8.18178277992e-08
8.77363900399e-08
9.92463692682e-08
2.18726528902e-07
2.066288715e-06
7.55956090523e-08
6.60552548156e-08
5.97969605498e-08
4.69742285386e-08
2.75055688157e-08
1.48517346751e-08
9.12072348737e-09
6.07947419099e-09
5.48743766904e-09
8.23784691069e-09
1.29977743863e-08
1.78694513367e-08
2.38040713032e-08
3.27553909482e-08
4.36259222683e-08
5.65776233436e-08
6.65075385836e-08
8.34769153399e-08
1.89617635165e-07
1.06070204646e-06
8.83604526649e-08
7.68944825581e-08
6.83422292056e-08
5.06283554401e-08
2.82881675719e-08
1.53403875954e-08
8.9937622018e-09
5.16723473769e-09
3.72282950275e-09
4.43824375119e-09
7.11894664391e-09
1.11357343225e-08
1.68459331577e-08
2.37038370355e-08
3.13116969563e-08
4.3984861619e-08
6.13650489859e-08
9.36561868444e-08
1.91890773061e-07
9.14698248121e-07
1.02323399659e-07
8.84776698778e-08
7.69593953506e-08
5.39165057381e-08
3.05249458641e-08
1.73567602694e-08
1.03826827906e-08
6.03341965212e-09
3.57575240017e-09
2.44445280628e-09
3.16085159071e-09
6.55193265708e-09
1.30723817863e-08
1.94665063358e-08
2.70462792058e-08
4.31167949169e-08
7.14910882769e-08
1.20898693688e-07
2.11613439754e-07
1.08397229839e-06
1.1802645313e-07
1.01713387307e-07
8.72435561483e-08
6.05166633497e-08
3.65656688913e-08
2.24327777854e-08
1.43855393425e-08
9.22717328109e-09
5.12748455485e-09
2.11244367625e-09
1.65536589374e-09
4.98374028204e-09
1.28854921525e-08
1.90324268847e-08
2.80412969991e-08
4.66304542581e-08
8.11032825503e-08
1.44359025811e-07
2.30888519737e-07
1.221441088e-06
1.36806401792e-07
1.18076748383e-07
1.01467690786e-07
7.32819991874e-08
4.84228572827e-08
3.10028750981e-08
2.04434863481e-08
1.40849700181e-08
7.99588016432e-09
2.7009925931e-09
1.41837111409e-09
4.43782749869e-09
1.26016763712e-08
1.83604032135e-08
2.79740593285e-08
4.74223733063e-08
8.5793805012e-08
1.54358011534e-07
2.37974237476e-07
1.20977793555e-06
1.60488590642e-07
1.39608325613e-07
1.22610163455e-07
9.52292936783e-08
6.72145532682e-08
4.21803754441e-08
2.72776405905e-08
1.92753379621e-08
1.14260824264e-08
4.65502070341e-09
1.73110525978e-09
2.6009098426e-09
1.09164562151e-08
1.61690375066e-08
2.52235221843e-08
4.52656185028e-08
9.12460827085e-08
1.52977825509e-07
2.31976470245e-07
1.19274210561e-06
1.91241298195e-07
1.68728758255e-07
1.52927512647e-07
1.28859870977e-07
9.35272175392e-08
5.49362597296e-08
3.41988815262e-08
2.39207027994e-08
1.42406229804e-08
7.90472711674e-09
5.29750949201e-09
2.26936178572e-09
8.08291666615e-09
1.28308567588e-08
2.02248989596e-08
3.71365101779e-08
8.31572091035e-08
1.29234193096e-07
2.14397951549e-07
1.1792874315e-06
2.31140940647e-07
2.07641619201e-07
1.93734071517e-07
1.72240149219e-07
1.25634774384e-07
6.87945390524e-08
4.0265301758e-08
2.71840242816e-08
1.59202613495e-08
9.86156085813e-09
8.54615913941e-09
4.24983007059e-09
6.49236912738e-09
9.98781439483e-09
1.31598371192e-08
1.64967801581e-08
3.76233030498e-08
7.90061207063e-08
2.33373905761e-07
1.17876710791e-06
2.81217674552e-07
2.56861081837e-07
2.43246674593e-07
2.18250154986e-07
1.5534505218e-07
8.10210410451e-08
4.44802232698e-08
2.81525703989e-08
1.62991009047e-08
1.09757972002e-08
9.66951083821e-09
7.22685764767e-09
6.1356132992e-09
8.60763103206e-09
8.68598000733e-09
6.8973700624e-09
1.41083490625e-08
4.4092851032e-08
1.32710956411e-07
5.87107361367e-07
3.39349886731e-07
3.12823469634e-07
2.94479429114e-07
2.56971925376e-07
1.74812146924e-07
8.80827558113e-08
4.67211519388e-08
2.76575891348e-08
1.57332129068e-08
1.10727677747e-08
1.02721543339e-08
8.81127694283e-09
6.54982050946e-09
7.95553007467e-09
6.56758335848e-09
5.60796547164e-09
1.36723517872e-08
4.22064014807e-08
1.30738847697e-07
3.41647597227e-07
)
;

boundaryField
{
    emptyPatch
    {
        type            empty;
    }
    minY
    {
        type            zeroGradient;
    }
    maxY
    {
        type            calculated;
        value           nonuniform List<scalar> 
40
(
2.8174358781e-06
2.9388804039e-06
2.71183324288e-06
2.55263178368e-06
2.40824937028e-06
2.18186458401e-06
1.92397226759e-06
1.69166802358e-06
1.50677055933e-06
1.37396578008e-06
1.28973382347e-06
1.23873332581e-06
1.19467709871e-06
1.13248527783e-06
1.0395277599e-06
9.17643007702e-07
7.76411750369e-07
6.27869938341e-07
4.93439269358e-07
3.9527957513e-07
3.39320930717e-07
3.12797683903e-07
2.94456169931e-07
2.56952044442e-07
1.74800317719e-07
8.80794720659e-08
4.67197990632e-08
2.76562493983e-08
1.57321618334e-08
1.10718234427e-08
1.02711414504e-08
8.81041377786e-09
6.54928033221e-09
7.95501421502e-09
6.567152464e-09
5.60758844214e-09
1.36714616587e-08
4.2203910906e-08
1.30723648372e-07
2.86034236134e-09
)
;
    }
    water_to_cooler
    {
        type            compressible::alphatWallBoilingWallFunction;
        phaseType       vapor;
        relax           constant 1;
        partitioningModel
        {
            type            Lavieville;
            alphaCrit       0.2;
        }
        otherPhase      liquid;
        dmdt            uniform 0;
        dDep            uniform 1e-05;
        qQuenching      uniform 0;
        alphatConv      uniform 0;
        value           nonuniform List<scalar> 
38
(
2.82233250884e-11
2.20959247918e-11
2.03101275708e-11
1.96089306611e-11
2.06678465452e-11
2.37919851351e-11
3.08239317651e-11
5.43093317277e-11
2.31153395471e-10
4.27509272122e-09
4.71859799473e-09
4.70555120926e-09
1.22657985307e-09
1.5638986376e-10
6.41101470151e-11
3.74804554201e-11
2.80865783466e-11
2.72674588331e-11
3.38949738919e-11
1.10859496099e-10
1.52756987756e-09
4.85930411371e-09
4.86704233204e-09
4.86306684486e-09
4.87125524725e-09
4.86581981557e-09
4.87071161792e-09
2.6847592948e-10
6.57438910935e-11
5.25656806174e-11
6.36055853038e-11
7.44001186603e-11
7.44104491554e-11
7.44023150797e-11
7.44128168247e-11
7.44041486632e-11
3.30012134397e-11
1.65102324869e-11
)
;
    }
    water_to_heater
    {
        type            compressible::alphatWallBoilingWallFunction;
        phaseType       vapor;