/*--------------------------------*- C++ -*----------------------------------*\
| =========                 |                                                 |
| \\      /  F ield         | OpenFOAM: The Open Source CFD Toolbox           |
|  \\    /   O peration     | Version:  2312                                  |
|   \\  /    A nd           | Website:  www.openfoam.com                      |
|    \\/     M anipulation  |                                                 |
\*---------------------------------------------------------------------------*/
FoamFile
{
    version     2.0;
    format      ascii;
    arch        "LSB;label=32;scalar=64";
    class       volVectorField;
    location    "0.64/water";
    object      U.gas;
}
// * * * * * * * * * * * * * * * * * * * * * * * * * * * * * * * * * * * * * //

dimensions      [0 1 -1 0 0 0 0];

internalField   nonuniform List<vector> 
1496
(
(0.00637968089945 0.907802443944 0)
(-0.000996546741019 1.24328927295 0)
(-0.0208566255169 1.24830640035 0)
(-0.0223277390772 1.2140363878 0)
(-0.00535192044186 1.20348939393 0)
(0.018791887998 1.2301585636 0)
(0.0399897642761 1.25016035093 0)
(0.0575330787843 1.25076790815 0)
(0.0739513805996 1.23553405585 0)
(0.0911610224824 1.20204994135 0)
(0.111738268112 1.13549388998 0)
(0.136889872077 1.02861910901 0)
(0.156584554551 0.918386874336 0)
(0.167596867705 0.83373615526 0)
(0.177397952691 0.76556032501 0)
(0.188157422177 0.710333392597 0)
(0.200644426702 0.667418101225 0)
(0.214020465568 0.637771013326 0)
(0.225847328996 0.616507543949 0)
(0.235299943685 0.599963413194 0)
(-0.0142747346164 1.20575620697 0)
(-0.0585939510234 1.50813096403 0)
(-0.115667185614 1.43379623981 0)
(-0.127334246281 1.13689962263 0)
(-0.0941091426879 1.08920465698 0)
(-0.0577426414049 1.12547199424 0)
(-0.0213257272767 1.16293513015 0)
(0.0144539408609 1.17139640358 0)
(0.050707164827 1.15704352363 0)
(0.0880892003266 1.12212774767 0)
(0.123946844932 1.05710958939 0)
(0.151343003425 0.969176202088 0)
(0.170671344449 0.892197808574 0)
(0.187186140432 0.820011614895 0)
(0.202789154006 0.757531465786 0)
(0.219532808316 0.705498994246 0)
(0.238059427845 0.6644169568 0)
(0.256861903955 0.633318943685 0)
(0.273736985439 0.607907513282 0)
(0.289469055616 0.58713790248 0)
(-0.00115511275145 1.58402448661 0)
(-0.0306814827351 1.86559445131 0)
(-0.0649473664365 1.62047313342 0)
(-0.070250545086 1.06586857642 0)
(-0.0611327313373 0.986262509292 0)
(-0.0388846431781 1.01865219074 0)
(-0.0085178627555 1.05828421341 0)
(0.0255377546941 1.06903764923 0)
(0.0599510993199 1.05854974726 0)
(0.0929116081678 1.02953918544 0)
(0.122993356693 0.98243361068 0)
(0.149571069848 0.925116935006 0)
(0.173008298199 0.863479839076 0)
(0.19436826116 0.803234558175 0)
(0.215377439899 0.748389615679 0)
(0.237119519896 0.701250074574 0)
(0.25913405938 0.662034200053 0)
(0.280097095266 0.628810507101 0)
(0.300329188521 0.599499201802 0)
(0.324450218911 0.577609226065 0)
(0.0138283010114 1.87703814037 0)
(0.0131599905878 2.13226782638 0)
(-0.00376582196114 1.67742975971 0)
(-0.0155352211077 1.09723753366 0)
(-0.0236113609231 0.940806026916 0)
(-0.0126409350873 0.941031555325 0)
(0.0109824097289 0.970604471301 0)
(0.0397691996414 0.982883063816 0)
(0.0694612058725 0.979137366034 0)
(0.0986213129589 0.960209673595 0)
(0.126387866545 0.927026896724 0)
(0.152235631854 0.883580169778 0)
(0.176387382092 0.8350219681 0)
(0.199535352099 0.785051995416 0)
(0.222184299524 0.737447080489 0)
(0.244300772555 0.694420910638 0)
(0.266042176372 0.655978844735 0)
(0.288747571025 0.621344426052 0)
(0.317317684929 0.592174184961 0)
(0.357388668272 0.579154509649 0)
(0.0253575926961 2.08527946474 0)
(0.0502349573538 2.22807388572 0)
(0.0469736620557 1.71554685882 0)
(0.0342020258863 1.1823128354 0)
(0.0199657899526 0.944327999208 0)
(0.01985223503 0.890528609176 0)
(0.0341227417437 0.901817336078 0)
(0.0566166000145 0.91430784734 0)
(0.0818820362166 0.915429806676 0)
(0.107648569206 0.903781528198 0)
(0.132941663165 0.880205565977 0)
(0.157184002591 0.847173269189 0)
(0.180085520867 0.807914664921 0)
(0.201536444275 0.765499692257 0)
(0.221767531325 0.723042272768 0)
(0.241950151463 0.682723638509 0)
(0.26502195485 0.645581425154 0)
(0.295534637716 0.612493246969 0)
(0.340634620014 0.590838816489 0)
(0.341480801517 0.579479500169 0)
(0.0441468146492 2.15186417399 0)
(0.0886541868955 2.22020078773 0)
(0.0866285782778 1.75605971137 0)
(0.0769368866952 1.27094962206 0)
(0.0639910348304 0.984550384569 0)
(0.0578390550681 0.874179433915 0)
(0.062984067161 0.857105152005 0)
(0.0779056024575 0.864172735772 0)
(0.0978328092455 0.867029001783 0)
(0.119540219185 0.859706357772 0)
(0.141348541448 0.842031366488 0)
(0.162008687973 0.815454738579 0)
(0.180811070426 0.782197123428 0)
(0.198019800534 0.744747267393 0)
(0.215275836994 0.70603080235 0)
(0.236558633935 0.668707612208 0)
(0.266158399968 0.634353459017 0)
(0.311923700902 0.60813537869 0)
(0.324049046049 0.58450949131 0)
(0.233128793005 0.584644860799 0)
(0.0543236401058 2.06533225655 0)
(0.109342085203 2.19168449181 0)
(0.110345621958 1.78556835133 0)
(0.107219250486 1.34001931575 0)
(0.100007083207 1.03565135918 0)
(0.094028216417 0.884809999075 0)
(0.0936550784328 0.837905347662 0)
(0.101664255805 0.83397632882 0)
(0.116122023254 0.834727365528 0)
(0.133251562279 0.828537247754 0)
(0.150268051242 0.813414830683 0)
(0.165418669688 0.789980526905 0)
(0.17876923088 0.760081015914 0)
(0.192056577164 0.726072098304 0)
(0.209236478216 0.690957067933 0)
(0.235104142515 0.657368833122 0)
(0.276500849004 0.628383922499 0)
(0.30334367825 0.605411786834 0)
(0.242089361553 0.563332167936 0)
(0.12486790337 0.637871501668 0)
(0.0569994716557 1.90880983477 0)
(0.114373962226 2.15706367547 0)
(0.119304352665 1.78856650642 0)
(0.124721114708 1.37835698213 0)
(0.124973035079 1.07713215279 0)
(0.123290512351 0.906988635901 0)
(0.122286335531 0.838170780347 0)
(0.125707674823 0.820651707734 0)
(0.134604436625 0.816029204524 0)
(0.146078553629 0.808643857795 0)
(0.156936696755 0.794232920664 0)
(0.166126787478 0.772340130036 0)
(0.175263360713 0.744702072447 0)
(0.187569723778 0.713809813389 0)
(0.20778301993 0.682771353234 0)
(0.241061896025 0.654159125878 0)
(0.276681182357 0.630030129245 0)
(0.242368205664 0.593102812349 0)
(0.139490875264 0.570402401434 0)
(0.0816810505969 0.677198079209 0)
(0.0476323792591 1.7715264441 0)
(0.100524644068 2.10119609703 0)
(0.115612328597 1.75500921318 0)
(0.130567291938 1.38109765348 0)
(0.138343206428 1.09852838843 0)
(0.141775645489 0.927598524551 0)
(0.142271615831 0.848557317121 0)
(0.143293227114 0.819913389773 0)
(0.147903283866 0.8088036361 0)
(0.154700518315 0.798669876037 0)
(0.160662812218 0.784131520201 0)
(0.165964536331 0.763634811944 0)
(0.17371111507 0.738268425402 0)
(0.188130502886 0.710814397696 0)
(0.213187395915 0.684708182632 0)
(0.245679935347 0.661132846559 0)
(0.234775602908 0.627973999266 0)
(0.160714495339 0.580680645196 0)
(0.0993776205221 0.591975567994 0)
(0.0895159736965 0.660193210009 0)
(0.0325095130617 1.70032251416 0)
(0.0773087260949 2.00033734756 0)
(0.104083114091 1.68246445826 0)
(0.127353807819 1.35051196366 0)
(0.141543482847 1.09828462111 0)
(0.14925864118 0.940700431015 0)
(0.151306793094 0.861768727139 0)
(0.151113095593 0.82764446904 0)
(0.152995698806 0.81194908478 0)
(0.157836553017 0.799413657072 0)
(0.163159959229 0.784392066565 0)
(0.168169470955 0.765021663729 0)
(0.176850786834 0.741916701453 0)
(0.194340623116 0.717953161921 0)
(0.219181625899 0.696439097849 0)
(0.217436347293 0.668373174962 0)
(0.163765049423 0.623175521288 0)
(0.101615853252 0.587192354232 0)
(0.0718120352463 0.599329167844 0)
(0.0700640199818 0.642485078375 0)
(0.0226693440057 1.64107163129 0)
(0.0650146253461 1.84852862579 0)
(0.100541931955 1.58463201958 0)
(0.126618296728 1.29958126725 0)
(0.143385117322 1.08426907934 0)
(0.152785897726 0.9486260948 0)
(0.155366102428 0.876478480211 0)
(0.154840392257 0.841885225234 0)
(0.155972967911 0.824188191838 0)
(0.159652499091 0.810472600038 0)
(0.164365410502 0.795202488048 0)
(0.170115698229 0.77653636657 0)
(0.180103064813 0.755122604322 0)
(0.197641259895 0.734888447481 0)
(0.199186137069 0.713352316589 0)
(0.156926591026 0.676339658187 0)
(0.0993146325234 0.636805097858 0)
(0.0624327687453 0.613091596655 0)
(0.0461011734052 0.615813709752 0)
(0.0447810559882 0.636614327753 0)
(0.0231161664535 1.51924372569 0)
(0.0638788557633 1.69005548869 0)
(0.098265725441 1.47803995808 0)
(0.126361477313 1.24210743819 0)
(0.144747936483 1.06688957782 0)
(0.154559370775 0.956537459973 0)
(0.156898041135 0.894376569219 0)
(0.156273994805 0.862339229745 0)
(0.157382509835 0.844285654862 0)
(0.16044400686 0.829919671969 0)
(0.164029399808 0.814616037355 0)
(0.168781441528 0.796776214623 0)
(0.179023453967 0.777688270599 0)
(0.184133670093 0.761052781511 0)
(0.152329950648 0.735303421651 0)
(0.0962650123017 0.703080897197 0)
(0.0559730829551 0.674415338339 0)
(0.0340536421302 0.649694950477 0)
(0.0221681223661 0.638314168755 0)
(0.0207274389304 0.637675436414 0)
(0.0184618917771 1.36391574333 0)
(0.0581128810059 1.55300259126 0)
(0.0963951827005 1.37301340841 0)
(0.125887002633 1.18733138435 0)
(0.14529380932 1.05357097544 0)
(0.154236965855 0.967326379533 0)
(0.155460706459 0.916233632242 0)
(0.155017183032 0.888231977653 0)
(0.156695666298 0.870863822233 0)
(0.159432508623 0.856270657216 0)
(0.162093714173 0.841003602874 0)
(0.166181187099 0.824249106618 0)
(0.171309817487 0.808854415372 0)
(0.15172440286 0.79262915232 0)
(0.100060228605 0.770646715403 0)
(0.0543318633586 0.751052234024 0)
(0.0281785358597 0.723745928036 0)
(0.011396332095 0.690145312655 0)
(0.00186802139716 0.662969856864 0)
(0.00203303767307 0.644174452444 0)
(0.0140035478382 1.23922328698 0)
(0.0527086663143 1.41924973811 0)
(0.0945470334888 1.27914891656 0)
(0.124653125856 1.14479325204 0)
(0.143444680531 1.04783150764 0)
(0.149796163278 0.981992334735 0)
(0.150156202394 0.941792760771 0)
(0.151402775969 0.918297952065 0)
(0.154348879422 0.901889896218 0)
(0.15687695833 0.887113237585 0)
(0.158709003545 0.87192703712 0)
(0.161250618606 0.856843780894 0)
(0.15089312806 0.843680879008 0)
(0.109563026399 0.827812003445 0)
(0.0600030042441 0.819202321496 0)
(0.0279570940659 0.805847663839 0)
(0.00791666436435 0.773746349626 0)
(-0.00594247875751 0.730236058333 0)
(-0.0127481874949 0.688253089964 0)
(-0.00948367939132 0.654920193895 0)
(0.0135128362798 1.12693149052 0)
(0.0528659907965 1.29578416333 0)
(0.0948345194484 1.20703885664 0)
(0.122658480625 1.11836855169 0)
(0.137188071414 1.04958508285 0)
(0.14058226346 1.00116147431 0)
(0.143082606387 0.971002746238 0)
(0.147387118513 0.951281246419 0)
(0.151192583005 0.935251239815 0)
(0.153080439709 0.920021194042 0)
(0.153472130041 0.90506466129 0)
(0.147390874129 0.891776114794 0)
(0.11678568285 0.87710846214 0)
(0.0679143289921 0.869462045724 0)
(0.0306186993663 0.871210379936 0)
(0.00798562380779 0.857443015372 0)
(-0.0090410165937 0.820546901538 0)
(-0.0211395250384 0.768548166418 0)
(-0.0261288016314 0.713736062454 0)
(-0.0219474994762 0.667355770363 0)
(0.0194443335318 0.964806346932 0)
(0.0650137367054 1.2066576847 0)
(0.102747064826 1.16772171165 0)
(0.120760675634 1.11065415011 0)
(0.128415533916 1.06283637565 0)
(0.132649938378 1.0289309755 0)
(0.139149991543 1.00604189465 0)
(0.144908342062 0.987775116429 0)
(0.147613301386 0.9709343001 0)
(0.147223982286 0.954870739134 0)
(0.142455475536 0.940300686157 0)
(0.119366517994 0.925731721692 0)
(0.0744793581781 0.911342737205 0)
(0.0327281914877 0.91634689979 0)
(0.00653313377604 0.920973805656 0)
(-0.0120360833033 0.904878414169 0)
(-0.0276769121828 0.865211004947 0)
(-0.0397588021111 0.806717668114 0)
(-0.0455221946894 0.740587687147 0)
(-0.0444146256578 0.682032719105 0)
(0.019756216301 0.820219691058 0)
(0.0708285278117 1.17880620128 0)
(0.104488414752 1.1674229914 0)
(0.111291072454 1.12861154019 0)
(0.119480434595 1.09519625445 0)
(0.128189362115 1.07048182161 0)
(0.13666772975 1.04991840406 0)
(0.140972481468 1.0300542462 0)
(0.140305634307 1.01098289251 0)
(0.135057057653 0.99361484036 0)
(0.116408921672 0.977678997292 0)
(0.0766310612594 0.958569071195 0)
(0.0325256401244 0.951362616252 0)
(0.00217777678422 0.963306126714 0)
(-0.0175948272327 0.966739817404 0)
(-0.0342829803355 0.949597806124 0)
(-0.0500146045297 0.909604369594 0)
(-0.0637670267676 0.846939537701 0)
(-0.0726613467778 0.771105760571 0)
(-0.0772202602323 0.702581068727 0)
(0.00681565206764 0.929205761307 0)
(0.0521890437525 1.21178196425 0)
(0.0905366200327 1.20630107832 0)
(0.0984092906452 1.17591472056 0)
(0.112719405072 1.15035842175 0)
(0.12404191954 1.1286309085 0)
(0.130649330737 1.10548800156 0)
(0.130058498442 1.08113041479 0)
(0.122755244726 1.05851980263 0)
(0.1051755006 1.03820375738 0)
(0.0698450343363 1.01710914781 0)
(0.026159402572 0.996131532585 0)
(-0.00724926045152 0.994933014848 0)
(-0.028586087088 1.00597915193 0)
(-0.0448988799087 1.00782674846 0)
(-0.0602440032576 0.991517186146 0)
(-0.0757839344067 0.953170917306 0)
(-0.0909475164602 0.888920097927 0)
(-0.10339555892 0.8056106568 0)
(-0.11392668767 0.730223188791 0)
(0.00223568402977 1.27521556148 0)
(0.0518547467438 1.32658666813 0)
(0.0988668606245 1.30666305267 0)
(0.104872205468 1.2719944575 0)
(0.114613302694 1.24525744554 0)
(0.118257454012 1.21744261839 0)
(0.114395708336 1.18365047375 0)
(0.101942367779 1.14937521537 0)
(0.0795010910182 1.11876736047 0)
(0.0447287208947 1.09034050873 0)
(0.00412566823581 1.06257744884 0)
(-0.0293111576358 1.04099621933 0)
(-0.0515532160703 1.03650238305 0)
(-0.0666510775746 1.04167827924 0)
(-0.0790041682787 1.04188019607 0)
(-0.0913144013709 1.02740795984 0)
(-0.104339171315 0.992130610017 0)
(-0.118181985201 0.929039442205 0)
(-0.131841383857 0.841226294941 0)
(-0.145913952361 0.762120738702 0)
(0.0140816652366 1.68603475492 0)
(0.0661211995858 1.56880538434 0)
(0.0955138081349 1.50097318243 0)
(0.0832276830129 1.44495268196 0)
(0.0746142384948 1.40201715206 0)
(0.0619673064717 1.34933778973 0)
(0.0421280089887 1.28789593823 0)
(0.0136415221057 1.23114717154 0)
(-0.0205406258245 1.1846657511 0)
(-0.0538871343976 1.14525106509 0)
(-0.0808965484276 1.11178653868 0)
(-0.100215941854 1.08591038001 0)
(-0.112460816659 1.07162139613 0)
(-0.119233277728 1.06670116682 0)
(-0.12377021283 1.06285717877 0)
(-0.128657682562 1.05005187493 0)
(-0.13483565901 1.01897972972 0)
(-0.143157945077 0.960271918878 0)
(-0.154143972662 0.872386844235 0)
(-0.167623135145 0.792429484206 0)
(0.0444483330209 2.0462367504 0)
(0.0801440617307 1.8804400889 0)
(0.0396666331683 1.75008103605 0)
(-0.0152767526301 1.65527405951 0)
(-0.0560781486714 1.57825173126 0)
(-0.089532640651 1.48544093425 0)
(-0.119941252527 1.38222482297 0)
(-0.146285816361 1.29328276098 0)
(-0.166537811312 1.22834961877 0)
(-0.180480406472 1.18044179529 0)
(-0.189385224165 1.14260201873 0)
(-0.193971008778 1.11247812969 0)
(-0.19309003118 1.09028435161 0)
(-0.186469215465 1.0751622246 0)
(-0.177410501982 1.06441097548 0)
(-0.169656272724 1.05132416716 0)
(-0.164394066 1.02519426967 0)
(-0.163055228241 0.974273826814 0)
(-0.167566874005 0.892429143181 0)
(-0.176684592996 0.814740309534 0)
(0.066116583151 2.13700500788 0)
(0.0724995767995 2.15211447495 0)
(-0.0261886713203 1.95932333402 0)
(-0.0994645852435 1.81479470658 0)
(-0.162635413465 1.70051433977 0)
(-0.215873823547 1.57531920017 0)
(-0.257967791392 1.43510107825 0)
(-0.285095654463 1.31182895876 0)
(-0.296503256664 1.22438612174 0)
(-0.296306076007 1.16833100708 0)
(-0.290031902661 1.12973089199 0)
(-0.280824606936 1.10065357777 0)
(-0.268509267282 1.07841628217 0)
(-0.250131073689 1.06072443901 0)
(-0.226558207332 1.04578206838 0)
(-0.204056352893 1.03077808187 0)
(-0.186147506068 1.00851415513 0)
(-0.173575499886 0.967250077642 0)
(-0.169376747583 0.897392825968 0)
(-0.172293213239 0.825492947444 0)
(0.0539320398856 1.90005707603 0)
(0.0834243890387 2.25538485908 0)
(0.0296455577429 2.1071533839 0)
(-0.0340341447152 1.95182101875 0)
(-0.102349568155 1.81506323867 0)
(-0.168525055695 1.66270958425 0)
(-0.228431350794 1.4797186941 0)
(-0.277184600314 1.31216880856 0)
(-0.30916477247 1.18927482431 0)
(-0.322031241753 1.11851821991 0)
(-0.320774717118 1.07887447703 0)
(-0.311284688657 1.05300767049 0)
(-0.296982650541 1.03569013637 0)
(-0.278103545348 1.02264396816 0)
(-0.251736717425 1.01037251173 0)
(-0.220304713424 0.996327496921 0)
(-0.192026225483 0.97675457763 0)
(-0.170544587143 0.944195885693 0)
(-0.158362606704 0.888848613342 0)
(-0.154809694204 0.825551985551 0)
(0.0186904592879 1.63304539297 0)
(0.0389662728278 2.20330874945 0)
(0.0360600509282 2.1691594539 0)
(0.0243583332433 2.04206058514 0)
(0.00428205935499 1.92134987548 0)
(-0.0310224787303 1.78741762619 0)
(-0.0882851869238 1.61211361133 0)
(-0.157262390626 1.39197719363 0)
(-0.211464531998 1.18175951639 0)
(-0.242270160322 1.07275518234 0)
(-0.258372123003 1.02380588534 0)
(-0.264999002018 0.995594596156 0)
(-0.263504675929 0.979272541229 0)
(-0.254261767023 0.970719139933 0)
(-0.237126281758 0.964201989104 0)
(-0.210602671224 0.955050027906 0)
(-0.17957905152 0.93988250705 0)
(-0.152999249919 0.914382863986 0)
(-0.135344110929 0.872083624715 0)
(-0.126055847722 0.818183914397 0)
(0.0119129740356 1.50493864148 0)
(0.0274371660735 2.13525692359 0)
(0.0312459593175 2.15813625759 0)
(0.0308810775621 2.0534116807 0)
(0.0277082897262 1.96600094781 0)
(0.0186137800147 1.88205885038 0)
(-0.000435211462806 1.7616584005 0)
(-0.040236600365 1.56051552233 0)
(-0.0969890072148 1.27749853688 0)
(-0.137905100724 1.06585484702 0)
(-0.156969029755 0.994379560951 0)
(-0.170483201991 0.955623032832 0)
(-0.180654337293 0.932291388431 0)
(-0.186022503634 0.920916484523 0)
(-0.183240709245 0.917267922062 0)
(-0.170008751653 0.912746950384 0)
(-0.146870778944 0.903248889623 0)
(-0.121323435095 0.884256159436 0)
(-0.101451334665 0.851921579677 0)
(-0.0883857476421 0.806186532659 0)
(0.00782572297783 1.43669577148 0)
(0.0174818518599 2.08514268867 0)
(0.0213175898932 2.13454984067 0)
(0.02620059529 2.04142178947 0)
(0.031322683768 1.97071764868 0)
(0.0337222686702 1.91233454163 0)
(0.0304096844329 1.82556872756 0)
(0.0184124389264 1.68632147748 0)
(-0.0139915505422 1.44599620925 0)
(-0.0493185838931 1.10826339205 0)
(-0.0674820781711 1.00130444025 0)
(-0.0792802209024 0.946011598832 0)
(-0.0891662261376 0.910844427013 0)
(-0.0987804965048 0.889192343054 0)
(-0.105990421624 0.881341660749 0)
(-0.105674623162 0.877531777542 0)
(-0.0947123485878 0.871193260882 0)
(-0.0765073009312 0.857297195392 0)
(-0.058539177616 0.831557432568 0)
(-0.0443388127578 0.791520112794 0)
(0.0036096431303 1.41467711916 0)
(0.00681466292142 2.06037965562 0)
(0.0086095216325 2.10709859271 0)
(0.0148677156953 2.01378649993 0)
(0.0232531708904 1.95157871585 0)
(0.0307968743325 1.90943548235 0)
(0.0350600550183 1.84568776124 0)
(0.0343006551596 1.73307484856 0)
(0.0274671309756 1.55174452769 0)
(0.014577177768 1.1706077384 0)
(0.00134564752697 1.03335899975 0)
(-0.00789706530096 0.961846220051 0)
(-0.0151073205067 0.91487693021 0)
(-0.0220777084501 0.881959539884 0)
(-0.0294573894694 0.864708997033 0)
(-0.0344718199369 0.856601259836 0)
(-0.0327809522366 0.849153232486 0)
(-0.0236831594021 0.836942192235 0)
(-0.0112023204088 0.814354018723 0)
(0.00149341323368 0.777287561 0)
(-0.00124067102097 1.44921606504 0)
(-0.00437153156205 2.07046634999 0)
(-0.00477819296464 2.09543296567 0)
(-0.000584535344318 1.99716816154 0)
(0.00521314098784 1.93848695092 0)
(0.0113340395953 1.90377416756 0)
(0.0165491549515 1.85076335595 0)
(0.0214994985884 1.74261424701 0)
(0.0393521895911 1.522572442 0)
(0.0529655895557 1.21123204623 0)
(0.0486731335554 1.06883155105 0)
(0.0434794446161 0.98833833497 0)
(0.0391556562892 0.933491048655 0)
(0.0353135754609 0.892591571153 0)
(0.0313760186194 0.866629363758 0)
(0.0275096769883 0.852049524007 0)
(0.0258589371972 0.840618853431 0)
(0.0283400657032 0.826645689845 0)
(0.0343176572266 0.804177080396 0)
(0.0432612391774 0.767838752621 0)
(-0.00463323781908 1.53737910281 0)
(-0.00963584843719 2.10641202888 0)
(-0.00932378329063 2.1092984226 0)
(-0.00952056736753 2.01339269859 0)
(-0.0123498023537 1.95974836393 0)
(-0.0155133735774 1.92420268906 0)
(-0.0132107383621 1.85410320249 0)
(0.0156242461964 1.6544273523 0)
(0.0559357334367 1.42771027751 0)
(0.0744658334405 1.2202212694 0)
(0.0781918819899 1.09434935802 0)
(0.0778572223338 1.0140570944 0)
(0.076811236573 0.956321151535 0)
(0.0759005119056 0.911506521078 0)
(0.0752586034575 0.88030984861 0)
(0.0742825780855 0.860522901502 0)
(0.0729513514662 0.844827281429 0)
(0.0722540050064 0.827641134543 0)
(0.0733464733877 0.80342582875 0)
(0.078119118006 0.766345580464 0)
(-0.0033373893664 1.63027012035 0)
(-0.000304652060757 2.1262773886 0)
(0.00880275268803 2.13081124344 0)
(0.00920956716818 2.05592904896 0)
(0.00123289377238 2.01435892316 0)
(-0.00900855876275 1.9710264382 0)
(0.0062823539187 1.78401148584 0)
(0.0413923109365 1.52258540413 0)
(0.0680757134371 1.35593450015 0)
(0.0856991860676 1.21127467179 0)
(0.0948523784718 1.10797963001 0)
(0.0994153307839 1.03457191759 0)
(0.102106519462 0.97844713171 0)
(0.104371288607 0.933304242301 0)
(0.106901676958 0.900463758233 0)
(0.108929141933 0.877817064701 0)
(0.108872735522 0.858879974722 0)
(0.106686803816 0.838470369682 0)
(0.104571168679 0.811833953165 0)
(0.10622939466 0.773391403485 0)
(0.00820626462541 1.62864663881 0)
(0.0285762049413 2.08174036189 0)
(0.0475889390905 2.12067462278 0)
(0.0540905761632 2.08886340868 0)
(0.0490181428185 2.06644077961 0)
(0.0405926190011 2.01101512788 0)
(0.0442601745102 1.68569902908 0)
(0.0606905648459 1.45095124874 0)
(0.0788363562992 1.30990985941 0)
(0.0946081919106 1.19777925779 0)
(0.105906432372 1.11380620815 0)
(0.113869901747 1.04997951487 0)
(0.120062249317 0.998699524047 0)
(0.125775671752 0.956474292629 0)
(0.131694952023 0.924906483328 0)
(0.136162640972 0.901241478233 0)
(0.13655319002 0.879628268324 0)
(0.133146934494 0.856202949985 0)
(0.129125736622 0.827046131454 0)
(0.129285974938 0.787164144471 0)
(0.0266037607224 1.56531255604 0)
(0.0698567728007 1.95440534747 0)
(0.0919683075882 2.0744154496 0)
(0.0962288437139 2.09817427469 0)
(0.0898543624071 2.1014403425 0)
(0.0797987549669 2.0369253275 0)
(0.0763434901784 1.64920416932 0)
(0.0823620135739 1.4133611391 0)
(0.0933063708154 1.28063342842 0)
(0.105672535181 1.18684533829 0)
(0.116875002666 1.11708270867 0)
(0.126647758107 1.06270284203 0)
(0.1356696153 1.01801512046 0)
(0.144750003402 0.981048958789 0)
(0.153370155676 0.952084892496 0)
(0.158292769155 0.927739232092 0)
(0.157648108482 0.903482813399 0)
(0.153248345056 0.877395041278 0)
(0.148489201236 0.845961297264 0)
(0.148257031933 0.804832280459 0)
(0.0382202331454 1.55177262814 0)
(0.0845878297833 1.81166071768 0)
(0.10334341078 1.97670288661 0)
(0.113174433737 2.08595912387 0)
(0.109088813152 2.11958839836 0)
(0.103748158814 2.04980534016 0)
(0.101664470063 1.63732318726 0)
(0.103838147246 1.39758405767 0)
(0.110294105938 1.26603276424 0)
(0.119548316359 1.18147779015 0)
(0.129815472551 1.12148243416 0)
(0.14051038293 1.07557787691 0)
(0.151881633788 1.03814654347 0)
(0.163567680305 1.00679251176 0)
(0.172508723036 0.979911002344 0)
(0.175509427395 0.954159573423 0)
(0.173478399413 0.927666958091 0)
(0.168682378707 0.899411388481 0)
(0.163929738461 0.866170743172 0)
(0.163788510076 0.824177875322 0)
(0.0408589391369 1.56725148635 0)
(0.0855400249942 1.71623904 0)
(0.0976794323485 1.84036199389 0)
(0.106822534296 2.05018979836 0)
(0.10772871566 2.1097150004 0)
(0.112041803783 2.02558817851 0)
(0.118068949597 1.626787707 0)
(0.1217067854 1.3937614186 0)
(0.126796078759 1.26272283231 0)
(0.134424202711 1.18272424141 0)
(0.144105105836 1.12958315794 0)
(0.155753724548 1.09123304422 0)
(0.169070958252 1.06036694579 0)
(0.181056089478 1.03312664092 0)
(0.187452063805 1.00659626993 0)
(0.188086527231 0.979221924508 0)
(0.185379747101 0.951093290096 0)
(0.180584951665 0.921055382853 0)
(0.176265421696 0.886453151904 0)
(0.176201138805 0.843802875917 0)
(0.031773572821 1.62254358441 0)
(0.0688676272114 1.65540060792 0)
(0.0764037099953 1.74153742173 0)
(0.0841502781387 1.99084098258 0)
(0.0903547550312 2.09080440338 0)
(0.106667304068 1.93613078295 0)
(0.126625670032 1.60908672646 0)
(0.133839511761 1.39496496067 0)
(0.140125515236 1.26703948627 0)
(0.147880541563 1.19043851841 0)
(0.157938945771 1.14308310682 0)
(0.170819426074 1.11103489252 0)
(0.184456769778 1.08487453564 0)
(0.193796959538 1.05929044919 0)
(0.197021152007 1.03186752741 0)
(0.196516343044 1.00327045854 0)
(0.193655204052 0.973743540125 0)
(0.18900089839 0.942189970439 0)
(0.184955827512 0.906356391762 0)
(0.184259716918 0.862791900978 0)
(0.025595820626 1.75486955451 0)
(0.0580623367167 1.62117487968 0)
(0.0656514204468 1.68854903698 0)
(0.0720848577747 1.92777706949 0)
(0.0896272518273 2.03893321833 0)
(0.110008933398 1.84713220276 0)
(0.124792960181 1.59120507159 0)
(0.135921547615 1.39781840287 0)
(0.145559323909 1.27616308735 0)
(0.155673073528 1.20453006863 0)
(0.167861007508 1.16287895065 0)
(0.181841401556 1.1350298189 0)
(0.193306356342 1.11074857644 0)
(0.199133275196 1.08475809795 0)
(0.201044243714 1.05656455083 0)
(0.200624266444 1.02694027395 0)
(0.19784434411 0.996054566607 0)
(0.193091896098 0.962995144324 0)
(0.188372615727 0.925572424687 0)
(0.186204710867 0.880762236763 0)
(0.0313266610682 1.8829152134 0)
(0.0695489331991 1.60019193752 0)
(0.0744188213202 1.65131301775 0)
(0.0769433065554 1.87572169537 0)
(0.0882866912914 1.96531531031 0)
(0.102174830813 1.80321021965 0)
(0.115661816519 1.57503334631 0)
(0.128099926944 1.39739886429 0)
(0.140118558622 1.28360922359 0)
(0.152606850954 1.21901317675 0)
(0.166263453741 1.18278854354 0)
(0.179300728337 1.15719400944 0)
(0.188776265046 1.13321039043 0)
(0.194829434529 1.10736911514 0)
(0.198575014337 1.07925468351 0)
(0.199469157648 1.04893867942 0)
(0.19688064513 1.01656060364 0)
(0.191164241583 0.981532514878 0)
(0.184865508228 0.942607831022 0)
(0.180916347611 0.897209598753 0)
(0.180337310215 0.662505662884 0)
(0.175028935808 0.709258849506 0)
(0.152680853044 0.771547992802 0)
(0.105965537123 0.853201798644 0)
(0.0396746255131 0.921032970436 0)
(0.00202673073883 0.920471515935 0)
(0.0716545885563 0.871548410916 0)
(0.212598132682 0.856682242136 0)
(0.230495469135 0.847717643448 0)
(0.0926067010002 0.762708260999 0)
(-0.0145088704217 0.511060636372 0)
(-0.0339128323887 0.328440156298 0)
(-0.029954417403 0.261699288998 0)
(-0.0251690309867 0.236521351038 0)
(-0.0408033660862 0.190799969773 0)
(-0.029367859116 0.154510958224 0)
(0.244573394892 0.589973751171 0)
(0.256150029641 0.59087942356 0)
(0.272242297354 0.609030848116 0)
(0.289825618083 0.648344903648 0)
(0.293053125203 0.707627810317 0)
(0.27006121555 0.778900997185 0)
(0.227467867633 0.865589161422 0)
(0.175849042605 0.965616301176 0)
(0.119297008939 1.02124471687 0)
(0.0773373992029 0.982460473389 0)
(0.0806717842489 0.907935599578 0)
(0.070333381954 0.906361311726 0)
(-0.0195019284964 0.962026302453 0)
(-0.0966600181188 0.816144778861 0)
(-0.0992396798488 0.407770419474 0)
(-0.0785131001151 0.215113148955 0)
(-0.0593058439145 0.159215974358 0)
(-0.0415025339788 0.137435393092 0)
(-0.042428897588 0.115418114912 0)
(-0.0258533701897 0.0697630115959 0)
(0.308354508853 0.576021548171 0)
(0.334952131124 0.584535635424 0)
(0.357791856105 0.617837799181 0)
(0.339617497474 0.665872926971 0)
(0.270125030426 0.74272223841 0)
(0.183368725122 0.83731523846 0)
(0.106102668814 0.93142761018 0)
(0.0510954397524 1.00357827315 0)
(0.0151347536063 1.0283802055 0)
(-0.0220559554723 0.966505262811 0)
(-0.0701961602422 0.896515612422 0)
(-0.113731939293 0.893389834495 0)
(-0.121021401048 0.938148050115 0)
(-0.0811762627936 0.647548227228 0)
(-0.0412741588925 0.265314534292 0)
(-0.0260344014925 0.111864680255 0)
(-0.0178423101756 0.0653968638159 0)
(-0.0155913351006 0.047480053026 0)
(-0.027032876731 0.0370657113952 0)
(-0.0190330715239 0.00361798479313 0)
(0.358743300132 0.575346911193 0)
(0.372554018742 0.595447179471 0)
(0.30943605665 0.640075091094 0)
(0.185638667496 0.733654490024 0)
(0.0704940988044 0.826888943621 0)
(-0.0040193976665 0.909039337038 0)
(-0.0421893695953 0.977606754027 0)
(-0.0588312704141 1.01271168564 0)
(-0.066848188829 1.01652324911 0)
(-0.0773300709949 0.961949195397 0)
(-0.0869187513502 0.879102397841 0)
(-0.0766192930632 0.821617117025 0)
(-0.0420709457337 0.763242501053 0)
(-0.0049406225842 0.430076958508 0)
(0.0128351592542 0.192684475776 0)
(0.0176588382522 0.0815378839371 0)
(0.0176173839001 0.0400111882747 0)
(0.00763019488464 0.0212371070024 0)
(-0.0150282950291 0.0114699013349 0)
(-0.0148691046611 -0.0103947527103 0)
(0.358949543736 0.584524789193 0)
(0.264092755029 0.629904231228 0)
(0.11889296125 0.743634380315 0)
(0.012613880754 0.850310106712 0)
(-0.0352813020077 0.924018927891 0)
(-0.0566322379611 0.96463422929 0)
(-0.0682500109462 0.99394567782 0)
(-0.0738228400653 1.01172207722 0)
(-0.0744867566805 1.00595861642 0)
(-0.0696163332568 0.951559346255 0)
(-0.0586163550052 0.836861638434 0)
(-0.0384629710349 0.716417310557 0)
(-0.00474393156066 0.593305652797 0)
(0.0201973415046 0.345390027223 0)
(0.0260869031183 0.181878319805 0)
(0.0294872377076 0.0915517195162 0)
(0.0281150556071 0.0531970151215 0)
(0.0150639956008 0.0334403474774 0)
(-0.0106616113373 0.0222626239402 0)
(-0.0132845317147 0.00265769084437 0)
(0.23604654765 0.615515643399 0)
(0.0924767822708 0.738626814787 0)
(0.00853679245892 0.86670972148 0)
(-0.0194379211111 0.924954273791 0)
(-0.0335345362477 0.95894259733 0)
(-0.042000723149 0.982935993414 0)
(-0.0454492662223 0.998205642631 0)
(-0.043458261525 1.00328169422 0)
(-0.0350718674745 0.986281685084 0)
(-0.0202839765113 0.922603712965 0)
(-0.00382515670532 0.802712973642 0)
(0.0116177797066 0.654230865259 0)
(0.0240085146181 0.496591361351 0)
(0.0294300196792 0.321519386805 0)
(0.0312298527823 0.185929674554 0)