/*--------------------------------*- C++ -*----------------------------------*\
| =========                 |                                                 |
| \\      /  F ield         | OpenFOAM: The Open Source CFD Toolbox           |
|  \\    /   O peration     | Version:  2312                                  |
|   \\  /    A nd           | Website:  www.openfoam.com                      |
|    \\/     M anipulation  |                                                 |
\*---------------------------------------------------------------------------*/
FoamFile
{
    version     2.0;
    format      ascii;
    arch        "LSB;label=32;scalar=64";
    class       volScalarField;
    location    "0.025/water";
    object      k.gas;
}
// * * * * * * * * * * * * * * * * * * * * * * * * * * * * * * * * * * * * * //

dimensions      [0 2 -2 0 0 0 0];

internalField   nonuniform List<scalar> 
1497
(
0.0210079443386
0.0115917481466
0.00449224543718
0.00159537550124
0.000328169000305
6.16528806022e-05
2.39874546723e-05
1.93778525277e-05
1.84363722358e-05
1.83288733509e-05
1.92758386474e-05
2.27683521874e-05
3.43382137672e-05
1.87425458029
0.79107855748
0.328961035124
0.1341878572
0.0634759945641
0.0412948918065
0.030568163134
0.0210549578898
0.0116288123921
0.00450261264709
0.00159644229411
0.000327203881698
6.11971404675e-05
2.39072930241e-05
1.93813236866e-05
1.84618189358e-05
1.83668163946e-05
1.9316643589e-05
2.27884599208e-05
3.43599161468e-05
1.89457263908
0.800248774638
0.334451979066
0.136558378418
0.0640008318984
0.041324471245
0.0305743361208
0.0210740273707
0.0116261555568
0.00448517564388
0.00158341031248
0.000322362730322
6.01336299021e-05
2.37709787711e-05
1.93831015649e-05
1.84902472883e-05
1.84095986646e-05
1.9366441449e-05
2.28241609005e-05
3.4403310023e-05
1.9106969531
0.811014140218
0.340338007457
0.139229470184
0.0646906814613
0.0414223252944
0.0306012420469
0.0210818463159
0.011593500073
0.0044427493211
0.00155797358036
0.000314095892682
5.85999105509e-05
2.36048388256e-05
1.93889474531e-05
1.85245054794e-05
1.84587549711e-05
1.94249239068e-05
2.28748770152e-05
3.4473340853e-05
1.90598782242
0.818161524279
0.346339750907
0.14218578913
0.0655195587584
0.0415714955143
0.0306378476237
0.0210745100321
0.0115330037085
0.00437834924377
0.00152185143916
0.000303490007578
5.68159115445e-05
2.34359958839e-05
1.94038010473e-05
1.85683477652e-05
1.8518232614e-05
1.94946345243e-05
2.29394408071e-05
3.45647891587e-05
1.87543885008
0.817860773919
0.351420059888
0.145335716905
0.0664577084509
0.0417397517079
0.0306567626682
0.0210315544316
0.0114336850149
0.00429162708868
0.00147601152728
0.000291596398292
5.49538241165e-05
2.32796517005e-05
1.94303741997e-05
1.8624579543e-05
1.85916097168e-05
1.95787669097e-05
2.30175563488e-05
3.46689678748e-05
1.83049192267
0.810479668874
0.354986272647
0.148585804443
0.0675089476253
0.0419116827421
0.0306164944312
0.0209014946282
0.0112607285505
0.00417184935531
0.00141985815584
0.000278267043142
5.30050295775e-05
2.31369579287e-05
1.94717953617e-05
1.8694557059e-05
1.86784607105e-05
1.96757840895e-05
2.31065390807e-05
3.47788304799e-05
1.77998903134
0.79915958751
0.358298919042
0.152494441714
0.0688521949675
0.0420921900667
0.0304743087746
0.0206491359236
0.0110021941813
0.00401664608553
0.00135432281421
0.000263596275945
5.10307176736e-05
2.30161478895e-05
1.95259582997e-05
1.87734658511e-05
1.87715002892e-05
1.97769168319e-05
2.31986878483e-05
3.48865727575e-05
1.70528277853
0.785283304824
0.362348115893
0.157554521911
0.0706929693606
0.0423306294544
0.0302689515651
0.0203437815985
0.0107289642935
0.0038643119626
0.00129664518203
0.000251198881777
4.95866677427e-05
2.29678535832e-05
1.95886124778e-05
1.88525293091e-05
1.88612109104e-05
1.98719280965e-05
2.32830395574e-05
3.49731547214e-05
1.60309324299
0.768082372481
0.367021636888
0.163062798171
0.0726265304485
0.0425402871167
0.0300541836821
0.0200878242672
0.0105423106186
0.00377636048273
0.00127055710519
0.000246357845292
4.94154336066e-05
2.30532466753e-05
1.96548862883e-05
1.89235590018e-05
1.89413100649e-05
1.99541534823e-05
2.33444563237e-05
3.50031028329e-05
1.51400725086
0.752449605335
0.371312663931
0.167827749557
0.0741676830039
0.0426677015046
0.0298993446677
0.0199749977048
0.0105264382454
0.00380401643178
0.00129351502915
0.000253211968482
5.10313152316e-05
2.33112472338e-05
1.97257036308e-05
1.89849949407e-05
1.90090276753e-05
2.00169885529e-05
2.33727697554e-05
3.49760364876e-05
1.47492890449
0.745956311001
0.375850218743
0.17136909289
0.0753881276881
0.0428270734118
0.0298720324512
0.0200416350026
0.0106978264328
0.00394040148576
0.00136997126678
0.000272965629966
5.4549608808e-05
2.37542154943e-05
1.98058865402e-05
1.9035519013e-05
1.90604685871e-05
2.00613733845e-05
2.33804256678e-05
3.49005243347e-05
1.46575729652
0.74846512307
0.380597977076
0.174758253188
0.0768093783103
0.0431194163619
0.0299528310336
0.0202277190448
0.0109871009628
0.00414978550115
0.00148552116534
0.000302347502055
5.95164677065e-05
2.43359723419e-05
1.98877450105e-05
1.90770719705e-05
1.91042422653e-05
2.00993190528e-05
2.33733048294e-05
3.47786187436e-05
1.47121479189
0.755075070667
0.385676180481
0.179082982732
0.0786167817428
0.0435144827681
0.0300824878963
0.0204575311756
0.0113148797475
0.00438328434096
0.00161664355029
0.00033609081582
6.51753018037e-05
2.49857881299e-05
1.99802148186e-05
1.91243675202e-05
1.91508702627e-05
2.01362639182e-05
2.33604067901e-05
3.46430710694e-05
1.46612955345
0.759608633553
0.392065082646
0.184147502296
0.0806241403502
0.0439355142588
0.030214049775
0.0206802777221
0.0116246968729
0.00460881410463
0.00174325901364
0.000369168807357
7.07375242137e-05
2.56316462724e-05
2.00844858534e-05
1.91845902872e-05
1.92067175401e-05
2.01794043153e-05
2.33568384889e-05
3.45271537078e-05
1.44477282873
0.759788054004
0.398056818557
0.189133261675
0.0825904141707
0.0443352250463
0.0303219000982
0.0208629407856
0.0118794662299
0.00479724378177
0.00184920598742
0.000397082282142
7.54162038101e-05
2.61842702865e-05
2.01956293771e-05
1.92607698836e-05
1.92799544496e-05
2.02420527995e-05
2.33761455724e-05
3.4447263682e-05
1.42513813866
0.757415781828
0.402573785764
0.193418987973
0.0844071678342
0.0447080544914
0.0303949866913
0.0209814532705
0.0120520913398
0.00492586270227
0.00192190889103
0.000416248275237
7.854858857e-05
2.65628139215e-05
2.03059356628e-05
1.93554645753e-05
1.93761021603e-05
2.03333312517e-05
2.342980367e-05
3.44141377087e-05
1.41513470241
0.755725381201
0.406354742322
0.197474789799
0.0862655454006
0.0450894354208
0.0304330457026
0.0210271982541
0.012131077982
0.00498541802974
0.0019555786878
0.000424900066616
7.9830083518e-05
2.67368327646e-05
2.04064470938e-05
1.94617918983e-05
1.94893298742e-05
2.04477321417e-05
2.35177541606e-05
3.44403108785e-05
1.40202896689
0.755098038451
0.411057918789
0.202526277473
0.088687492251
0.0456324062898
0.0304840923674
0.021033830716
0.0121457786631
0.00499319972718
0.0019582189094
0.00042469158526
7.95643641557e-05
2.67477151699e-05
2.04995604434e-05
1.95747492096e-05
1.96126669342e-05
2.05753812454e-05
2.36249872608e-05
3.45146252277e-05
1.36820760684
0.752176824998
0.41682944362
0.20855801453
0.0915864211166
0.0463118840372
0.0305620101527
0.0210317699086
0.012131360137
0.00497548660505
0.00194246111867
0.000419023066098
7.83682224786e-05
2.66639818658e-05
2.05873260126e-05
1.96905510434e-05
1.97416432022e-05
2.07121343585e-05
2.37446159123e-05
3.46072095103e-05
1.3295428297
0.747242772065
0.421918796377
0.214175094656
0.0943456200312
0.0469855050295
0.0306524986258
0.0210341985125
0.012109561149
0.00494574726761
0.00191879254392
0.000411079435541
7.67944225373e-05
2.6538684079e-05
2.06678082732e-05
1.98042682488e-05
1.98712442014e-05
2.08524942209e-05
2.38722910013e-05
3.47127209549e-05
1.3158794908
0.74405298661
0.424908779274
0.218124591657
0.0965713493835
0.0476093058619
0.0307626395272
0.0210531491151
0.0120959015749
0.00491553565309
0.00189332605488
0.000403045914362
7.51928474694e-05
2.64030865371e-05
2.0740983381e-05
1.9913716536e-05
1.99992109454e-05
2.09931444892e-05
2.40022076319e-05
3.4821579154e-05
1.3091709289
0.741176827456
0.426053255141
0.220689609536
0.0983928831541
0.0482181358632
0.0308951511011
0.0210867618608
0.0120873858101
0.00488185911773
0.00186643697515
0.000394880645632
7.35823347213e-05
2.62642214895e-05
2.08104879205e-05
2.00205349288e-05
2.01263526173e-05
2.11343096502e-05
2.4132641322e-05
3.49262377123e-05
1.30633792553
0.739563249915
0.426116115544
0.222163940615
0.0998360758243
0.0487896659358
0.0310455173929
0.0211306306988
0.0120740487784
0.00483979958394
0.00183389764923
0.000385853804941
7.18818744961e-05
2.61233523609e-05
2.08801836291e-05
2.01269550383e-05
2.02537288473e-05
2.12766044213e-05
2.42645763742e-05
3.5027592569e-05
1.29816449117
0.738065621016
0.426290803052
0.223067760408
0.100880116896
0.0492668699662
0.0311965250578
0.0211767833824
0.0120498816926
0.00479133359112
0.00179511271539
0.000375885298529
7.01271660586e-05
2.59910874767e-05
2.0951201889e-05
2.02330139787e-05
2.03809059955e-05
2.14192135523e-05
2.43981595168e-05
3.51284564364e-05
1.28927850464
0.735585636055
0.426072449454
0.223614308394
0.101690604526
0.0496902353641
0.0313602711976
0.0212332188005
0.0120253120715
0.00474362579086
0.00175528622592
0.000366164472653
6.85334937791e-05
2.5890024556e-05
2.1023968012e-05
2.03383579621e-05
2.05079548154e-05
2.15620340327e-05
2.45325134722e-05
3.52263607224e-05
1.28309330264
0.730926163345
0.424431279993
0.223582878348
0.102344643896
0.0501340654414
0.0315533187436
0.0212994995118
0.0120039952734
0.00470233202568
0.00171853534632
0.000358096423586
6.73178041778e-05
2.58379043156e-05
2.10991368143e-05
2.04436975205e-05
2.063630192e-05
2.17065280366e-05
2.46663602889e-05
3.53131374198e-05
1.28636080904
0.72462655146
0.420741276305
0.22277356334
0.102868138173
0.0505653878457
0.0317243080789
0.0213282939784
0.0119525654312
0.00465407036172
0.00167895908578
0.000351525407627
6.64710843738e-05
2.58342213602e-05
2.11790568537e-05
2.05506029448e-05
2.07666617409e-05
2.18527482582e-05
2.47974842378e-05
3.53847696047e-05
1.29561625909
0.719591947416
0.416525393393
0.221562787165
0.103268180804
0.0509282254521
0.0318262345931
0.0212872816452
0.0118521089529
0.00458964342779
0.00163694644198
0.000346238750441
6.59764240105e-05
2.5883801498e-05
2.12673463139e-05
2.06590826693e-05
2.08965410279e-05
2.19971802944e-05
2.49245651293e-05
3.54430241885e-05
1.31051418171
0.715012098591
0.412390618048
0.220369735577
0.103612027001
0.0512224954835
0.0318641474658
0.0211967741591
0.0117336013343
0.00452584609994
0.00161322669244
0.000343451542131
6.60127888973e-05
2.60050456577e-05
2.1363579001e-05
2.07663469738e-05
2.10221344924e-05
2.21361034485e-05
2.50448796596e-05
3.54792840701e-05
1.32185475128
0.711465967641
0.407759742359
0.219265228919
0.104237857502
0.0516228270474
0.0319163149631
0.0211217253951
0.0116573521637
0.00449551797146
0.00161054940101
0.000345464195479
6.68998869067e-05
2.62249716424e-05
2.1468405033e-05
2.08728782469e-05
2.11445534077e-05
2.22694895448e-05
2.51533275344e-05
3.54998101567e-05
1.32102479452
0.706166071954
0.40318331948
0.218648466854
0.105291540473
0.0522381003727
0.0320542399608
0.0211117876641
0.0116549495777
0.00451453027216
0.00163392441773
0.000353824794376
6.88297345133e-05
2.65588416233e-05
2.15859632301e-05
2.09835633599e-05
2.12692659946e-05
2.24017209101e-05
2.52610077766e-05
3.55183822e-05
1.31176108812
0.697704181782
0.398214882977
0.218025902893
0.106476548297
0.0530106616437
0.0322689420538
0.0211528522288
0.0117054963599
0.0045707305148
0.00167761880752
0.000367386633229
7.15926032279e-05
2.69834853927e-05
2.17184579053e-05
2.11029538026e-05
2.14018269206e-05
2.25399851951e-05
2.53745716101e-05
3.55324346181e-05
1.30091685642
0.688252147352
0.392437793854
0.216940609245
0.107764833006
0.0539668727668
0.0325605465028
0.0212258290002
0.0117838871749
0.00464696592655
0.00173311117562
0.000383958070723
7.48125614063e-05
2.74589586565e-05
2.18650049699e-05
2.12328897013e-05
2.15432137234e-05
2.26873195352e-05
2.54964162753e-05
3.55457538531e-05
1.28527963612
0.676423624305
0.386061098248
0.216050625354
0.109524819792
0.0552007883815
0.0329428076633
0.0213277186774
0.0118823004851
0.00473486567743
0.00179693215301
0.000401999578258
7.82128086929e-05
2.79543592739e-05
2.20223749784e-05
2.13724343629e-05
2.1693355466e-05
2.28439776078e-05
2.56297184903e-05
3.55717724018e-05
1.26550902689
0.662901512109
0.380116997263
0.216131848308
0.111923862607
0.0566981172001
0.0334078172267
0.0214640536027
0.012003835976
0.0048317701261
0.00186777169539
0.000420429262939
8.15852010022e-05
2.84445893379e-05
2.21872472766e-05
2.15211594422e-05
2.18533135059e-05
2.30105823194e-05
2.57776811275e-05
3.56206861259e-05
1.24700959212
0.650861871406
0.376065638824
0.217334482052
0.114641468898
0.0582933701267
0.033930406057
0.0216419911586
0.0121520566715
0.00493686621165
0.00194107277024
0.000438240830413
8.47157733646e-05
2.88996221482e-05
2.23545062774e-05
2.16774293959e-05
2.20224141842e-05
2.31880788921e-05
2.59425611898e-05
3.56922208506e-05
1.22993010573
0.641720251975
0.373723579308
0.218972674595
0.117217835259
0.0598362270993
0.034471374417
0.0218414051943
0.0123071837903
0.00503887431874
0.00200518550878
0.000453647969179
8.72909649675e-05
2.92765662926e-05
2.25148206562e-05
2.18360976874e-05
2.21967086987e-05
2.33754607079e-05
2.61266398749e-05
3.57807555156e-05
6.05944628768e-05
0.000102128488061
0.000165651129587
0.000203579191137
0.000190678498585
0.000142436505768
0.000106489759848
7.97336247168e-05
7.3104388138e-05
7.2479270529e-05
7.24479312182e-05
7.24464396121e-05
7.24462147172e-05
7.24461485562e-05
7.24476548152e-05
7.34015728564e-05
0.00053573875054
0.0148446378009
0.067532401574
0.15448467794
6.07320261475e-05
0.000102355799274
0.000166352394567
0.000204905363645
0.000192119229491
0.000143353981934
0.000105756015475
7.99512820022e-05
7.31264249871e-05
7.24791699361e-05
7.24465479258e-05
7.24450781454e-05
7.24449193426e-05
7.24449098334e-05
7.24465536859e-05
7.34552507363e-05
0.00055664803453
0.0151889154385
0.0683783984748
0.156033846252
6.09015534216e-05
0.000102621570378
0.000167055126906
0.000206222584186
0.000193583078857
0.000144352061534
0.000105100424851
8.01931361356e-05
7.31484209024e-05
7.24784078457e-05
7.24445339216e-05
7.24431094008e-05
7.24430335819e-05
7.24430924751e-05
7.24448858886e-05
7.35118136619e-05
0.000578517580261
0.0155423600436
0.0692356211238
0.157575424258
6.11069879026e-05
0.000102934478448
0.000167772445473
0.000207538269788
0.000195060548942
0.000145420454833
0.000104471224611
8.0455646334e-05
7.31707533287e-05
7.24771806962e-05
7.24420757598e-05
7.24407140279e-05
7.24407329398e-05
7.24408668381e-05
7.24428164552e-05
7.35717100449e-05
0.000601370948262
0.015903206476
0.0700968086134
0.159115523367
6.13528342808e-05
0.000103292378021
0.000168485848695
0.000208820994473
0.00019649470028
0.000146509490809
0.000103825545736
8.0737106504e-05
7.31938431872e-05
7.24757704845e-05
7.24394313003e-05
7.24381446414e-05
7.24382663919e-05
7.24384815562e-05
7.2440594983e-05
7.36351831729e-05
0.000625129595665
0.0162695035629
0.0709587336717
0.160653587389
6.16178921245e-05
0.000103656608262
0.00016913311746
0.000210004453281
0.000197838246077
0.000147619693284
0.000103195080562
8.10615054352e-05
7.32199763525e-05
7.24745798202e-05
7.24368872025e-05
7.2435676285e-05
7.24359052725e-05
7.24362066703e-05
7.24384911642e-05
7.37024426533e-05
0.000649714567378
0.0166399550528
0.0718201922915
0.162188421529
6.18790680523e-05
0.000103979117185
0.000169655427079
0.000211040548126
0.00019908883039
0.00014880089825
0.000102673979815
8.14782521604e-05
7.32537156591e-05
7.24741318615e-05
7.24347455243e-05
7.24335963123e-05
7.24339290878e-05
7.24343138482e-05
7.24367667846e-05
7.37737235656e-05
0.000675090697261
0.0170140453358
0.0726810846266
0.163719625828
6.21197822736e-05
0.000104231133886
0.000170036972776
0.00021192893439
0.000200279880583
0.000150111277236
0.000102367440352
8.20431038249e-05
7.33003725835e-05
7.24749679223e-05
7.24332890457e-05
7.24321632189e-05
7.24325834155e-05
7.24330390729e-05
7.24356503084e-05
7.38493262745e-05
0.000701247102098
0.0173915052007
0.0735413529909
0.165247307771
6.22992474466e-05
0.000104394254078
0.00017029474269
0.000212700765982
0.000201439365733
0.000151508762508
0.000102358967272
8.27950691405e-05
7.33639362124e-05
7.24775533144e-05
7.2432777504e-05
7.24316126429e-05
7.24320879761e-05
7.24325885877e-05
7.24353343928e-05
7.3929549083e-05
0.000728186246819
0.0177721772127
0.0744009625526
0.16677215727
6.23707927791e-05
0.000104474453754
0.000170444224223
0.000213377523197
0.000202547407233
0.000152954890383
0.000102696345096
8.37460673144e-05
7.34466005368e-05
7.24822293306e-05
7.24333969792e-05
7.2432101421e-05
7.24325821599e-05
7.24330902334e-05
7.24359419432e-05
7.40146610978e-05
0.00075590563791
0.0181557782584
0.0752596622823
0.168295226239
6.23576565573e-05
0.000104418539631
0.0001704681566
0.000213951651212
0.000203586104506
0.000154432295653
0.000103419222014
8.49057983714e-05
7.35505767216e-05
7.24892432535e-05
7.24352234544e-05
7.2433684019e-05
7.24341092194e-05
7.2434577877e-05
7.24374989561e-05
7.41048821156e-05
0.000784412698402
0.0185422054109
0.0761176316715
0.169818262414
6.22319864963e-05
0.0001042219543
0.000170360758683
0.000214432746377
0.000204590599569
0.000155920352148
0.000104586918183
8.63000622803e-05
7.36793360921e-05
7.24987161283e-05
7.24381485666e-05
7.24362404209e-05
7.24365492888e-05
7.24369336195e-05
7.24398962629e-05
7.42003564112e-05
0.000813720465194
0.0189314351493
0.0769752053377
0.17134324996
6.20030636822e-05
0.000103948410856
0.000170176795914
0.000214885730933
0.00020563486006
0.000157524438828
0.000106209661089
8.79458263628e-05
7.38356254622e-05
7.25105144579e-05
7.24418774406e-05
7.24394903188e-05
7.243963882e-05
7.24399055273e-05
7.24428909379e-05
7.43011897035e-05
0.00084386612528
0.0193238147407
0.0778333565291
0.172872484828
6.17400048145e-05
0.000103641432623
0.000170012780232
0.000215409986638
0.000206794940124
0.000159263723092
0.000108176738561
8.98058161885e-05
7.40171459104e-05
7.25240645547e-05
7.24459466517e-05
7.24430071985e-05
7.24429785992e-05
7.24431169799e-05
7.24461312537e-05
7.44074207961e-05
0.00087489628346
0.0197197702724
0.0786930230785
0.174407800215
6.1506336948e-05
0.000103383470157
0.000169964925773
0.000216095311368
0.000208111627786
0.000161076081081
0.000110271155289
9.17653891415e-05
7.4214078201e-05
7.25383477085e-05
7.24498339402e-05
7.24463264893e-05
7.2446136257e-05
7.24461586261e-05
7.24492233949e-05
7.45191102499e-05
0.00090687516416
0.0201199534355
0.0795554034912
0.175950631078
6.13329702994e-05
0.000103228448206
0.000170083039842
0.000216973153229
0.000209576106376
0.000162889502224
0.000112271718626
9.36772216923e-05
7.4412481859e-05
7.25521583143e-05
7.24530463817e-05
7.24490108009e-05
7.24487001892e-05
7.24486402369e-05
7.24517988824e-05
7.46363018541e-05
0.000939858639827
0.0205248179237
0.0804211305554
0.177501364029
6.12357328172e-05
0.00010318947773
0.000170349028203
0.000218008938753
0.000211159451227
0.000164678879047
0.000114059394922
9.54433411537e-05
7.46014073877e-05
7.25645411153e-05
7.24552358546e-05
7.24507540897e-05
7.24503812199e-05
7.24502834125e-05
7.24535820065e-05
7.47591364324e-05
0.000973901541596
0.0209347929199
0.0812907249781
0.179059785498
6.12397713945e-05
0.00010327477199
0.000170716500773
0.000219153728325
0.000212845964798
0.000166609400407
0.000115614247294
9.70383781976e-05
7.47763992299e-05
7.25750323944e-05
7.24562299958e-05
7.24513984792e-05
7.24510237609e-05
7.2450936019e-05
7.24544265481e-05
7.48877763128e-05
0.00100903294474
0.0213499096378
0.0821639128485
0.180624746144
6.13416331447e-05
0.000103469872
0.000171153800926
0.000220383462628
0.000214640171797
0.000168558998694
0.000116909291149
9.84713327604e-05
7.49369370458e-05
7.2583583137e-05
7.24560612922e-05
7.24509729518e-05
7.24506490241e-05
7.24506107304e-05
7.24543312963e-05
7.50225194678e-05
0.00104527310307
0.0217701226498
0.0830403649048
0.182194929701
6.15022152241e-05
0.000103720359179
0.000171648740191
0.000221694015111
0.000216547054382
0.000170568651945
0.000117945120517
9.97359143766e-05
7.50817771982e-05
7.25903049015e-05
7.24549063729e-05
7.24496364109e-05
7.24493979576e-05
7.2449436634e-05
7.24534197326e-05
7.51636782695e-05
0.00108261556308
0.0221950272217
0.0839191421332
0.183768622265
6.16736189534e-05
0.000104019968466
0.00017218966107
0.000223069129025
0.000218538650842
0.000172586007058
0.000118750176227
0.000100811787925
7.52086456946e-05
7.25954021094e-05
7.2453051658e-05
7.24476550632e-05
7.2447518892e-05
7.24476454149e-05
7.2451903941e-05
7.53116951458e-05
0.00112105529381
0.0226243100552
0.0847996154318
0.18534453624
6.18476115643e-05
0.00010434325759
0.000172735962287
0.000224450634063
0.000220551413902
0.000174573628954
0.000119416183502
0.000101718836381
7.53191978647e-05
7.25993081151e-05
7.24508090312e-05
7.24453122868e-05
7.24452778702e-05
7.24454924222e-05
7.24500360536e-05
7.54669892486e-05
0.00116057368228
0.023057478393
0.0856808694153
0.186921413454
6.20180051588e-05
0.000104667203379
0.000173223254887
0.000225761762908
0.000222532005818
0.00017654439496
0.00012006733179
0.000102541377789
7.54222425635e-05
7.26028150226e-05
7.24484984447e-05
7.24428969849e-05
7.2442954386e-05
7.24432471214e-05
7.24480720147e-05
7.56300894152e-05
0.00120116968482
0.0234943195238
0.0865625863575
0.188498682899
6.21825236201e-05
0.000104975333845
0.000173609828628
0.000226962605954
0.000224471473682
0.000178548262616
0.000120787689128
0.00010338715773
7.55308101787e-05
7.26069089727e-05
7.24463936693e-05
7.24406485252e-05
7.24407801314e-05
7.2441138882e-05
7.24462453327e-05
7.58014677686e-05
0.0012428378282
0.0239345240158
0.0874442424067
0.190075824454
6.23425896939e-05
0.000105261895899
0.000173900207879
0.000228064144642
0.000226391096955
0.000180626755411
0.000121607238652
0.000104339453654
7.56564069703e-05
7.26124693788e-05
7.24447365012e-05
7.24387836924e-05
7.24389697704e-05
7.24393776423e-05
7.24447567336e-05
7.59816996061e-05
0.0012855971696
0.0243781080923
0.0883259269942
0.191652953236
6.24921684249e-05
0.000105529005653
0.000174122335576
0.00022909282424
0.000228296627579
0.000182751332919
0.000122503237249
0.000105423726255
7.58048608099e-05
7.26200570931e-05
7.24437023157e-05
7.24374583128e-05
7.24376746745e-05
7.24381155659e-05
7.24437650551e-05
7.61712907139e-05
0.00132946190663
0.0248249538208
0.0892074238541
0.193230110215
6.26181730855e-05
0.000105773249402
0.000174284021184
0.000230041746868
0.000230149674613
0.000184856159936
0.000123428684293
0.00010662138703
7.5977812885e-05
7.26300162718e-05
7.2443428159e-05
7.24367963106e-05
7.24370185811e-05
7.24374726327e-05
7.24433821777e-05
7.63708511974e-05
0.00137447151899
0.0252752510608
0.0900890702069
0.194807891486
6.27056859747e-05
0.000105971000485
0.000174353240577
0.00023086935631
0.000231906030169
0.000186931359308
0.000124388475395
0.000107933840741
7.61792616001e-05
7.26427567298e-05
7.24439816569e-05
7.24368434946e-05
7.24370446566e-05
7.24374951414e-05
7.24436631397e-05
7.65809108289e-05
0.00142065591867
0.0257289899743
0.0909707906387
0.196386715523
6.27435505302e-05
0.000106109358971
0.000174302432506
0.000231559041932
0.000233570922785
0.000189010749861
0.000125441301666
0.000109413678845
7.64195201142e-05
7.26589494503e-05
7.24453924685e-05
7.24376037527e-05
7.24377593444e-05
7.24381876268e-05
7.2444606503e-05
7.68020919791e-05
0.00146806854674
0.0261864459937
0.0918530217121
0.197967490587
6.27515434029e-05
0.000106196316653
0.000174150323448
0.000232153159591
0.000235200035261
0.000191143908554
0.000126637873644
0.000111122451974
7.67118344309e-05
7.26793481527e-05
7.24476166374e-05
7.24390019141e-05
7.24390865458e-05
7.24394793445e-05
7.24461522711e-05
7.70349246051e-05
0.00151674552325
0.0266476251601
0.0927357140517
0.199550838409
6.27406153181e-05
0.00010623853462
0.000173949808298
0.000232728525667
0.000236861623559
0.000193355736062
0.000127980052069
0.000113066506182
7.70648371256e-05
7.27044300533e-05
7.24505668621e-05
7.2440934481e-05
7.24409267828e-05
7.24412693525e-05
7.24481948408e-05
7.72800154583e-05
0.00156674384352
0.0271128105954
0.0936193220551
0.20113777737
6.27000569633e-05
0.000106258500695
0.000173755723636
0.000233347667605
0.000238588343408
0.000195606760003
0.000129424965084
0.000115177851947
7.74786519496e-05
7.27341800203e-05
7.24540753605e-05
7.24432262033e-05
7.24431062222e-05
7.24433910662e-05
7.2450580328e-05
7.75378770237e-05
0.0016180954838
0.0275819640084
0.0945037781317
0.202728909975
6.26268964406e-05
0.000106259296636
0.000173587596652
0.000234019536202
0.000240363004564
0.000197833324378
0.000130943060853
0.000117379610395
7.79505536961e-05
7.27683436507e-05
7.24579440171e-05
7.24456866003e-05
7.24454435769e-05
7.24456651488e-05
7.24531277521e-05
7.78090896811e-05
0.00167085450294
0.0280553589792
0.0953895558664
0.204325130415
6.25373927682e-05
0.000106260706585
0.000173427868941
0.000234718693447
0.000242162671551
0.000200049657719
0.000132576361555
0.000119661627369
7.84845459076e-05
7.28068758459e-05
7.24619315274e-05
7.2448071107e-05
7.24477019012e-05
7.24478665306e-05
7.24556282216e-05
7.80941401908e-05
0.00172504272895
0.0285328966979
0.0962765619379
0.205926742604
6.24614639386e-05
0.00010628445897
0.000173262795442
0.000235440597514
0.000243999618364
0.000202272811453
0.000134379571999
0.000122058659124
7.90930104396e-05
7.28501161149e-05
7.24658293548e-05
7.24501711844e-05
7.24496854758e-05
7.244980446e-05
7.24578905408e-05
7.83935747512e-05
0.00178070352927
0.0290147969256
0.0971652419845
0.207534210714
6.24156409566e-05
0.000106343081735
0.000173103818951
0.000236215853358
0.000245913988447
0.000204541805819
0.000136357708798
0.000124570594998
7.9788482836e-05
7.28984344683e-05
7.24694451337e-05
7.24517852182e-05
7.24511975253e-05
7.24512907905e-05
7.24597394917e-05
7.87078175587e-05
0.00183783197874
0.0295007401975
0.0980552408027
0.209147124545
6.23919404608e-05
0.000106437908255
0.000172973930082
0.00023707877055
0.000247934050958
0.000206853270187
0.000138461520617
0.000127127922882
8.05750753629e-05
7.29518735493e-05
7.24726700691e-05
7.2452812632e-05
7.24521430407e-05
7.24522315724e-05
7.24610771849e-05
7.90370480742e-05
0.00189635801368
0.0299894852153
0.0989415685145
0.210756993293
6.23825795873e-05
0.000106573972463
0.000172881370994
0.000238020350499
)
;

boundaryField
{
    emptyPatch
    {
        type            empty;
    }
    minY
    {
        type            fixedValue;
        value           nonuniform List<scalar> 0();
    }
    maxY
    {
        type            inletOutlet;
        inletValue      nonuniform List<scalar> 0();
        value           nonuniform List<scalar> 0();
    }
    maxX
    {
        type            kqRWallFunction;
        value           nonuniform List<scalar> 
37
(
0.15448467794
0.156033846252
0.157575424258
0.159115523367
0.160653587389
0.162188421529
0.163719625828
0.165247307771
0.16677215727
0.168295226239
0.169818262414
0.17134324996
0.172872484828
0.174407800215
0.175950631078
0.177501364029
0.179059785498
0.180624746144
0.182194929701
0.183768622265
0.18534453624
0.186921413454
0.188498682899
0.190075824454
0.191652953236
0.193230110215
0.194807891486
0.196386715523
0.197967490587
0.199550838409
0.20113777737
0.202728909975
0.204325130415
0.205926742604
0.207534210714
0.209147124545
0.210756993293
)
;
    }
    water_to_heater
    {
        type            kqRWallFunction;
        value           nonuniform List<scalar> 
60
(
1.87425458029
1.87425458029
1.89457263908
1.89457263908
1.9106969531
1.9106969531
1.90598782242
1.87543885008
1.83049192267
1.83049192267
1.77998903134
1.77998903134
1.70528277853
1.70528277853
1.60309324299
1.51400725086
1.47492890449
1.47492890449
1.46575729652
1.46575729652
1.47121479189
1.47121479189
1.46612955345
1.44477282873
1.42513813866
1.42513813866
1.41513470241
1.41513470241
1.40202896689
1.40202896689
1.36820760684
1.3295428297
1.3158794908
1.3158794908
1.3091709289
1.3091709289
1.30633792553
1.30633792553
1.29816449117
1.28927850464
1.28309330264
1.28309330264
1.28636080904
1.28636080904
1.29561625909
1.29561625909
1.31051418171
1.32185475128
1.32102479452
1.32102479452
1.31176108812
1.31176108812
1.30091685642
1.30091685642
1.28527963612
1.26550902689
1.24700959212
1.24700959212
1.22993010573
1.22993010573
)
;
    }
    procBoundary1to0
    {
        type            processor;
        value           nonuniform List<scalar> 
41
(
1.22207629064
0.636539698802
0.372214545337
0.220289675086
0.119468917681
0.0612712590321
0.0349970536868
0.0220344116088
0.0124432304185
0.00512365333583
0.00205154107957
0.000465128069845
8.90875846682e-05
2.954865365e-05
2.26617454049e-05
2.19926969566e-05
2.23720440028e-05
2.35667961336e-05
2.63230475995e-05
3.58911119127e-05
0.00025004147063
0.000209148695392
0.000140644827025
0.000129648976813
8.14532818097e-05
7.30103051831e-05
7.24752756438e-05
7.24530147625e-05
7.24522817461e-05
7.24523845413e-05
7.24616585447e-05
7.93800471252e-05
0.00195585804458
0.0304756109604
0.0998248320265
0.21241138167
6.23900485572e-05
0.000106755639285
0.00017279691364
0.00025004147063
0.000238977070472
)
;
    }
    procBoundary1to3
    {
        type            processor;
        value           nonuniform List<scalar> 
41
(
0.0209242404454
0.0115128534524
0.00445485371671
0.00157996282921
0.000325478382936
6.14785641524e-05
2.39984819893e-05
1.93693592261e-05
1.84129695114e-05
1.82964791817e-05
1.92450984131e-05
2.27617563649e-05
3.43456686292e-05
1.86031337267
0.781701634957
0.32352980214
0.131960444673
0.0630350622909
0.041294775597
0.0305586586853
0.0305586586853
6.05214735431e-05
0.000101941957913
0.000164943070541
0.000202233979622
0.000189230301698
0.000141653790564
0.000107323234793
7.95310990324e-05
7.30811426437e-05
7.2478697001e-05
7.24487116796e-05
7.24472207005e-05
7.24469465501e-05