/*--------------------------------*- C++ -*----------------------------------*\
| =========                 |                                                 |
| \\      /  F ield         | OpenFOAM: The Open Source CFD Toolbox           |
|  \\    /   O peration     | Version:  2312                                  |
|   \\  /    A nd           | Website:  www.openfoam.com                      |
|    \\/     M anipulation  |                                                 |
\*---------------------------------------------------------------------------*/
FoamFile
{
    version     2.0;
    format      ascii;
    arch        "LSB;label=32;scalar=64";
    class       volScalarField;
    location    "0.745/water";
    object      alphat.gas;
}
// * * * * * * * * * * * * * * * * * * * * * * * * * * * * * * * * * * * * * //

dimensions      [1 -1 -1 0 0 0 0];

internalField   nonuniform List<scalar> 
1496
(
2.8002019272e-06
2.98418572262e-06
2.50668378136e-06
2.01009957055e-06
1.77872140336e-06
1.64578024564e-06
1.5100318724e-06
1.3742730506e-06
1.27169358019e-06
1.21554344748e-06
1.18988901002e-06
1.16620342404e-06
1.12482113394e-06
1.0603739514e-06
9.7710003953e-07
8.72657057155e-07
7.37780816203e-07
6.03010126217e-07
4.72594001533e-07
3.30636105056e-07
3.12002874619e-06
3.06773598429e-06
2.56876869493e-06
2.01297264656e-06
1.7274207177e-06
1.59976166261e-06
1.5020807677e-06
1.41155328133e-06
1.34682247727e-06
1.30690760098e-06
1.26821380759e-06
1.21330495942e-06
1.14310941723e-06
1.06205678214e-06
9.70842936341e-07
8.55284927786e-07
7.27560201992e-07
6.12035534731e-07
4.87028875264e-07
3.41097919859e-07
3.29496201068e-06
3.14066925425e-06
2.63280671524e-06
2.10756539946e-06
1.8160255417e-06
1.68062888973e-06
1.59008061405e-06
1.51775999054e-06
1.46595757667e-06
1.41703546613e-06
1.3470139117e-06
1.25568338783e-06
1.15954625161e-06
1.06444088589e-06
9.58558693982e-07
8.37528130491e-07
7.29211307611e-07
6.26902802171e-07
5.02120162637e-07
3.51140340183e-07
3.42192975093e-06
3.25909356611e-06
2.78066224753e-06
2.31809198644e-06
2.03420252551e-06
1.87050413357e-06
1.75647015388e-06
1.67461363409e-06
1.61287394835e-06
1.54036093842e-06
1.43406381757e-06
1.30672520903e-06
1.18452106805e-06
1.06694627304e-06
9.43941623657e-07
8.31964668051e-07
7.40742403882e-07
6.43865509714e-07
5.16355472714e-07
3.60237318423e-07
3.5304921542e-06
3.43778456231e-06
3.04355201692e-06
2.61598973445e-06
2.30494830747e-06
2.09970587013e-06
1.9568319548e-06
1.85756470964e-06
1.77906533156e-06
1.68043084859e-06
1.53629158282e-06
1.36765617339e-06
1.2096245669e-06
1.06638924381e-06
9.39993359745e-07
8.4096362548e-07
7.5644268502e-07
6.58541060888e-07
5.28028071198e-07
3.6616798617e-07
3.49338947975e-06
3.52662748997e-06
3.2118562721e-06
2.83075977022e-06
2.53055698593e-06
2.31793511098e-06
2.16287418814e-06
2.04909418867e-06
1.95044457787e-06
1.82002563898e-06
1.62936807866e-06
1.41282070587e-06
1.22398257679e-06
1.07221896674e-06
9.52306622649e-07
8.58154616994e-07
7.71617372965e-07
6.69804962968e-07
5.34441800296e-07
3.64704082234e-07
2.82052483073e-06
3.45081340733e-06
3.32620805472e-06
3.04212089343e-06
2.77467877883e-06
2.55227551028e-06
2.37221443974e-06
2.22881160463e-06
2.09482148839e-06
1.92053427998e-06
1.68516951358e-06
1.4387865675e-06
1.24194144407e-06
1.09294074433e-06
9.75280098287e-07
8.77601951108e-07
7.84497305212e-07
6.75532250551e-07
5.31200344177e-07
3.51144620786e-07
2.52052255563e-06
3.39780929348e-06
3.49739080607e-06
3.3070704114e-06
3.05523894635e-06
2.80392582512e-06
2.57712138043e-06
2.38242579196e-06
2.19694272755e-06
1.97821884859e-06
1.71991626963e-06
1.47219922466e-06
1.27759048699e-06
1.1282432801e-06
1.00516723458e-06
8.9734879364e-07
7.92454135239e-07
6.70931553937e-07
5.13000763657e-07
3.22036609177e-07
2.44825467712e-06
3.47334984355e-06
3.73665666373e-06
3.61484354953e-06
3.35478130332e-06
3.05707855513e-06
2.77182699118e-06
2.51732053479e-06
2.27829267821e-06
2.02610745257e-06
1.76214383848e-06
1.52108586287e-06
1.32609939216e-06
1.16877401951e-06
1.0332909558e-06
9.10940955879e-07
7.89885628079e-07
6.50470777842e-07
4.75124698132e-07
2.76092362092e-07
2.38492307593e-06
3.48520583381e-06
3.90000544081e-06
3.85919694271e-06
3.60402011724e-06
3.27388562028e-06
2.94127430563e-06
2.63469815052e-06
2.34986984826e-06
2.07210471213e-06
1.80437897015e-06
1.56577201891e-06
1.36600270327e-06
1.19696324356e-06
1.04666147218e-06
9.08187970561e-07
7.68213267578e-07
6.06832204421e-07
4.1290981476e-07
2.14678644475e-07
2.34444501513e-06
3.43841442112e-06
3.92792524641e-06
3.97127686019e-06
3.74104738517e-06
3.40367560805e-06
3.0466629078e-06
2.70642230795e-06
2.39036166259e-06
2.09564167341e-06
1.82507412571e-06
1.5859743277e-06
1.37939470939e-06
1.19627205592e-06
1.03210760742e-06
8.77926537969e-07
7.17031630762e-07
5.30785755992e-07
3.22864275893e-07
1.44257140064e-07
2.30352018e-06
3.348736191e-06
3.84671874498e-06
3.93372936161e-06
3.7437166706e-06
3.42342571852e-06
3.0627960606e-06
2.70849828803e-06
2.37929345812e-06
2.07877085699e-06
1.80728796737e-06
1.56366691111e-06
1.34637153885e-06
1.15361037454e-06
9.79472560021e-07
8.10193305712e-07
6.25311953829e-07
4.14209907872e-07
2.1288647018e-07
8.09352767923e-08
2.24658154554e-06
3.2283272378e-06
3.69899365812e-06
3.78296686924e-06
3.62318360445e-06
3.32756538971e-06
2.97745533969e-06
2.63026812803e-06
2.30437440148e-06
2.00307284232e-06
1.72732601731e-06
1.47954517217e-06
1.26028439698e-06
1.0658724719e-06
8.85589780399e-07
6.98509676607e-07
4.85118881917e-07
2.68718871608e-07
1.12331056177e-07
3.83804856038e-08
2.17207820412e-06
3.0895699125e-06
3.51872558221e-06
3.5486359234e-06
3.36135616163e-06
3.08289416141e-06
2.77049122488e-06
2.45088880564e-06
2.1405895379e-06
1.84885148456e-06
1.58181735136e-06
1.34331531752e-06
1.1328958528e-06
9.43013925072e-07
7.54189782002e-07
5.39815069118e-07
3.13860363579e-07
1.37647366069e-07
4.70788135539e-08
1.68582484499e-08
2.04263500852e-06
2.87387105114e-06
3.17869846488e-06
3.11724958985e-06
2.94596360381e-06
2.72442070194e-06
2.463627815e-06
2.18567138314e-06
1.90818185921e-06
1.64322014738e-06
1.39946770844e-06
1.18142428494e-06
9.86239701596e-07
7.98288142608e-07
5.86796655578e-07
3.54031007401e-07
1.60832400219e-07
5.49515078346e-08
1.89082860018e-08
9.76179128024e-09
1.83685065138e-06
2.55890022662e-06
2.72372956868e-06
2.59823636577e-06
2.46600380676e-06
2.30450842603e-06
2.10538018224e-06
1.88270164582e-06
1.65192513504e-06
1.42577423083e-06
1.21410053338e-06
1.02068386299e-06
8.35752374218e-07
6.33857715599e-07
3.99222102449e-07
1.87400540728e-07
6.45693712229e-08
2.20987823631e-08
1.11927316148e-08
7.24812849767e-09
1.60712726625e-06
2.17576158758e-06
2.17223220776e-06
2.04275923821e-06
1.97798581401e-06
1.89277588614e-06
1.76323833032e-06
1.60019080755e-06
1.41862421205e-06
1.2320855856e-06
1.05073236877e-06
8.73491598862e-07
6.80498340524e-07
4.56887829626e-07
2.25282014706e-07
7.96610362381e-08
2.81340454365e-08
1.37378671028e-08
8.57037218174e-09
6.0475653388e-09
1.50553985194e-06
1.79404252402e-06
1.64910564406e-06
1.57724766779e-06
1.58527835975e-06
1.56879156885e-06
1.49747652193e-06
1.38160896657e-06
1.23735352003e-06
1.07919086771e-06
9.14721286679e-07
7.34061532667e-07
5.24809281183e-07
2.84157925128e-07
1.05466827966e-07
3.9314452393e-08
1.86980713414e-08
1.09844034764e-08
7.55417982796e-09
5.5853168695e-09
1.43323836729e-06
1.47923949171e-06
1.31794963202e-06
1.29554922508e-06
1.35174805905e-06
1.37265634165e-06
1.33017542121e-06
1.23683232654e-06
1.10966032516e-06
9.625739044e-07
7.96371371835e-07
6.00481317368e-07
3.73109081477e-07
1.52133222507e-07
5.93462750963e-08
2.82655280558e-08
1.59635875652e-08
1.04546047945e-08
7.61443191987e-09
5.77040471048e-09
1.36258904269e-06
1.32749355785e-06
1.1979089749e-06
1.20581169071e-06
1.27000450175e-06
1.28685049363e-06
1.24065684837e-06
1.14628516124e-06
1.0201057844e-06
8.70620652323e-07
6.90199072642e-07
4.70193237389e-07
2.35198366016e-07
9.57810846751e-08
4.60660601105e-08
2.59358707569e-08
1.65766632534e-08
1.18150927442e-08
8.94913250631e-09
6.83611970042e-09
1.37649659409e-06
1.4331022195e-06
1.3000054979e-06
1.26588807437e-06
1.27985395461e-06
1.25792572467e-06
1.19027549735e-06
1.08740518792e-06
9.57844050749e-07
7.96612089981e-07
5.91245656304e-07
3.57020636748e-07
1.62756666515e-07
7.87028406357e-08
4.48293542969e-08
2.87678313267e-08
2.0538500688e-08
1.58175548792e-08
1.24981673349e-08
9.82590306993e-09
1.50039478306e-06
1.71162076104e-06
1.54018467885e-06
1.38753515167e-06
1.30910765171e-06
1.24308017494e-06
1.15954872569e-06
1.05229319092e-06
9.16950691656e-07
7.39514675765e-07
5.13072462284e-07
2.87781438488e-07
1.41244384168e-07
7.99469108393e-08
5.16666987309e-08
3.70566380627e-08
2.91449114253e-08
2.42710733926e-08
2.07369947477e-08
1.81632690148e-08
1.69131603295e-06
1.90724803343e-06
1.77548177093e-06
1.49154503449e-06
1.33800365132e-06
1.24166514359e-06
1.14839877756e-06
1.04159588992e-06
9.02989777107e-07
7.1007941591e-07
4.72052745238e-07
2.6873899213e-07
1.50393259043e-07
9.55758839575e-08
6.74764678811e-08
5.24740362366e-08
4.42847015118e-08
3.97282417104e-08
3.76732600404e-08
3.6846376612e-08
1.94871431726e-06
2.03887829057e-06
1.91969228292e-06
1.60099136313e-06
1.40424247466e-06
1.27839736763e-06
1.17531032813e-06
1.06788928527e-06
9.24270676499e-07
7.15989761383e-07
4.81206814706e-07
3.00273165905e-07
1.91130634271e-07
1.31196668735e-07
9.73993903587e-08
7.88780182786e-08
6.89855522418e-08
6.49657476333e-08
6.56528896016e-08
6.83779769219e-08
2.29228087144e-06
2.2572396675e-06
2.09879954269e-06
1.78696556206e-06
1.54857077863e-06
1.38296286168e-06
1.25896188022e-06
1.14097054298e-06
9.81630771938e-07
7.66748556413e-07
5.50185382179e-07
3.83131192525e-07
2.69239679723e-07
1.95818996503e-07
1.5033032565e-07
1.23646225664e-07
1.08997083525e-07
1.0378195591e-07
1.0667686071e-07
1.1392326608e-07
2.68503298619e-06
2.62550929757e-06
2.37807695532e-06
2.05449954831e-06
1.77190037486e-06
1.55817033883e-06
1.40182919645e-06
1.25783607664e-06
1.07899368059e-06
8.71667201869e-07
6.78040747792e-07
5.18282110576e-07
3.93168580021e-07
3.01079996633e-07
2.38426521563e-07
1.98285067942e-07
1.74223050833e-07
1.63893938731e-07
1.6648132162e-07
1.76024502894e-07
3.02180903506e-06
2.96996873405e-06
2.68422480437e-06
2.32856389816e-06
2.01304147528e-06
1.77032895333e-06
1.58668586804e-06
1.41480512801e-06
1.22154503554e-06
1.0235344465e-06
8.46420120949e-07
6.9343102624e-07
5.6178869568e-07
4.53767539654e-07
3.7280554962e-07
3.16319680295e-07
2.78758091776e-07
2.57784108496e-07
2.54226017166e-07
2.56900472626e-07
2.86879437491e-06
3.02272465084e-06
2.81165446685e-06
2.49844636965e-06
2.21099472313e-06
1.97352433077e-06
1.77779036008e-06
1.58760494808e-06
1.38509559589e-06
1.18930572361e-06
1.01894727598e-06
8.73920848311e-07
7.47584089405e-07
6.37588836612e-07
5.4776948313e-07
4.79610753528e-07
4.29636461717e-07
3.93426557808e-07
3.7302437085e-07
3.50928329264e-07
2.2689927012e-06
2.95305794699e-06
2.92643913865e-06
2.68032169444e-06
2.39991631322e-06
2.14906507661e-06
1.93989444298e-06
1.7394424565e-06
1.53093446718e-06
1.33130833401e-06
1.16034939032e-06
1.02141322864e-06
9.06727863753e-07
8.0907821798e-07
7.26375490234e-07
6.58233290984e-07
6.01463895007e-07
5.49449256128e-07
4.99188172451e-07
4.35289248964e-07
2.02032224927e-06
2.92432453489e-06
3.0964281173e-06
2.89529541595e-06
2.5930337441e-06
2.30672256983e-06
2.06644818128e-06
1.84651908914e-06
1.62997842645e-06
1.42773550531e-06
1.25670496984e-06
1.12197299891e-06
1.01656502492e-06
9.32644436106e-07
8.62697277741e-07
8.00362065861e-07
7.38706172816e-07
6.69252548531e-07
5.84044914656e-07
4.77449535137e-07
1.93306857828e-06
2.92756259117e-06
3.2089157133e-06
3.04487112235e-06
2.73342229265e-06
2.4200299018e-06
2.14860381752e-06
1.90468198465e-06
1.67782564313e-06
1.47567476301e-06
1.30914243538e-06
1.17984985689e-06
1.08095229928e-06
1.00469922737e-06
9.40152310874e-07
8.76564059724e-07
8.04227122754e-07
7.14117495646e-07
5.98524408375e-07
4.5992104392e-07
1.90625702756e-06
2.87065711456e-06
3.13540963215e-06
3.01692039753e-06
2.74821697466e-06
2.44914703004e-06
2.1709473055e-06
1.91571215149e-06
1.68417791913e-06
1.48658803039e-06
1.32709616362e-06
1.20429202245e-06
1.11078613114e-06
1.03591642771e-06
9.67133455447e-07
8.92926500778e-07
8.02746759962e-07
6.89247939484e-07
5.45608573033e-07
3.91011235427e-07
1.90645021913e-06
2.74513953961e-06
2.91747586953e-06
2.84998581968e-06
2.65197036315e-06
2.39578428408e-06
2.1319808778e-06
1.88067118639e-06
1.65703739754e-06
1.46978250898e-06
1.32169339886e-06
1.2078430303e-06
1.11749044409e-06
1.03821299565e-06
9.57908869158e-07
8.645482926e-07
7.49734700337e-07
6.06829205096e-07
4.42330202148e-07
3.01389887015e-07
1.95423689539e-06
2.64572755886e-06
2.6784818904e-06
2.60981112991e-06
2.45873479092e-06
2.24964237773e-06
2.02306032041e-06
1.80208417067e-06
1.60447433282e-06
1.43970145441e-06
1.30783372451e-06
1.20140307032e-06
1.10928267052e-06
1.01948406042e-06
9.18410575337e-07
7.96134050617e-07
6.47734930951e-07
4.79557263928e-07
3.29178729338e-07
2.25047490069e-07
2.07160767227e-06
2.49362266692e-06
2.42082328587e-06
2.3252823723e-06
2.20330297458e-06
2.0377179623e-06
1.86057918982e-06
1.69113846699e-06
1.53982447536e-06
1.40872494233e-06
1.29351921217e-06
1.18897817042e-06
1.08789050375e-06
9.7677309135e-07
8.43160573711e-07
6.82999276111e-07
5.09566892792e-07
3.54579389749e-07
2.40231320632e-07
1.66803762184e-07
2.48156147753e-06
2.73878316679e-06
2.35931433519e-06
2.11798714103e-06
1.96655119216e-06
1.81528216546e-06
1.67965053866e-06
1.56912918647e-06
1.47521304351e-06
1.38129350852e-06
1.27765316297e-06
1.16682604224e-06
1.04560404263e-06
9.02029022091e-07
7.3073510548e-07
5.46660525851e-07
3.8276513179e-07
2.59118338231e-07
1.75842222452e-07
1.22731896022e-07
3.01451451319e-06
2.96628385916e-06
2.49736108682e-06
2.0861759061e-06
1.84167113271e-06
1.65540874625e-06
1.53163997435e-06
1.46969995313e-06
1.42734592526e-06
1.35961850969e-06
1.25605656767e-06
1.12977926715e-06
9.82508740105e-07
8.07309714294e-07
6.13638794719e-07
4.33913187481e-07
2.93380579584e-07
1.95435756064e-07
1.31555022468e-07
9.06783618003e-08
1.52009617428e-08
1.46428294416e-08
2.45893634727e-08
4.59001383453e-08
4.98580918323e-08
5.01815126583e-08
5.09554757499e-08
6.6768095502e-08
9.09561187836e-08
1.2390230735e-07
1.28600542506e-07
1.25809828125e-07
1.75677500869e-07
2.4215188214e-07
4.30677972176e-07
2.14398225653e-06
1.93525474976e-07
9.32555598199e-08
3.83041972115e-08
2.18660842999e-08
1.31039776763e-08
1.39071084217e-08
2.70022411813e-08
5.03954160001e-08
4.49506655068e-08
4.50840312231e-08
4.9182282309e-08
7.07627955547e-08
9.67964628615e-08
1.18865679296e-07
1.21299049367e-07
1.1464354853e-07
1.72346030984e-07
2.43095839771e-07
3.87718599983e-07
2.12765955331e-06
1.97949964258e-07
9.35419127824e-08
4.43071546001e-08
2.00308921587e-08
1.12307232653e-08
1.37442444876e-08
2.93078410941e-08
5.00685963093e-08
3.89174858728e-08
3.58122474014e-08
4.59160908163e-08
6.84799431571e-08
9.23324148181e-08
1.11469628164e-07
1.11220997513e-07
9.92420254066e-08
1.65987851929e-07
2.42922537682e-07
4.01973849061e-07
2.12270992124e-06
2.02312964407e-07
9.35247347761e-08
4.88250099525e-08
1.78671981397e-08
9.73151968775e-09
1.41867327411e-08
3.11021560287e-08
4.65888906003e-08
3.43600530684e-08
2.74167795671e-08
3.84810011255e-08
6.02633470279e-08
8.40330258694e-08
1.04779434796e-07
1.07774009452e-07
7.9297958827e-08
1.54642775274e-07
2.41466209761e-07
4.35922209063e-07
2.12529182649e-06
2.05210575468e-07
9.28349171897e-08
4.56163144809e-08
1.57618563581e-08
8.71290932802e-09
1.51023819223e-08
3.25114101117e-08
3.47451444173e-08
3.02747196774e-08
2.79299870376e-08
3.06005379254e-08
5.01043380596e-08
7.60838725012e-08
9.89622292094e-08
1.06517912227e-07
5.61762337098e-08
1.39434724679e-07
2.39849497405e-07
4.81257633271e-07
2.13762865106e-06
2.0390496922e-07
1.03942352841e-07
4.12357110387e-08
1.36421735628e-08
8.1761560797e-09
1.64664975235e-08
3.3546560561e-08
2.91868649335e-08
2.66858966101e-08
2.45680584793e-08
2.20814249084e-08
5.16140447458e-08
7.664398463e-08
9.8164412471e-08
1.06359884464e-07
3.74659065978e-08
1.21727771601e-07
2.4006659409e-07
5.24200138209e-07
2.16333087735e-06
1.95255162868e-07
1.01388515868e-07
3.57895657533e-08
1.14580711111e-08
8.10565588839e-09
1.82139316306e-08
3.2088507959e-08
2.75345813084e-08
2.39625808627e-08
1.88419246842e-08
1.46527905689e-08
4.99661600445e-08
7.36933641101e-08
9.45417804609e-08
1.03571724165e-07
2.87964105592e-08
1.08473418857e-07
2.43653545846e-07
5.48957735116e-07
2.20703106942e-06
1.77175072669e-07
8.64261089801e-08
2.9340274299e-08
9.34336758375e-09
8.47180097615e-09
2.03724373507e-08
2.40849216558e-08
2.65099988239e-08
2.16164049168e-08
1.36093176084e-08
9.61198513815e-09
4.20095682067e-08
6.74129489499e-08
8.75451728105e-08
9.78964371311e-08
2.51013311696e-08
1.02322320477e-07
2.51103133987e-07
4.87486396112e-07
2.26945396432e-06
1.49672185112e-07
6.60566162728e-08
2.25268266537e-08
7.51806672368e-09
9.41507392228e-09
1.60545816643e-08
2.36521399049e-08
2.61217620215e-08
1.87531445773e-08
1.00203111758e-08
8.9061830768e-09
3.35005444284e-08
6.19476023e-08
7.95787733292e-08
8.8699231814e-08
2.35111545352e-08
1.09566455329e-07
2.64916202435e-07
4.28271813942e-07
2.3059421262e-06
1.15339546858e-07
4.18039598878e-08
1.62545120468e-08
6.32015444668e-09
1.02946851977e-08
1.63374310641e-08
2.4149644919e-08
2.54163248762e-08
1.54668935953e-08
7.93711699323e-09
9.58620302919e-09
2.94985582822e-08
5.84071763366e-08
6.81872624587e-08
6.92358145724e-08
2.75560564227e-08
1.43029212493e-07
2.83806336723e-07
4.24633090637e-07
2.19649131395e-06
7.91371808988e-08
2.36939001802e-08
1.12620720525e-08
5.37407271428e-09
8.61020380678e-09
1.69309616477e-08
2.55254399517e-08
2.40933558492e-08
1.29647216483e-08
7.40105208968e-09
1.03401362283e-08
2.65555304848e-08
5.36496317633e-08
5.70355733476e-08
3.79711981487e-08
5.51674565973e-08
1.97687885341e-07
2.96992663146e-07
3.82433120817e-07
2.07687353339e-06
4.81039484132e-08
1.54140493005e-08
5.56991355223e-09
4.26615714106e-09
9.13700523414e-09
1.86466123537e-08
2.67922092115e-08
2.2849265522e-08
1.24336950301e-08
8.55954157749e-09
1.16644344469e-08
2.37999254417e-08
4.73750460755e-08
5.13647532178e-08
2.82109288146e-08
9.09693643998e-08
2.22177712344e-07
2.97161230252e-07
3.36463731362e-07
2.01506548963e-06
2.71691923187e-08
1.01408865122e-08
4.20451753829e-09
4.23448698176e-09
9.97117626733e-09
2.09752594608e-08
2.77829715713e-08
2.25045483068e-08
1.43187819818e-08
1.13151182488e-08
1.34780338178e-08
2.11773666154e-08
3.90835829841e-08
3.74972138355e-08
2.52016088338e-08
1.15171443571e-07
2.27777864577e-07
2.88741755769e-07
3.25451991794e-07
2.03787752029e-06
1.44655374241e-08
6.71697202761e-09
3.43201488435e-09
4.11520849094e-09
1.12519216538e-08
2.35867032223e-08
2.83596969855e-08
2.27130229661e-08
1.8638808622e-08
1.78710924561e-08
1.77390437313e-08
1.9552168774e-08
3.23441917916e-08
2.57753538473e-08
5.98878873853e-08
1.60768824945e-07
2.28723149963e-07
2.73792480762e-07
3.16947559755e-07
2.17603317988e-06
8.53196912319e-09
4.86880794709e-09
2.72520409974e-09
4.19496286154e-09
1.31740087541e-08
2.62823997588e-08
2.83154969375e-08
2.20979511058e-08
2.21817925341e-08
3.05460049366e-08
3.36879144672e-08
2.64936752991e-08
2.5684702858e-08
4.85260750835e-08
1.12791954888e-07
1.8062080939e-07
2.26781255658e-07
2.58706865849e-07
3.02335011672e-07
2.45687276373e-06
6.16376288018e-09
3.72371638753e-09
2.14515678306e-09
4.83410781562e-09
1.60860258347e-08
2.87759017528e-08
2.75480380846e-08
2.10167894714e-08
2.37638414421e-08
3.92671928568e-08
5.8727495295e-08
6.15748535208e-08
4.11111872905e-08
9.66640898027e-08
1.3780082032e-07
1.90247834996e-07
2.27284688754e-07
2.45649893911e-07
2.7708037334e-07
2.52598302481e-06
4.86666131781e-09
3.00719919209e-09
1.77094451659e-09
6.44106325964e-09
2.00950927183e-08
3.06257796873e-08
2.58913011872e-08
2.05456876095e-08
2.74279536414e-08
4.71190822952e-08
7.55816940098e-08
1.00032039441e-07
9.91030756061e-08
1.23605433278e-07
1.50689251288e-07
1.80791727379e-07
1.98761763092e-07
2.22700437009e-07
2.49411177527e-07
2.30325726105e-06
4.21372134704e-09
2.66740143027e-09
1.76754299176e-09
9.59914902606e-09
2.485865791e-08
3.11213009097e-08
2.35370725963e-08
2.17073287074e-08
3.40564562421e-08
5.75974062992e-08
9.13324045719e-08
1.21152361372e-07
1.26455335721e-07
1.34307222486e-07
1.47614918877e-07
1.57296801075e-07
1.74189001155e-07
2.04524676613e-07
3.14942767229e-07
2.10645711972e-06
4.00803844087e-09
2.54971548531e-09
2.77587319166e-09
1.46974761736e-08
2.93996332013e-08
2.97091109879e-08
2.14155318311e-08
2.4539737092e-08
3.96684116305e-08
6.55873516069e-08
9.95263500795e-08
1.11055567563e-07
1.12981673251e-07
1.1883043007e-07
1.2179955463e-07
1.3004698883e-07
1.50982464468e-07
1.84661821653e-07
2.84621426981e-07
1.96006833967e-06
4.2314594037e-09
2.92135793073e-09
5.68860513825e-09
2.14112206636e-08
3.2545794108e-08
2.67991488612e-08
2.02117685436e-08
2.64587377247e-08
3.95535135261e-08
5.97424653609e-08
7.07079448801e-08
7.4318744517e-08
8.4549348905e-08
9.03241661313e-08
9.02518370636e-08
9.89471712449e-08
1.22077049437e-07
1.64880011874e-07
2.02378999457e-07
1.88626543843e-06
5.10414631876e-09
4.90801883775e-09
1.15098963127e-08
2.85189290764e-08
3.39916815522e-08
2.36456772876e-08
1.95380187326e-08
2.50520440578e-08
3.16349774411e-08
3.66272233278e-08
4.10132935973e-08
4.46968709075e-08
5.26325819382e-08
5.80146255166e-08
5.86843349852e-08
6.80879606161e-08
9.80850029205e-08
1.48323990392e-07
1.87253004651e-07
1.80251203258e-06
8.08884376172e-09
1.0357806225e-08
2.0264858376e-08
3.54810666035e-08
3.49895716792e-08
2.16228016093e-08
1.81944254507e-08
2.11409024263e-08
2.23793995621e-08
2.22855713107e-08
2.29622054989e-08
2.43571241286e-08
2.83392929385e-08
3.32598779576e-08
3.78824425526e-08
5.07409143286e-08
8.98486712771e-08
1.46250087429e-07
1.84299070888e-07
1.71846193528e-06
1.69047840372e-08
2.09303723222e-08
3.1819912597e-08
4.35092449763e-08
3.74453272344e-08
2.17172411306e-08
1.6803185069e-08
1.77958394782e-08
1.68833769464e-08
1.50355132193e-08
1.45431702429e-08
1.50631800276e-08
1.72184206665e-08
2.15879545844e-08
2.89399007441e-08
4.46722496161e-08
8.74787667059e-08
1.50240616581e-07
1.82119340695e-07
1.60420543747e-06
3.58293070763e-08
3.90239731391e-08
4.76883209114e-08
5.47399683549e-08
4.30304657095e-08
2.45511243134e-08
1.70505855717e-08
1.61734534236e-08
1.47443002483e-08
1.21080411526e-08
1.12539383452e-08
1.21330187901e-08
1.41750478888e-08
1.77123161144e-08
2.6977859612e-08
4.21108308903e-08
8.74698089668e-08
1.55808164214e-07
1.82326184166e-07
1.30427623758e-06
6.8388470992e-08
6.81496676739e-08
7.1694482459e-08
7.0848937206e-08
5.25119433793e-08
3.08344537019e-08
1.99463723476e-08
1.65899151389e-08
1.46630946386e-08
1.15822704132e-08
9.96844823611e-09
1.04775257341e-08
1.40259168092e-08
2.05614864267e-08
2.41925819663e-08
4.48015201243e-08
9.68032693558e-08
1.70167449572e-07
1.92557261234e-07
8.08229571045e-07
1.16306392478e-07
1.11222494063e-07
1.04977950066e-07
9.1866708414e-08
6.61626763542e-08
4.08490941966e-08
2.57246933042e-08
1.90549141339e-08
1.55471799867e-08
1.19889032755e-08
9.45755256015e-09
8.88736817183e-09
1.24768852088e-08
2.06664574827e-08
3.6738666835e-08
5.55654396058e-08
1.23359786852e-07
1.99047253705e-07
2.14319513382e-07
4.3926768674e-07
1.78421725749e-07
1.64577985743e-07
1.42645772678e-07
1.14675994267e-07
8.2034779385e-08
5.28332235706e-08
3.33034811199e-08
2.27459354649e-08
1.68227483783e-08
1.22395643107e-08
9.03103308356e-09
7.80230816644e-09
1.13410492643e-08
2.11820081663e-08
5.43291484488e-08
9.68483613967e-08
1.64703386842e-07
2.44859668231e-07
2.49159766414e-07
3.26386884082e-07
2.49081289095e-07
2.18814233031e-07
1.77841603648e-07
1.35060017269e-07
9.56609713312e-08
6.26637738275e-08
3.93482813738e-08
2.54861925839e-08
1.74328169072e-08
1.19605417017e-08
8.41095798066e-09
8.4359330719e-09
1.11825519245e-08
2.77184080933e-08
5.17379715517e-08
1.33519704823e-07
1.97712213043e-07
2.8146549985e-07
2.80238761457e-07
3.27062188427e-07
3.16123710996e-07
2.62674924486e-07
2.03737694533e-07
1.49007070353e-07
1.02680712574e-07
6.62546740359e-08
4.09372175511e-08
2.56845941239e-08
1.67995379943e-08
1.10769834533e-08
7.73462953995e-09
8.74531685643e-09
1.75494228383e-08
2.8215233496e-08
5.1742728941e-08
1.23643169207e-07
2.04050520864e-07
2.93844590793e-07
2.96564437728e-07
3.39859074565e-07
3.6165596265e-07
2.84464667559e-07
2.13007777538e-07
1.50826638296e-07
9.98134059115e-08
6.21836505423e-08
3.78722701996e-08
2.35720108676e-08
1.50335185558e-08
9.55348178345e-09
8.78111845033e-09
1.09969604144e-08
2.22270555802e-08
2.74985573262e-08
5.57783873211e-08
1.07384684625e-07
2.09738485632e-07
3.05394827823e-07
3.07522156633e-07
2.97749717068e-07
3.68508542101e-07
2.75453351549e-07
2.00405417299e-07
1.36928191702e-07
8.67376492009e-08
5.27791885996e-08
3.2115623188e-08
1.98003042471e-08
1.22014843039e-08
8.23418218866e-09
8.02988199405e-09
1.68484892789e-08
2.23899315466e-08
2.86252502614e-08
3.85507217023e-08
8.93020331335e-08
2.19427769253e-07
3.22114705599e-07
3.21937783452e-07
2.58463151606e-07
3.32537617999e-07
2.39813112613e-07
1.71137497769e-07
1.12566289629e-07
6.89394991996e-08
4.14409767229e-08
2.49943153391e-08
1.50211609352e-08
8.96050655313e-09
7.83263193832e-09
1.04708953482e-08
1.91187012631e-08
2.37797903191e-08
2.25387221303e-08
2.4883916698e-08
9.10850246116e-08
2.28064652876e-07
3.39556390521e-07
3.55044819687e-07
2.76338362618e-07
2.71394786189e-07
1.93783816949e-07
1.36862020367e-07
8.62421851511e-08
5.10337735756e-08
3.02629492243e-08
1.79558395638e-08
1.05504664759e-08
7.19485198824e-09
7.10639909223e-09
1.44732531103e-08
2.08610850345e-08
2.03558066238e-08
1.22718557546e-08
2.07670203226e-08
1.05971005753e-07
2.38838319245e-07
3.58729729435e-07
4.24863020682e-07
5.18782508671e-07
2.10087364592e-07
1.50599861711e-07
1.04437653338e-07
6.31158643065e-08
3.59473797843e-08
2.12044507101e-08
1.2536949485e-08
7.48762926742e-09
6.97655522817e-09
9.40618264779e-09
1.60685845885e-08
1.80670080682e-08
1.08825449424e-08
1.04175303287e-08
3.00739910785e-08
1.28179041268e-07
2.65193741217e-07
4.01229477285e-07
5.12206846631e-07
1.82752777881e-06
1.59332092831e-07
1.13290530448e-07
7.63213538876e-08
4.48337522038e-08
2.54837390545e-08
1.53512083516e-08
9.42933538612e-09
8.34367580938e-09
7.67580294588e-09
1.08218319305e-08
1.27064466129e-08
9.12041172523e-09
6.9280183539e-09
1.2228503156e-08
4.28313688464e-08
1.60868428792e-07
3.22129736227e-07
4.63561266086e-07
7.65452484424e-07
6.08732225577e-06
1.18522001004e-07
8.25879457476e-08
5.44892042368e-08
3.26322347592e-08
1.97493062877e-08
1.28821493296e-08
1.15877797586e-08
8.795234357e-09
8.53617393638e-09
8.57791529811e-09
7.4731224403e-09
5.76225912302e-09
6.86352063388e-09
1.40097768624e-08
5.7620668789e-08
2.06483731881e-07
3.841240195e-07
5.51964960474e-07
1.1869023052e-06
6.22744829839e-06
8.63231779953e-08
5.93145241656e-08
4.00564818156e-08
2.63619579227e-08
1.8421432812e-08
1.86288672251e-08
1.32236747139e-08
9.75004366082e-09
8.14926576278e-09
5.48406478832e-09
5.19028504449e-09
4.98325865049e-09
5.75072073399e-09
1.27321285786e-08
7.67705008377e-08
2.51182049598e-07
4.2378090813e-07
7.21431085126e-07
1.4586825642e-06
5.9334959952e-06
6.30515351498e-08
4.42404098044e-08
3.27382966836e-08
2.53615775072e-08
2.82028396211e-08
2.34013240408e-08
1.47652854946e-08
8.3371994377e-09
6.49171947216e-09
5.34228254409e-09
4.56449700959e-09
4.02463356925e-09
4.20740607211e-09
1.03062215959e-08
1.02012049118e-07
3.03831030741e-07
4.59165640484e-07
7.1951572677e-07
1.23631421384e-06
5.06889504654e-06
)
;

boundaryField
{
    emptyPatch
    {
        type            empty;
    }
    minY
    {
        type            zeroGradient;
    }
    maxY
    {
        type            calculated;
        value           nonuniform List<scalar> 
40
(
3.0136590576e-06
2.9647081682e-06
2.4960883766e-06
2.08529340728e-06
1.84099160512e-06
1.65485512136e-06
1.53116610772e-06
1.46927682811e-06
1.42696470099e-06
1.35928650518e-06
1.25578604633e-06
1.12957964855e-06
9.82377012027e-07
8.0722996704e-07
6.13582719457e-07
4.33868461331e-07
2.93349034138e-07
1.9541525418e-07
1.31541656422e-07
9.06691738688e-08
6.30448429744e-08
4.42353751668e-08
3.27344645621e-08
2.53585050879e-08
2.8199361435e-08
2.33985269998e-08
1.47636881154e-08
8.33656932852e-09
6.49142720978e-09
5.34208162188e-09
4.56429293839e-09
4.02441598657e-09
4.20714760936e-09
1.0305502548e-08
1.02003868147e-07
3.03804222074e-07
4.59124257014e-07
7.19451833644e-07
1.23620532082e-06
5.06844635531e-06
)
;
    }
    water_to_cooler
    {
        type            compressible::alphatWallBoilingWallFunction;
        phaseType       vapor;
        relax           constant 1;
        partitioningModel
        {
            type            Lavieville;
            alphaCrit       0.2;
        }
        otherPhase      liquid;
        dmdt            uniform 0;
        dDep            uniform 1e-05;
        qQuenching      uniform 0;
        alphatConv      uniform 0;
        value           nonuniform List<scalar> 
38
(
1.95612040114e-09
1.95660532108e-09
1.95249392398e-09
1.9515898251e-09
1.9471956564e-09
1.94634966409e-09
1.94222620782e-09
1.94155980431e-09
1.33127417632e-09
5.32930554452e-10
3.27780859988e-10
2.64738642704e-10
2.5638797293e-10
3.14120988725e-10
7.10353317881e-10
1.2060861434e-08
1.36022874875e-08
1.35976448129e-08
1.36037096278e-08
1.35992076841e-08
2.19401296227e-09
1.0378320494e-09
6.40850455528e-10
2.51327432645e-10
8.7829463197e-11
3.84782967382e-11
2.30433748761e-11
1.78303287168e-11
1.6414892461e-11
1.68733045275e-11
1.85488446036e-11
1.76846253057e-11
1.68295056546e-11
4.58614078742e-11
6.15988596556e-10
8.93568864304e-10
8.92300752466e-10
4.82829753301e-10
)
;
    }
    water_to_heater
    {
        type            compressible::alphatWallBoilingWallFunction;
        phaseType       vapor;