/*--------------------------------*- C++ -*----------------------------------*\
| =========                 |                                                 |
| \\      /  F ield         | OpenFOAM: The Open Source CFD Toolbox           |
|  \\    /   O peration     | Version:  2312                                  |
|   \\  /    A nd           | Website:  www.openfoam.com                      |
|    \\/     M anipulation  |                                                 |
\*---------------------------------------------------------------------------*/
FoamFile
{
    version     2.0;
    format      ascii;
    arch        "LSB;label=32;scalar=64";
    class       volScalarField;
    location    "0.085/water";
    object      k.gas;
}
// * * * * * * * * * * * * * * * * * * * * * * * * * * * * * * * * * * * * * //

dimensions      [0 2 -2 0 0 0 0];

internalField   nonuniform List<scalar> 
1497
(
0.159805445774
0.127586047614
0.0785889290674
0.0424414543295
0.0223465854036
0.0130529411785
0.00863615434842
0.00596612402751
0.00392018332821
0.00228267993075
0.0011463371757
0.00049364206742
0.000177617280311
2.54289810011
1.20689075751
0.634438542179
0.382890182549
0.270608050539
0.217115674069
0.185654491527
0.159379399091
0.129103590829
0.0849728879508
0.0478748369392
0.0252607223806
0.0141815231183
0.00900870369697
0.00606896711823
0.00393952739607
0.00228279452666
0.00114274055441
0.000488691220672
0.000172597205254
2.41657997879
1.15699890933
0.614404208477
0.373258550465
0.263843045981
0.211043407055
0.180219683607
0.155148234533
0.12695014836
0.0883731502653
0.0515959614116
0.0275660161951
0.0152181213813
0.00940903626411
0.00622319514455
0.00398839204724
0.00228598863374
0.00113300887229
0.000480141186989
0.000166804906543
2.28460346283
1.0991967538
0.586701508416
0.35726781288
0.252209645749
0.20123713078
0.171682667989
0.148070360833
0.121985180057
0.0882015987185
0.0531408120977
0.0288840857931
0.015935958572
0.00973412768193
0.0063705963372
0.00403316978612
0.00227662489902
0.0011104891909
0.000464358118803
0.000158584868063
2.15704529827
1.03834917077
0.555002667667
0.33772850141
0.237838063595
0.189367195937
0.161502505983
0.139522357528
0.115471092019
0.085299292604
0.0526198420021
0.0291111986608
0.0162139797091
0.00991774638599
0.00647216267686
0.00405139150693
0.00224313284804
0.00107045087381
0.000439231897466
0.000147063429833
2.03194950262
0.975012797281
0.521240914843
0.317127147244
0.222829292508
0.177064440702
0.150903356536
0.130426193638
0.108042964076
0.0805046673268
0.050386614913
0.0283430834025
0.0160484400787
0.00994184215774
0.00651301681772
0.00403122534492
0.00217908985539
0.00101158175302
0.000404782866678
0.000132361560525
1.88614308584
0.905114007651
0.486585748601
0.297148638549
0.208724408277
0.165452428203
0.140695895445
0.121251149199
0.0999297838893
0.0741799237501
0.0467111800476
0.0267426641972
0.0155198965955
0.00983722023612
0.00649992147557
0.00397013582056
0.00208403683479
0.000936332074509
0.000362791335103
0.000115303852306
1.71746819557
0.835223644133
0.454473691191
0.279123858906
0.196007501615
0.154871636149
0.131110883033
0.112038510013
0.0911654405511
0.0665814129762
0.0420036501328
0.0245990963832
0.0147803814258
0.0096645312969
0.00644831486597
0.00386994419175
0.00196199627619
0.000850089339732
0.000316926425327
9.74434407993e-05
1.57531538693
0.781527094839
0.430002953073
0.263604485964
0.18408075855
0.144839180558
0.12178913279
0.10265026449
0.0818510901214
0.0581465681449
0.0369338723196
0.0222994233308
0.0139980734177
0.00948119662809
0.00636780103107
0.00373289656319
0.00182027154694
0.000759950567932
0.000271310582403
8.04036434625e-05
1.50706682785
0.755577564744
0.412957424693
0.249261838161
0.172134024724
0.134814817033
0.1123376585
0.0929245320499
0.0719658556084
0.0500169566406
0.0321417568339
0.0201529123178
0.0132945211255
0.00931758751406
0.00625648263042
0.0035626949884
0.0016693737159
0.00067321222059
0.000229276868749
6.534699777e-05
1.53994267186
0.755639270013
0.400025738407
0.235708376012
0.160708846211
0.125165201669
0.102761931935
0.0825437922745
0.0618910381349
0.0427646036675
0.0279859083932
0.0183405075723
0.0127400701732
0.00918212843444
0.00611049504222
0.00337142769
0.00152334926194
0.000596015117588
0.000192907216731
5.32832755102e-05
1.64394785837
0.780686637815
0.399332355011
0.227595486084
0.153299381598
0.117312251706
0.093668723892
0.0727081176233
0.0531810248652
0.0367296757223
0.0246456830739
0.0169610894396
0.0123676749794
0.00906360859496
0.00593736411923
0.00318582555149
0.00139911100158
0.000532049989535
0.000163176970731
4.93878455349e-05
1.75584658479
0.813433766089
0.405960439162
0.225630120932
0.149793872848
0.11190879632
0.085991033985
0.0644689024394
0.0462623449021
0.0320464429575
0.0221748063879
0.0160338171058
0.0121434732242
0.00894352065832
0.00578130322121
0.00304542307912
0.00131237970014
0.000483118084799
0.000140249930215
4.81875759884e-05
1.84418249193
0.845837336342
0.417210854839
0.229003832211
0.149377418128
0.10867446262
0.0805042018115
0.0583978567971
0.0411783514081
0.0287133715197
0.020531382514
0.0154905677103
0.0120026514861
0.00886690629946
0.00573335901839
0.0029952131728
0.00127340361385
0.000452421856334
0.000124011864875
4.42650652419e-05
1.91944168323
0.87096281593
0.426681216175
0.234061545526
0.151241017425
0.107838974761
0.0775754071961
0.0546722291053
0.0379501057726
0.0266350426499
0.0195815547814
0.0152040693402
0.0119501449527
0.00896344205488
0.0059019812848
0.00306374205031
0.00128113855348
0.000439992296445
0.000115566266895
4.20603320917e-05
1.98870692007
0.895846470132
0.435481933151
0.238487639361
0.153909103925
0.108664731686
0.0768083831792
0.0530474365013
0.0363344478906
0.0255656935064
0.0191240741577
0.0151111627151
0.0120933485103
0.00936414113786
0.00633403890499
0.00323076785355
0.00132945560165
0.00044693926529
0.000119805972604
4.23397226759e-05
2.04333461628
0.92138132789
0.444347733455
0.241850051054
0.156376773455
0.110276974802
0.0773945609154
0.0528311466265
0.0358142202582
0.0251679993902
0.0189980401243
0.0152376039171
0.0125161466122
0.0100847286473
0.0068870304344
0.0034420190243
0.00142067357673
0.000477191149475
0.000129784040287
4.46125960189e-05
2.08206203801
0.941557861629
0.450999516597
0.244304441569
0.158275144187
0.111970588216
0.0785525108293
0.0533141509113
0.0358754586104
0.0251497327895
0.0191017702813
0.0155710591272
0.013185778609
0.0109142423691
0.00727973503217
0.00368927020374
0.0015572146646
0.000530375967943
0.000142848518883
4.88910672166e-05
2.10747008071
0.957364784497
0.457848030126
0.247076786014
0.159542642263
0.113115166986
0.0795334544442
0.0538706432564
0.0360996848399
0.0252846889885
0.0193278739141
0.0160326372071
0.0139810982289
0.0114954227487
0.00752608622308
0.00399568272759
0.00171942094643
0.0006010314509
0.00015965862474
5.50402330934e-05
2.1194318703
0.967904458463
0.464505534643
0.24960372517
0.159907310831
0.113298654124
0.0797398893808
0.0539714113164
0.0361513901894
0.0253910546203
0.0195788545608
0.0165464929143
0.0146856151014
0.0117221126
0.00783652674225
0.00433012695559
0.00187900630778
0.00067255173252
0.000182474817106
6.18617804677e-05
2.12720485729
0.976612675426
0.470946856332
0.252144162091
0.159953336616
0.112874386329
0.0792828609249
0.0535868404607
0.0359490591749
0.0253971138329
0.0197972176202
0.0170264392753
0.0150983187358
0.0118336544372
0.00823281222966
0.00464919451703
0.00202517536778
0.000735414636814
0.000204208300729
6.80901053087e-05
2.1342263103
0.984722394943
0.477795409532
0.255488105537
0.160463597827
0.112452357324
0.078623372159
0.0529797098747
0.0355843915792
0.0253149441403
0.0199533151334
0.017361941818
0.0152751288276
0.012035333065
0.00863243146055
0.00493168483207
0.00215541945025
0.000789589705561
0.00022306305339
7.33714821153e-05
2.14429590684
0.991347146333
0.483204706157
0.25867759603
0.161285187076
0.112205622572
0.0779841547668
0.0523142649466
0.0351543085452
0.0251826165151
0.0200451747169
0.0175567123969
0.0154119800791
0.0123095556282
0.00897801843345
0.00516693707424
0.00226609445578
0.000835707240784
0.000239152781288
7.77320765504e-05
2.16109103628
1.00081913712
0.4896341035
0.262521620443
0.162639826023
0.112295217229
0.0775306604451
0.0517581059855
0.0347751784536
0.0250600220491
0.0201106228933
0.0177078089962
0.0155849071819
0.012572771471
0.00925050646187
0.00535144121552
0.0023547154538
0.000873574429958
0.000252538804688
8.11677625171e-05
2.17545728938
1.01009601203
0.495983999502
0.266417969258
0.164183996564
0.112568789391
0.0772245107177
0.0513180566902
0.0344765140159
0.0249800475478
0.0201893187129
0.0178681203243
0.0157671635477
0.0127870598507
0.00945270428724
0.00548620615187
0.00242088777451
0.000902734765846
0.000263074885963
8.364784144e-05
2.18366175664
1.01738970087
0.501772640952
0.269990659434
0.165578434701
0.112753196846
0.0768594682084
0.0508788613266
0.0342110790635
0.0249287552469
0.0202841694751
0.0180365296363
0.0159310987402
0.0129511880941
0.00959335449667
0.00557539537555
0.00246507701495
0.000922603081877
0.000270436528876
8.51684750186e-05
2.18452595134
1.02184042262
0.506204238695
0.272812814825
0.166573215362
0.112637243559
0.0762796228959
0.0503428229796
0.0339192277554
0.02487927776
0.0203827473654
0.0181951138968
0.0160673816193
0.0130722241943
0.00968279387657
0.00562132416786
0.00248722059503
0.000932937301703
0.000274327328972
8.57968953347e-05
2.18365669687
1.02206430512
0.507189954582
0.2737655443
0.166678389807
0.112049006508
0.0754216364794
0.0496533315515
0.0335652022017
0.0248135312442
0.0204700739608
0.0183292662396
0.0161763359493
0.013157780929
0.00972624772476
0.00562557463095
0.00248709300403
0.000933844960875
0.00027487034962
8.56650628012e-05
2.19041129544
1.02426334379
0.508285965745
0.274334601242
0.166487099658
0.111244917507
0.0744039786386
0.0488750499595
0.0331867173174
0.0247479911649
0.0205482047991
0.0184378097542
0.016261165722
0.0132112516537
0.00973061475001
0.00559302892892
0.00246793900228
0.000925388384863
0.000272225001373
8.48057351935e-05
2.19480939348
1.02673845269
0.509326851373
0.27467360773
0.166185796458
0.110381474004
0.0733760238872
0.0481304757899
0.032850518035
0.0247114579486
0.0206253188052
0.0185235955027
0.0163214793524
0.0132383742473
0.00970375987072
0.00553457433116
0.00243598983685
0.000909380841621
0.000266613583955
8.33646006619e-05
2.19654462385
1.02866315113
0.510685318186
0.275323094847
0.166088810844
0.109672632252
0.0725292954436
0.0475426590264
0.0326158270065
0.0247260788908
0.0207064675921
0.0185899460847
0.0163604485259
0.0132456594591
0.00965459405889
0.00545978433235
0.00239615894851
0.000888803606816
0.000258996673442
8.16609390882e-05
2.19056299915
1.02872859349
0.512013592522
0.276314117537
0.166300873147
0.109223235345
0.071939402449
0.047158628831
0.032508078584
0.0247978648114
0.0207964925585
0.0186461017962
0.0163897682216
0.0132434189493
0.0095885358086
0.00537241609966
0.00235082081868
0.000865908153645
0.000250433517511
7.9742208427e-05
2.18173282732
1.02486696688
0.510965410344
0.276385675798
0.166291122227
0.108781394686
0.0714754695703
0.0469223983264
0.0325088870173
0.0249182740629
0.0209050748689
0.0187088562119
0.0164285296519
0.0132416973523
0.00951016132175
0.00527305414196
0.00230092440216
0.000841668161507
0.000241483999528
7.7633420994e-05
2.17212176584
1.02145966767
0.509925357439
0.276366991087
0.16609628136
0.108187844527
0.0709739601044
0.0467447439001
0.0325815281505
0.0250845727752
0.0210513376349
0.0188008754968
0.0164990598718
0.013256415528
0.00942499336117
0.00516216926303
0.00224724703106
0.000816354204546
0.000232293456329
7.54479724573e-05
2.15870448984
1.01583033219
0.508338977808
0.275784401185
0.165282304412
0.107037199814
0.0701568810421
0.0464781515314
0.0326679042649
0.0252944364929
0.0212484000724
0.0189417718952
0.0166223045812
0.0133066820105
0.00934248024263
0.00504123284401
0.00219095773725
0.000790025913139
0.000222865288762
7.33015166171e-05
2.13638452844
1.00781134089
0.506252563025
0.274299096825
0.163387686891
0.104898108335
0.0687627167261
0.0459885837954
0.0327102750922
0.0255318414288
0.0214982995417
0.0191389584456
0.0168158813558
0.0134175153876
0.00927496264948
0.00491451906206
0.00213406237738
0.000762921563071
0.000213287711767
7.12977780308e-05
2.1109317998
0.996661613979
0.50148398308
0.270574078852
0.159667657143
0.101484459994
0.0667004474545
0.0452100700039
0.0326611036886
0.0257702092304
0.0217882956988
0.0193928696744
0.0171003017511
0.0136124663759
0.00924262615457
0.00479254947097
0.00207996723621
0.000736007000749
0.000204058912099
6.96129423445e-05
2.0962978532
0.981172331364
0.490668574746
0.262838763121
0.153660341187
0.0970417078924
0.0641520780362
0.0441649377209
0.0324927752726
0.0259811611321
0.0220960672729
0.019708804418
0.0174898063344
0.0139255387738
0.00927499663122
0.00469396773686
0.00203428476254
0.000711739687464
0.000197271722455
6.8666407342e-05
6.0144426574e-05
2.95135915424e-05
2.07250515431e-05
2.43778401145e-05
3.29509223711e-05
4.63184200876e-05
6.57113174027e-05
8.06787943443e-05
8.43495230776e-05
7.98511905743e-05
6.93834908514e-05
5.60295067694e-05
5.18860859255e-05
0.000175558450887
0.0032419888837
0.0135834488749
0.0264622081481
0.0409527185313
0.0594759893695
0.0879080897851
5.63610465329e-05
2.73755803995e-05
1.95990858094e-05
2.35413017567e-05
3.21175540236e-05
4.52684147971e-05
6.47850534121e-05
7.97680271344e-05
8.24303182242e-05
7.64828593823e-05
6.64589276053e-05
5.54605353462e-05
5.20330303876e-05
0.000188265765392
0.0033806586178
0.0138175088754
0.0267924185151
0.0414856490901
0.0604608369503
0.0898288637776
5.28880503346e-05
2.57713658068e-05
1.90298554262e-05
2.34082108111e-05
3.2205031126e-05
4.54639005622e-05
6.52893867475e-05
8.02112555802e-05
8.17181237073e-05
7.42360408461e-05
6.40871124514e-05
5.48326774124e-05
5.21362148892e-05
0.000203299612288
0.00354237202018
0.0140966395941
0.027159961793
0.0420390967195
0.0614709363164
0.0918845852038
4.92409645221e-05
2.44483031017e-05
1.88914721821e-05
2.38640499465e-05
3.30564047912e-05
4.67234844753e-05
6.70497556519e-05
8.17465116537e-05
8.18376739306e-05
7.26478355381e-05
6.20535907458e-05
5.41431078632e-05
5.22004278454e-05
0.000221009498883
0.00372874234101
0.014422017253
0.0275662315785
0.0426129577598
0.0624989304511
0.0940496687215
4.51307654822e-05
2.32497821271e-05
1.9099404074e-05
2.48350860918e-05
3.46452429977e-05
4.91733156042e-05
7.02793699448e-05
8.44051327278e-05
8.27191287794e-05
7.17108306213e-05
6.05632292171e-05
5.35121317815e-05
5.22319130039e-05
0.000241767060866
0.00394109529894
0.0147935392613
0.0280109800861
0.0432067376743
0.0635385091332
0.0962936222431
4.06915652389e-05
2.21182181158e-05
1.96013436374e-05
2.6263440234e-05
3.69524670041e-05
5.29530854512e-05
7.50460332282e-05
8.80647666935e-05
8.41345355727e-05
7.12039283383e-05
5.95305673794e-05
5.29597553707e-05
5.22426904252e-05
0.00026591528334
0.00417993190073
0.0152090160552
0.0284917702929
0.0438185502132
0.0645824095575
0.0985834567703
3.66346592044e-05
2.10735167596e-05
2.03767737312e-05
2.81196056458e-05
4.00516091183e-05
5.8284611435e-05
8.12709317611e-05
9.25327272043e-05
8.5905508095e-05
7.10077314513e-05
5.88101821585e-05
5.24629141466e-05
5.22463254655e-05
0.000293707363552
0.00444447136786
0.0156636779943
0.0290036528398
0.0444447473271
0.0656224329533
0.100884791062
3.37775046569e-05
2.02088485997e-05
2.14317903185e-05
3.04143530112e-05
4.41655388741e-05
6.54565922502e-05
8.87172597057e-05
9.75729667059e-05
8.79599721605e-05
7.11707366328e-05
5.81934745025e-05
5.19516740925e-05
5.22579379609e-05
0.000325239768046
0.00473231943094
0.0161500595207
0.0295392622213
0.0450800470315
0.0666498972555
0.103163254925
3.15418274511e-05
1.96744021624e-05
2.27881324186e-05
3.32177589035e-05
4.97007408705e-05
7.45092183578e-05
9.69046481274e-05
0.000102935185021
9.03494473532e-05
7.17292212653e-05
5.74030889754e-05
5.1389213995e-05
5.22923187384e-05
0.000360389723089
0.00503931772758
0.0166582746167
0.0300893068641
0.0457180101697
0.0676563162046
0.105386212619
2.85576713386e-05
1.9602965903e-05
2.44610466795e-05
3.66896574369e-05
5.71599577745e-05
8.48437405517e-05
0.000105269561006
0.000108492305172
9.33140894645e-05
7.25255062622e-05
5.63445381648e-05
5.08304183113e-05
5.23611482764e-05
0.000398764404407
0.00535954515256
0.0171765040431
0.0306431996635
0.0463515240092
0.0686339415357
0.107524436536
2.54064013998e-05
2.00250811958e-05
2.64394348821e-05
4.11154113076e-05
6.66858953348e-05
9.5268457389e-05
0.000113407482904
0.000114393906462
9.72096566682e-05
7.3033579544e-05
5.50912473638e-05
5.03533598251e-05
5.24730476576e-05
0.000439679016151
0.00568554948933
0.0176917530073
0.031189857626
0.0469733908761
0.0695763399903
0.109553871599
2.32393080294e-05
2.08460796178e-05
2.87007974125e-05
4.68425422722e-05
7.73198049687e-05
0.000104754698707
0.000121186306278
0.000121102840525
0.00010217559331
7.26712895773e-05
5.38510984221e-05
4.99819989051e-05
5.26335613706e-05
0.000482176063596
0.00600879161456
0.0181907402683
0.0317185034656
0.0475768008678
0.0704787348009
0.111457186401
2.22311643505e-05
2.18918747815e-05
3.12591695353e-05
5.38435772521e-05
8.71700799773e-05
0.000112939052303
0.000128728250878
0.000129157116136
0.000107733226403
7.15211600114e-05
5.28618344179e-05
4.97050498605e-05
5.28443713408e-05
0.000525107478611
0.00632042488075
0.0186610978211
0.0322196401892
0.0481559678346
0.071338440077
0.11322526874
2.20268267203e-05
2.29883163255e-05
3.41225771883e-05
6.10566906955e-05
9.49321723162e-05
0.000119829275591
0.000136229897072
0.000138633679355
0.000112963393058
7.0316713702e-05
5.22162010205e-05
4.950831886e-05
5.31025808881e-05
0.000567278506381
0.0066123132076
0.0190926567881
0.0326859928531
0.048706683893
0.0721550869557
0.114858142459
2.22528683715e-05
2.40086263238e-05
3.70244843315e-05
6.68149640754e-05
0.000100460571386
0.000125441888255
0.000143579881313
0.000148688496561
0.000117434023651
6.97290732171e-05
5.18921757306e-05
4.93818073698e-05
5.34014748229e-05
0.000607644805267
0.00687824626369
0.0194788268261
0.0331134670263
0.0492269914932
0.0729309125664
0.116365238447
2.26769255833e-05
2.48220494691e-05
3.92781792997e-05
7.02672588286e-05
0.00010399675854
0.000129670854216
0.000150113620937
0.000157887362153
0.000121573907008
7.00353051996e-05
5.1843437913e-05
4.93180106619e-05
5.37328303727e-05
0.000645512322057
0.00711499234885
0.0198175721181
0.0335017324897
0.0497175643037
0.0736706986325
0.1177644128
2.31736129457e-05
2.52196825642e-05
4.02436842989e-05
7.15281182341e-05
0.0001057235942
0.000132344326333
0.000154916494201
0.000165018416608
0.000125902845684
7.12494242795e-05
5.20358875547e-05
4.93102493416e-05
5.40899666698e-05
0.000680686507285
0.0073229335051
0.0201118036441
0.0338543480736
0.0501818480496
0.0743815311409
0.119079827335
2.37921574439e-05
2.52029183064e-05
4.0037554584e-05
7.11462718801e-05
0.000105870143589
0.000133465503247
0.000157548999624
0.000169928263355
0.000130903042866
7.33255761663e-05
5.24458255565e-05
4.93520488409e-05
5.4470139322e-05
0.000713506813648
0.0075059105205
0.0203687482526
0.0341780956097
0.0506255613711
0.0750720160604
0.120338662909
2.46212712049e-05
2.4975908643e-05
3.931333095e-05
6.99417644372e-05
0.00010504724943
0.000133496029571
0.00015890718109
0.000174146309549
0.000136828834342
7.61205462317e-05
5.3049079539e-05
4.9436951403e-05
5.48753903488e-05
0.000744753104536
0.00767030763517
0.0205984789355
0.0344817118313
0.0510557733127
0.0757512539438
0.121567512504
2.56541244602e-05
2.45901667748e-05
3.79673180532e-05
6.79977346364e-05
0.000103662129342
0.00013292249256
0.000158944139784
0.000176186719189
0.000142323230028
7.9420718988e-05
5.38159343122e-05
4.9558354591e-05
5.53117089546e-05
0.000775448951235
0.00782357248201
0.0208118530643
0.0347742164214
0.0514795998507
0.0764275776809
0.122789155783
2.6787520484e-05
2.42715445089e-05
3.64240977239e-05
6.56420303954e-05
0.000101863586842
0.00013169920073
0.000157355897636
0.000175614267484
0.000146924979145
8.30404831945e-05
5.47106012599e-05
4.97093583393e-05
5.57873641311e-05
0.000806647735667
0.00797278406011
0.0210186957815
0.0350635133169
0.0519031386655
0.0771076353482
0.124020696496
2.79046133804e-05
2.41150880722e-05
3.51692508518e-05
6.34077402091e-05
0.000100017356198
0.000130314627791
0.000155488824923
0.000174313787158
0.000150842111144
8.67921728536e-05
5.56933596824e-05
4.98827722003e-05
5.6311340254e-05
0.000839271046906
0.00812367122235
0.0212266540803
0.035355568844
0.052330826891
0.0777959100183
0.125273179878
2.89391096727e-05
2.4075457048e-05
3.42705953322e-05
6.15139565033e-05
9.83963236203e-05
0.000129180572518
0.000154102582091
0.000173201563517
0.000154147439492
9.04932591129e-05
5.67239097092e-05
5.00712888858e-05
5.68925353005e-05
0.000874043295032
0.0082803324757
0.0214410165206
0.0356543802834
0.0527654619051
0.0784948732846
0.126552493487
2.9845192706e-05
2.40974198216e-05
3.36310007491e-05
5.99378786999e-05
9.70606036618e-05
0.000128352811759
0.000153141565706
0.000172251993587
0.000156805664759
9.40082200513e-05
5.77643263024e-05
5.0267612167e-05
5.75396300771e-05
0.00091150312681
0.00844544581241
0.0216651226147
0.0359623857976
0.0532085561061
0.0792054227118
0.127860729278
3.05779880318e-05
2.41445966348e-05
3.31702180693e-05
5.86265686717e-05
9.59946907468e-05
0.0001277996049
0.00015246910775
0.000171401143805
0.000158855484497
9.72431403975e-05
5.87793751336e-05
5.04644115152e-05
5.82613368303e-05
0.000952056928691
0.00862072223951
0.0219010422459
0.0362810568954
0.053660856713
0.0799274542222
0.129197479199
3.10981754522e-05
2.41971231747e-05
3.28537782811e-05
5.75767707713e-05
9.52075190688e-05
0.000127525187821
0.000152067451152
0.000170719800672
0.000160443374706
0.000100137168636
5.9736359398e-05
5.06543230859e-05
5.90665924781e-05
0.000996023778199
0.00880725215906
0.0221500421304
0.0366112758578
0.0541226699757
0.080660231564
0.130560624502
3.13800489764e-05
2.42488342969e-05
3.2674778961e-05
5.68369718179e-05
9.4743286585e-05
0.000127562871915
0.000152006888295
0.000170290337282
0.000161699161685
0.000102661588632
6.06065893719e-05
5.08302253456e-05
5.99646262873e-05
0.00104365952423
0.00900570415138
0.0224128472441
0.036953541556
0.054594059967
0.0814026353656
0.131946769536
3.14200603013e-05
2.43029845602e-05
3.26309945978e-05
5.64512010893e-05
9.46514334432e-05
0.000127953717368
0.000152374190083
0.000170207589541
0.000162672555595
0.000104785184271
6.13653213239e-05
5.09857156825e-05
6.09648133275e-05
0.00109515402616
0.0092163455431
0.0226896566259
0.0373079700256
0.0550748653292
0.0821532350696
0.133351401687
3.1249030286e-05
2.43675891704e-05
3.27165144205e-05
5.64193213241e-05
9.49588058366e-05
0.000128729906968
0.00015319477915
0.000170647651819
0.000163562717273
0.000106481178952
6.19907573059e-05
5.11156174872e-05
6.20764587185e-05
0.00115062181664
0.00943903952532
0.0229801531114
0.037674307081
0.0555647442555
0.0829103939297
0.134769069478
3.09224811458e-05
2.44537545857e-05
3.29251249899e-05
5.6719906833e-05
9.56648794241e-05
0.000129866448325
0.000154425278559
0.000171703772673
0.000164756288617
0.000107835970519
6.24739204125e-05
5.12168242581e-05
6.33084644446e-05
0.00121008756968
0.00967321212764
0.0232834681615
0.0380518995085
0.056063171374
0.0836723233771
0.136193517633
3.04769979681e-05
2.45665129754e-05
3.32431301821e-05
5.73066263754e-05
9.66973837179e-05
0.000131287640905
0.000155959857036
0.000173244276769
0.000166313663188
0.00010897213139
6.28238714721e-05
5.12889074337e-05
6.46689389083e-05
0.0012734779521
0.00991786794689
0.0235982201228
0.0384397289864
0.0565695042909
0.0844372192508
0.137617891368
2.99698595032e-05
2.47021642864e-05
3.36326332037e-05
5.80713351152e-05
9.80356982855e-05
0.000133089274336
0.000157742216666
0.00017497902239
0.000167879605282
0.000109844008777
6.30494932485e-05
5.1333839829e-05
6.61645460952e-05
0.00134060785263
0.0101715649381
0.023922475967
0.0388363600397
0.0570829589607
0.0852033205024
0.139034826788
2.9472454654e-05
2.48762720721e-05
3.41332072911e-05
5.91424318294e-05
9.98223976641e-05
0.000135274742214
0.000159921129548
0.000176940016066
0.00016933396691
0.000110427984472
6.31645523288e-05
5.13557860425e-05
6.77995402414e-05
0.00141115743437
0.0104323459161
0.0242536594517
0.0392398254505
0.0576025424361
0.0859689748776
0.140436522314
2.90390907045e-05
2.51153569919e-05
3.47883677201e-05
6.06391333575e-05
0.000102062252516
0.00013778070834
0.0001625027731
0.000179466401815
0.000171113988266
0.000110864703446
6.32000259375e-05
5.13616562738e-05
6.95741127357e-05
0.00148461395348
0.0106974867956
0.0245882217864
0.0396472923591
0.0581267738821
0.0867325458846
0.141814715776
2.87107561939e-05
2.54460475349e-05
3.56309837193e-05
6.25723854686e-05
0.000104685522945
0.000140552372685
0.000165417139901
0.000182657106559
0.000173462661728
0.000111298696767
6.32025234144e-05
5.13619199609e-05
7.14820583736e-05
0.00156018247224
0.0109631198821
0.0249212062843
0.0400546392913
0.0586533296202
0.087492324144
0.143160880492
2.85342962736e-05
2.58918065679e-05
3.67053268471e-05
6.49338220479e-05
0.00010759637899
0.000143514486125
0.000168599306321
0.000186477670545
0.000176431218294
0.000111880192523
6.32384436903e-05
5.13714823272e-05
7.35080416231e-05
0.00163667948463
0.0112237935671
0.0252457681555
0.0404559880438
0.0591785403665
0.0882462496731
0.144466624939
2.8576231809e-05
2.64712670565e-05
3.80599916088e-05
6.76698976256e-05
0.000110615600716
0.000146513423045
0.00017195775877
0.000190874131259
0.00018004271025
0.000112807031353
6.33982583155e-05
5.14103305447e-05
7.56257000312e-05
0.00171246653603
0.0114722292947
0.0255529151659
0.0408430249449
0.059695292955
0.0889865415177
0.145718579489
2.89287007136e-05
2.71942318569e-05
3.97025449644e-05
7.05581417051e-05
)
;

boundaryField
{
    emptyPatch
    {
        type            empty;
    }
    minY
    {
        type            fixedValue;
        value           nonuniform List<scalar> 0();
    }
    maxY
    {
        type            inletOutlet;
        inletValue      nonuniform List<scalar> 0();
        value           nonuniform List<scalar> 0();
    }
    water_to_cooler
    {
        type            kqRWallFunction;
        value           nonuniform List<scalar> 
37
(
0.0879080897851
0.0898288637776
0.0918845852038
0.0940496687215
0.0962936222431
0.0985834567703
0.100884791062
0.103163254925
0.105386212619
0.107524436536
0.109553871599
0.111457186401
0.11322526874
0.114858142459
0.116365238447
0.1177644128
0.119079827335
0.120338662909
0.121567512504
0.122789155783
0.124020696496
0.125273179878
0.126552493487
0.127860729278
0.129197479199
0.130560624502
0.131946769536
0.133351401687
0.134769069478
0.136193517633
0.137617891368
0.139034826788
0.140436522314
0.141814715776
0.143160880492
0.144466624939
0.145718579489
)
;
    }
    water_to_heater
    {
        type            kqRWallFunction;
        value           nonuniform List<scalar> 
60
(
2.54289810011
2.54289810011
2.41657997879
2.41657997879
2.28460346283
2.28460346283
2.15704529827
2.03194950262
1.88614308584
1.88614308584
1.71746819557
1.71746819557
1.57531538693
1.57531538693
1.50706682785
1.53994267186
1.64394785837
1.64394785837
1.75584658479
1.75584658479
1.84418249193
1.84418249193
1.91944168323
1.98870692007
2.04333461628
2.04333461628
2.08206203801
2.08206203801
2.10747008071
2.10747008071
2.1194318703
2.12720485729
2.1342263103
2.1342263103
2.14429590684
2.14429590684
2.16109103628
2.16109103628
2.17545728938
2.18366175664
2.18452595134
2.18452595134
2.18365669687
2.18365669687
2.19041129544
2.19041129544
2.19480939348
2.19654462385
2.19056299915
2.19056299915
2.18173282732
2.18173282732
2.17212176584
2.17212176584
2.15870448984
2.13638452844
2.1109317998
2.1109317998
2.0962978532
2.0962978532
)
;
    }
    procBoundary1to0
    {
        type            processor;
        value           nonuniform List<scalar> 
41
(
2.09675174786
0.966698077467
0.477764289719
0.254337432329
0.147815853146
0.0928864863916
0.0616196995675
0.0430083507906
0.0322457838208
0.0261657082658
0.0224127128428
0.0201119253539
0.0180295725815
0.014410498832
0.00941512482807
0.00464925800281
0.00200520316218
0.000695144500732
0.000200070958806
6.9303096004e-05
0.000113415880466
0.000149277434766
0.000175291479491
0.000195679677191
0.000184297617399
0.000114340024067
6.37989387547e-05
5.15038629992e-05
7.78011558537e-05
0.00178557100562
0.0116996904398
0.0258319049709
0.04120552588
0.0601962198384
0.0897197301852
0.146943048232
2.97150618938e-05
2.8053220274e-05
4.14917095844e-05
0.000113415880466
7.30855541992e-05
)
;
    }
    procBoundary1to3
    {
        type            processor;
        value           nonuniform List<scalar> 
41
(
0.155603721892
0.121754715208
0.0694263867873
0.035967161878
0.0194196520937
0.0120928401846
0.00841333078882
0.00598947659376
0.00398142374684
0.00230753384321
0.00115201602647
0.0004994500446
0.000183965715126
2.65187380186
1.24406056504
0.644542124189
0.384742719775
0.271480578405
0.218454211788
0.186969336303
0.186969336303
6.49211414325e-05
3.25422731398e-05
2.25660620498e-05
2.60654821874e-05
3.48976330546e-05
4.88520806717e-05
6.83126375821e-05
8.32425810026e-05
8.78615072718e-05
8.47052154363e-05
7.28695696823e-05
5.65020477566e-05
5.1693114403e-05
0.0001648802786
0.00312488921847
0.0133928255436
0.0261662293053
0.0404360332774
0.0585137290951
0.0861383319379
)
;
    }
}


// ************************************************************************* //
