/*--------------------------------*- C++ -*----------------------------------*\
| =========                 |                                                 |
| \\      /  F ield         | OpenFOAM: The Open Source CFD Toolbox           |
|  \\    /   O peration     | Version:  2312                                  |
|   \\  /    A nd           | Website:  www.openfoam.com                      |
|    \\/     M anipulation  |                                                 |
\*---------------------------------------------------------------------------*/
FoamFile
{
    version     2.0;
    format      ascii;
    arch        "LSB;label=32;scalar=64";
    class       volVectorField;
    location    "0.88/water";
    object      U.gas;
}
// * * * * * * * * * * * * * * * * * * * * * * * * * * * * * * * * * * * * * //

dimensions      [0 1 -1 0 0 0 0];

internalField   nonuniform List<vector> 
6000
(
(0.0654085650314 0.319507603948 0)
(0.110383725127 0.202656567901 0)
(0.104359599816 0.178322136135 0)
(0.114410752328 0.160980569552 0)
(0.112546473993 0.155645700173 0)
(0.113367255925 0.151796134018 0)
(0.103180191186 0.149599981159 0)
(0.0865121164526 0.155262409108 0)
(0.079574869269 0.236615926314 0)
(0.0755350673601 0.280613039584 0)
(0.0667880098531 0.283923902492 0)
(0.0599301734062 0.28495649529 0)
(0.0534276608894 0.285952714633 0)
(0.0473393912965 0.286899356303 0)
(0.0415901765661 0.287795153379 0)
(0.0361305700017 0.288627898042 0)
(0.0309089061779 0.289386024536 0)
(0.0258676034429 0.290060708685 0)
(0.0209541992486 0.290643618397 0)
(0.0161439600606 0.291124468767 0)
(0.0257595668361 0.658235108765 0)
(0.0715475077731 0.457466567608 0)
(0.0910848784407 0.401655769829 0)
(0.0972134875738 0.368266432687 0)
(0.104150837405 0.354118050272 0)
(0.105279952775 0.346013946701 0)
(0.103801877687 0.341667573384 0)
(0.0963022589186 0.348053214827 0)
(0.0703972294743 0.456031616959 0)
(0.0352626682352 0.521275562846 0)
(0.0191460706109 0.522443266432 0)
(0.0163486209641 0.52239339045 0)
(0.0142364064647 0.522447414146 0)
(0.0123359951687 0.522551692329 0)
(0.0105777330916 0.522700373946 0)
(0.00893013320024 0.522884895182 0)
(0.00738297636372 0.523094569672 0)
(0.00593063775047 0.523317074555 0)
(0.00456628314666 0.523538056906 0)
(0.00328800661003 0.523742281756 0)
(0.0288424584823 0.753278471137 0)
(0.06704871365 0.565657484078 0)
(0.0788451811207 0.489516564531 0)
(0.0847908084994 0.450982790601 0)
(0.0898122782964 0.429760982104 0)
(0.0918830637173 0.417922712693 0)
(0.0919811422135 0.411086724147 0)
(0.0888483707084 0.409904147076 0)
(0.0764144508559 0.447936977851 0)
(0.0442231444074 0.485455047113 0)
(0.0174576739391 0.486242881816 0)
(0.012557749308 0.484581225626 0)
(0.0114386104816 0.483032942626 0)
(0.0103385735151 0.48163693376 0)
(0.0092523119605 0.480367288398 0)
(0.00814268500319 0.479229939832 0)
(0.0069896292092 0.478237114845 0)
(0.00579209607439 0.477397305446 0)
(0.00456200145017 0.476713891807 0)
(0.00333242801585 0.476188908091 0)
(0.0403555283571 0.864481289454 0)
(0.0842917127085 0.66903471617 0)
(0.0887709760985 0.565580562423 0)
(0.0904161150008 0.513761084178 0)
(0.0906101155073 0.484757434557 0)
(0.0889601227248 0.46685913577 0)
(0.0863722780161 0.455289886524 0)
(0.0825567492209 0.449171465171 0)
(0.0755138120679 0.463582885556 0)
(0.0535321100096 0.487638030436 0)
(0.0223895736173 0.494329833786 0)
(0.00807692359561 0.493341348071 0)
(0.00738506227997 0.492206456813 0)
(0.00683993620372 0.491182295073 0)
(0.00625123781363 0.49021106021 0)
(0.00562295572272 0.489286512335 0)
(0.00493292010171 0.488426654843 0)
(0.00416604450239 0.487656782416 0)
(0.00332386020621 0.487001056293 0)
(0.00243937347059 0.48648040652 0)
(0.0479427584208 0.91889665362 0)
(0.0990327549859 0.75104635639 0)
(0.101300218277 0.629053551999 0)
(0.099871149844 0.562111091768 0)
(0.097531563639 0.524585722133 0)
(0.0932372808031 0.501098561194 0)
(0.0877558121078 0.485260632748 0)
(0.0815695600745 0.474921702273 0)
(0.0742648672079 0.476446543693 0)
(0.0613563559225 0.486981167297 0)
(0.0318569123248 0.493448945747 0)
(0.00811360353682 0.492832935723 0)
(0.0049281179129 0.4919109151 0)
(0.00461709026783 0.491063886632 0)
(0.0042350780457 0.490266642377 0)
(0.00381888781316 0.489492363726 0)
(0.00336060312832 0.488746277387 0)
(0.00284192207519 0.488050355399 0)
(0.00225512007793 0.487432795901 0)
(0.00162536848294 0.486922200638 0)
(0.0530296045209 0.943679488413 0)
(0.108826573906 0.807452028547 0)
(0.109689363359 0.686196473029 0)
(0.106593247531 0.604221142536 0)
(0.103675875987 0.557309144175 0)
(0.099300619047 0.527994790766 0)
(0.0929892886236 0.508038346893 0)
(0.0850738589288 0.494053531581 0)
(0.0762547461703 0.488241036601 0)
(0.0657505788629 0.490215871312 0)
(0.0421929806755 0.493742024113 0)
(0.0141741185257 0.493319814422 0)
(0.00363249746254 0.492638907148 0)
(0.00335967728569 0.491956530289 0)
(0.00306875416264 0.491341076911 0)
(0.00273531158636 0.490745732328 0)
(0.00237117327603 0.490161484143 0)
(0.00196536332528 0.489601014728 0)
(0.00150909362196 0.489088366587 0)
(0.00102272132292 0.4886514916 0)
(0.0540380632838 0.95124933852 0)
(0.110591303723 0.840941073879 0)
(0.11144197594 0.732197786795 0)
(0.108096205663 0.643789533621 0)
(0.105191834482 0.586179318453 0)
(0.102239327659 0.550798388938 0)
(0.0974438270572 0.526709663773 0)
(0.089997395952 0.509291868131 0)
(0.0806136960476 0.49852056525 0)
(0.0700108306592 0.494515018178 0)
(0.0540466986627 0.494369061569 0)
(0.0246700034284 0.493892531851 0)
(0.00429166862007 0.49292829438 0)
(0.00282575859359 0.492390116316 0)
(0.00258088972993 0.491942248567 0)
(0.00227071999318 0.491511747454 0)
(0.00192563030548 0.49107999694 0)
(0.00154584039349 0.490652004631 0)
(0.00112654254943 0.490246728122 0)
(0.000689345899108 0.489889651646 0)
(0.0522406188701 0.956198512586 0)
(0.106760289207 0.860134058804 0)
(0.108120143988 0.76445800176 0)
(0.105735847599 0.67951394281 0)
(0.103498288847 0.613849964151 0)
(0.102030890651 0.571722118495 0)
(0.0995121113199 0.543472759925 0)
(0.0940805487113 0.522590460012 0)
(0.0855387648939 0.507840807353 0)
(0.0751520822469 0.499445660225 0)
(0.0626986265585 0.495961602543 0)
(0.0370195817556 0.494827123655 0)
(0.0107293133091 0.493206690853 0)
(0.00299909502417 0.492842564628 0)
(0.00271961032238 0.492559785727 0)
(0.0023677862092 0.492288280512 0)
(0.0019697175288 0.492000660883 0)
(0.00153748864233 0.491695761799 0)
(0.00107340437626 0.491388283891 0)
(0.000602001841062 0.49110183604 0)
(0.0520703288914 0.959966012909 0)
(0.107351946028 0.871145782395 0)
(0.108872383144 0.786841701007 0)
(0.105919352823 0.709242918436 0)
(0.103709848992 0.642628902161 0)
(0.102477347142 0.593558582851 0)
(0.101332308078 0.560629860622 0)
(0.0978462578357 0.53595767844 0)
(0.0907714617624 0.517399147388 0)
(0.0810317042914 0.505212685181 0)
(0.0697227184897 0.49875128508 0)
(0.0524041497084 0.49613778596 0)
(0.0232537645556 0.494042607035 0)
(0.00461378416347 0.4934871085 0)
(0.00357885646644 0.493366446867 0)
(0.00305584081965 0.493236476303 0)
(0.0024843497344 0.493067904291 0)
(0.00188849362285 0.492856068074 0)
(0.00128003299784 0.492613940185 0)
(0.000682627733457 0.492363253937 0)
(0.0514477537136 0.960876871714 0)
(0.107402715618 0.875990386693 0)
(0.110053636368 0.802204587295 0)
(0.107270463262 0.733772156536 0)
(0.105487926205 0.671849496736 0)
(0.104241825008 0.618960325556 0)
(0.103314170344 0.580194272932 0)
(0.100975583085 0.551245951987 0)
(0.0954443410021 0.528699484568 0)
(0.0866964788701 0.512718825883 0)
(0.0763053045838 0.503311333693 0)
(0.0634082664217 0.498748257817 0)
(0.0370111911202 0.496375973785 0)
(0.011923201715 0.494648356362 0)
(0.00523044331241 0.494742615929 0)
(0.00427610329661 0.494674328015 0)
(0.00333587201788 0.494542441165 0)
(0.00242648551477 0.494341052563 0)
(0.00155577308256 0.494084061553 0)
(0.000740763894124 0.49379486749 0)
(0.0498022709985 0.962222691112 0)
(0.105620608722 0.87771400185 0)
(0.110291804814 0.813085797547 0)
(0.10853791828 0.754904698485 0)
(0.107395261855 0.700436590079 0)
(0.105882780791 0.648397895953 0)
(0.104429070235 0.603560313632 0)
(0.102534048234 0.569645546065 0)
(0.0983777637248 0.542886950516 0)
(0.090890562773 0.522875816602 0)
(0.0812651598243 0.510128684999 0)
(0.0700550782215 0.50322252573 0)
(0.0508416279395 0.500205989276 0)
(0.0229867004441 0.497124027058 0)
(0.00719627845726 0.497118946744 0)
(0.00541987659023 0.496926692554 0)
(0.00396354825674 0.496650560595 0)
(0.00264516629063 0.496297548564 0)
(0.00145912443231 0.4958846861 0)
(0.000410398283116 0.495439364092 0)
(0.0475316367044 0.967871670348 0)
(0.102457659709 0.880964259398 0)
(0.109066264419 0.823790715191 0)
(0.10810537125 0.77576397913 0)
(0.107151677911 0.729635715484 0)
(0.105369766801 0.680658509382 0)
(0.103469841436 0.631297094283 0)
(0.101602575352 0.591410199099 0)
(0.0984251406895 0.560337302301 0)
(0.0921848313083 0.53606741774 0)
(0.0831449932612 0.519323445179 0)
(0.0726177392545 0.509497784793 0)
(0.0583324056307 0.504665497039 0)
(0.0312069309973 0.502615325058 0)
(0.00954703810824 0.500759545136 0)
(0.00521764061844 0.500120925658 0)
(0.00331172769815 0.49941383568 0)
(0.00169324873655 0.498676378903 0)
(0.000321909422569 0.497924473791 0)
(-0.000824876853273 0.497182713224 0)
(0.0453255869129 0.983740547103 0)
(0.0980180115324 0.89268635159 0)
(0.104553324163 0.839402468039 0)
(0.103346638654 0.799176639273 0)
(0.102112833357 0.760047512202 0)
(0.100378399587 0.71375209889 0)
(0.0986661889828 0.66165146533 0)
(0.097039335141 0.615209657518 0)
(0.094518009736 0.579730963082 0)
(0.0891774386439 0.551112254333 0)
(0.0806360610746 0.529879573424 0)
(0.0704154237774 0.516386038465 0)
(0.0581474117994 0.508799961452 0)
(0.0354028991513 0.507138417062 0)
(0.0112604184742 0.505095569665 0)
(0.00185417406436 0.503781238558 0)
(2.18616108252e-05 0.502347583432 0)
(-0.00141970005874 0.501017215266 0)
(-0.00256103423592 0.499784996582 0)
(-0.00344951892076 0.498658665489 0)
(0.0473636562605 1.01133649048 0)
(0.10066516814 0.917152307806 0)
(0.102998665149 0.863833783562 0)
(0.0973059896816 0.826840993617 0)
(0.093750545128 0.790845718522 0)
(0.0917205516971 0.744908989899 0)
(0.0907290922192 0.690675679441 0)
(0.0895927565207 0.638502297913 0)
(0.087303363327 0.597762169078 0)
(0.0824231607753 0.564904383681 0)
(0.0742593130711 0.539186129393 0)
(0.0638731555769 0.521676137901 0)
(0.052149248518 0.511031566227 0)
(0.0360207540213 0.506692173841 0)
(0.0105950885001 0.50958467081 0)
(-0.00568718682646 0.506445388737 0)
(-0.00674097570143 0.504245285393 0)
(-0.00717772005232 0.502340502622 0)
(-0.00742762961074 0.500689125363 0)
(-0.00753468129213 0.49926398209 0)
(0.0504328202663 1.04785216405 0)
(0.10179177492 0.950511763325 0)
(0.0964682905294 0.893887358437 0)
(0.0863635764002 0.855260344505 0)
(0.0810476195543 0.817200418619 0)
(0.0799075912658 0.768810935153 0)
(0.0806352545078 0.712805476627 0)
(0.0805867030429 0.657377127729 0)
(0.0787723378772 0.610810410458 0)
(0.0746511284383 0.573673242462 0)
(0.0672718580252 0.544069649003 0)
(0.0568930895574 0.522959080622 0)
(0.0453871411996 0.509550817145 0)
(0.0326042765342 0.502576046371 0)
(0.00848757170125 0.505862891904 0)
(-0.0127904048511 0.505987360939 0)
(-0.0162332884293 0.50344549159 0)
(-0.0147943319256 0.50144324776 0)
(-0.0135090569427 0.499773939473 0)
(-0.0123699366097 0.498393388228 0)
(0.0497347665429 1.08241141517 0)
(0.095289861012 0.981238978218 0)
(0.0846572204654 0.919479858828 0)
(0.0745304093786 0.876222691532 0)
(0.0702559670857 0.832940956187 0)
(0.0709516341922 0.781102485105 0)
(0.0735387596631 0.724336016031 0)
(0.0751665069698 0.668447975095 0)
(0.0747253967107 0.618332581493 0)
(0.0718189495632 0.577089877095 0)
(0.0656584297875 0.544353668062 0)
(0.0557478704108 0.52030799889 0)
(0.0436003504874 0.504663589375 0)
(0.0314131418497 0.495999752 0)
(0.0161239645185 0.494745298294 0)
(-0.00994649090963 0.500900292878 0)
(-0.0250197738765 0.499062677614 0)
(-0.0217785529184 0.49771588279 0)
(-0.0188343795342 0.496695910883 0)
(-0.0164055910901 0.495877799847 0)
(0.0474884162755 1.10540899108 0)
(0.0910093757662 1.00425931838 0)
(0.0819080122215 0.938537279702 0)
(0.073876354658 0.890288343579 0)
(0.0707268415794 0.841631795037 0)
(0.0720157892918 0.786704714069 0)
(0.0753466531357 0.729694200013 0)
(0.0782101087896 0.674616262603 0)
(0.0792349808533 0.624094861634 0)
(0.0775565857939 0.58041545325 0)
(0.07224926411 0.544926339256 0)
(0.0628875455857 0.51798293306 0)
(0.0504209909141 0.499812196153 0)
(0.0377828228083 0.489586735515 0)
(0.0255699686187 0.486132573102 0)
(0.0013889349331 0.490930079997 0)
(-0.0216913834596 0.491992343115 0)
(-0.024818014874 0.492037622688 0)
(-0.0209672994598 0.49218972328 0)
(-0.017849304167 0.492328007271 0)
(0.0471196804701 1.12470985935 0)
(0.0911414662628 1.0243478103 0)
(0.0838336527504 0.955868370821 0)
(0.0774576907707 0.90336184455 0)
(0.0754578426817 0.850407033179 0)
(0.0775197837209 0.793027844254 0)
(0.0817312229731 0.73570845055 0)
(0.0858302312545 0.681359659861 0)
(0.0882270304588 0.631524282586 0)
(0.0875916775954 0.587767053746 0)
(0.0826585397667 0.550628166891 0)
(0.0734911636545 0.520451066327 0)
(0.0615567693778 0.498910969417 0)
(0.0489464851444 0.486230410155 0)
(0.0375370774817 0.481235002367 0)
(0.0230903802058 0.482160341523 0)
(-0.00449580172484 0.485922606625 0)
(-0.0214847901533 0.486458583935 0)
(-0.0185256936346 0.487788912879 0)
(-0.0157052814832 0.488915963355 0)
(0.0472290617858 1.13907442573 0)
(0.0925503365524 1.03868967321 0)
(0.0861337343421 0.970245989915 0)
(0.0798439938459 0.914825785006 0)
(0.0786895326485 0.858901996093 0)
(0.0816851354496 0.800138517941 0)
(0.086891340456 0.742960058389 0)
(0.0922565104097 0.689501715805 0)
(0.0963437207282 0.641019163749 0)
(0.0971934059073 0.598938016449 0)
(0.0925989876736 0.561947961524 0)
(0.0831327418422 0.529214347836 0)
(0.0718255212995 0.50388018909 0)
(0.0605151698441 0.487840661816 0)
(0.0508062472778 0.480829172021 0)
(0.0408918399792 0.47970238511 0)
(0.0162986950552 0.482924210667 0)
(-0.00754995027937 0.482764528281 0)
(-0.011753311507 0.4849505913 0)
(-0.0102111318778 0.486771590109 0)
(0.0467968392918 1.14608273107 0)
(0.0925613342563 1.04526651238 0)
(0.0868547049687 0.979750510868 0)
(0.0805914800709 0.92312221342 0)
(0.0798806232863 0.86527898677 0)
(0.0835692052038 0.806160217248 0)
(0.0900183983074 0.750008333859 0)
(0.0973678971722 0.698450124948 0)
(0.103430782952 0.65308213708 0)
(0.105155829242 0.61371754543 0)
(0.100576629378 0.577528032879 0)
(0.0907747103604 0.543805153944 0)
(0.0795365842827 0.514944387938 0)
(0.0695600527622 0.495152015735 0)
(0.0613290808109 0.485204678925 0)
(0.0534968902453 0.482332535077 0)
(0.0368043667513 0.483384175149 0)
(0.0112429155145 0.481992357526 0)
(-0.00218172276276 0.484549647682 0)
(-0.00269342554307 0.486588685212 0)
(0.0452690571874 1.15435595157 0)
(0.0900479550991 1.0497766902 0)
(0.085181157033 0.986204090189 0)
(0.0797755587738 0.92917971421 0)
(0.0802035743653 0.870249814178 0)
(0.0852892750601 0.811635699755 0)
(0.0937100611432 0.757454241224 0)
(0.102990133309 0.709448819078 0)
(0.109575353015 0.668773566171 0)
(0.110874666455 0.632222123259 0)
(0.106217049903 0.596828717997 0)
(0.0962851205759 0.562946409572 0)
(0.0847777772004 0.531380813104 0)
(0.0753879937745 0.507751715027 0)
(0.0682402479761 0.494104912197 0)
(0.0616576586708 0.48895992652 0)
(0.0500240020672 0.487937004885 0)
(0.0259084232028 0.484950670249 0)
(0.00792167220823 0.486732258647 0)
(0.00479547141405 0.488488500634 0)
(0.043103137627 1.1698728996 0)
(0.0862139438969 1.05739493584 0)
(0.0825183727921 0.992244218792 0)
(0.078843705983 0.934220480406 0)
(0.0813498958929 0.875137789803 0)
(0.0885204898494 0.817965706379 0)
(0.0988304215989 0.766709470441 0)
(0.108256610683 0.72387388133 0)
(0.113422766951 0.687849125332 0)
(0.114213030811 0.653853295675 0)
(0.109998308507 0.619600022008 0)
(0.100132149473 0.58605830657 0)
(0.088077662264 0.552406596795 0)
(0.078459326052 0.524676055594 0)
(0.0716972733409 0.506625944918 0)
(0.0655315323182 0.498264942282 0)
(0.0558350197842 0.495174305469 0)
(0.0345089597738 0.491782209825 0)
(0.0157792591233 0.490986749317 0)
(0.0102322517674 0.492050297638 0)
(0.0399068413689 1.19896450425 0)
(0.0800989650667 1.07191121286 0)
(0.077960101896 0.999239052933 0)
(0.0770608499085 0.938377573254 0)
(0.082417447754 0.880159011481 0)
(0.0919742719395 0.825695102138 0)
(0.102693592455 0.778563809026 0)
(0.110514488254 0.741397546729 0)
(0.114814475496 0.709183982636 0)
(0.116025266143 0.677586866485 0)
(0.112684759707 0.645101519364 0)
(0.102992925035 0.613387425951 0)
(0.0895760927944 0.577693552364 0)
(0.0787766064127 0.544644417586 0)
(0.071759840064 0.52139005871 0)
(0.0652687100504 0.508745283939 0)
(0.0558251101325 0.503064038264 0)
(0.0369992679006 0.501007501681 0)
(0.019134582317 0.49637165586 0)
(0.0122776216512 0.496471116876 0)
(0.0400734035521 1.23555628681 0)
(0.0819291212803 1.09111476807 0)
(0.0807039124068 1.00823151955 0)
(0.0794712510856 0.943076946251 0)
(0.0855218590631 0.886144151328 0)
(0.0954011159768 0.835254920799 0)
(0.104915074317 0.793072435065 0)
(0.111377149253 0.760465468829 0)
(0.115821199343 0.731208366128 0)
(0.118028024772 0.701731276679 0)
(0.11576297391 0.671844702145 0)
(0.105042171564 0.642871118355 0)
(0.0887804569532 0.605441580596 0)
(0.0763222567547 0.56517681058 0)
(0.0686845362272 0.536302599951 0)
(0.0612389569148 0.518335041042 0)
(0.0510067713752 0.509430737288 0)
(0.0339906886567 0.508613939661 0)
(0.017629646142 0.501574705089 0)
(0.0105902908583 0.500675638738 0)
(0.0412477261474 1.26816354809 0)
(0.0859810001254 1.10946948774 0)
(0.0862379902613 1.01927741588 0)
(0.0844551936134 0.951032308329 0)
(0.0897513525552 0.895539607675 0)
(0.0981798539571 0.847926153926 0)
(0.106050125553 0.809901682909 0)
(0.112245756397 0.780086197824 0)
(0.117404060905 0.752592965131 0)
(0.120708304242 0.724914782107 0)
(0.116634098379 0.697323278523 0)
(0.101813244397 0.668714651979 0)
(0.0850588445777 0.631735395854 0)
(0.0734161829734 0.586232709509 0)
(0.0646800691906 0.549601486594 0)
(0.0554795414372 0.525578661087 0)
(0.0439293513085 0.512976376905 0)
(0.0280291066964 0.510795218837 0)
(0.0129920330251 0.505135177424 0)
(0.00620066619584 0.503681666181 0)
(0.0422006875446 1.29309304992 0)
(0.0898537429613 1.12429690977 0)
(0.092261232427 1.03201728175 0)
(0.0901321282247 0.964636423953 0)
(0.0939857141664 0.911514747256 0)
(0.100606531438 0.866254835583 0)
(0.107424731655 0.830099288491 0)
(0.113356127304 0.801190496703 0)
(0.118378034791 0.774126576918 0)
(0.118547365233 0.747201725254 0)
(0.108942547117 0.719347141272 0)
(0.0945906510617 0.688236047879 0)
(0.0822170608537 0.652682962929 0)
(0.0710513302228 0.60828808015 0)
(0.0604880430066 0.561652844147 0)
(0.0497917577001 0.53097506282 0)
(0.037328688455 0.514228045562 0)
(0.0222935066344 0.509001666946 0)
(0.00793237749907 0.509039352739 0)
(0.000933526396496 0.505294951561 0)
(0.0426709344639 1.30985506632 0)
(0.0924729773326 1.13723175951 0)
(0.0968797669719 1.04898276373 0)
(0.0945618288429 0.98724650007 0)
(0.0972246185636 0.937888762404 0)
(0.102565605373 0.893592128615 0)
(0.108063041087 0.856185897684 0)
(0.11221690657 0.825527882076 0)
(0.11274601932 0.796293423002 0)
(0.105827219853 0.766922131235 0)
(0.0948517682154 0.735505675216 0)
(0.0854604555646 0.701951678709 0)
(0.0764254291021 0.667056127866 0)
(0.0663572455513 0.627052255234 0)
(0.0560007214687 0.574793570446 0)
(0.0448128762199 0.535733353695 0)
(0.0322467087107 0.514602682524 0)
(0.017923207687 0.506411188446 0)
(0.00316867410196 0.51143498558 0)
(-0.00464337189847 0.506149857285 0)
(0.0431187331362 1.32390992654 0)
(0.0937347723641 1.15465186579 0)
(0.0985020560352 1.07448175408 0)
(0.0955424310111 1.02235628411 0)
(0.096498722703 0.977114145702 0)
(0.0993331574241 0.930146412888 0)
(0.101233140624 0.887259791197 0)
(0.0993834302828 0.851023607316 0)
(0.0927619223146 0.815776823983 0)
(0.0844770282862 0.780112731316 0)
(0.0787924890547 0.743781210064 0)
(0.0742497276038 0.708995974871 0)
(0.0679094538376 0.675575412285 0)
(0.0599686343595 0.639307916148 0)
(0.0507469441845 0.588704849377 0)
(0.0403630711896 0.54038254136 0)
(0.0284374188011 0.515078976341 0)
(0.0146203008598 0.50400038839 0)
(-0.00110719443085 0.506862687631 0)
(-0.0105931707089 0.506593533821 0)
(0.0474724093909 1.33619317466 0)
(0.101685019758 1.17991246072 0)
(0.102360308475 1.11288491189 0)
(0.0923433938584 1.07445792215 0)
(0.0857873910976 1.03040942204 0)
(0.0816830549444 0.972610600124 0)
(0.0774957839788 0.919050936191 0)
(0.0714983857577 0.873688608715 0)
(0.0659438945869 0.829481774134 0)
(0.0632232495457 0.785593937463 0)
(0.0626266067046 0.744772585931 0)
(0.0615351610525 0.709529681881 0)
(0.0581819549018 0.678589570861 0)
(0.0521933810044 0.645566434156 0)
(0.0448528744501 0.599377329015 0)
(0.0368342554364 0.545198143779 0)
(0.0261388298028 0.516010237801 0)
(0.0129616756675 0.501872491443 0)
(-0.00124714670619 0.499506874884 0)
(-0.0140113386088 0.509152796047 0)
(0.0514178882789 1.34047410492 0)
(0.1055362654 1.20803220391 0)
(0.097544556705 1.16455376125 0)
(0.0767362335739 1.14733140562 0)
(0.0596627443881 1.09791451882 0)
(0.0495638643647 1.01699377478 0)
(0.0443845029685 0.947041933659 0)
(0.0415703903692 0.89005592859 0)
(0.0414326248591 0.835895793369 0)
(0.0437648702623 0.784569374795 0)
(0.0469229828745 0.741242280713 0)
(0.0485595023743 0.705451017199 0)
(0.0475482517278 0.67599032638 0)
(0.0442973330034 0.646039793283 0)
(0.0399704748774 0.604545251311 0)
(0.0343100641425 0.550254427557 0)
(0.024883332648 0.51716278459 0)
(0.0122797825884 0.499579752456 0)
(-0.000834187217592 0.49358437886 0)
(-0.0189659386854 0.507316863138 0)
(0.0528183359931 1.3345988472 0)
(0.102527303233 1.23394714032 0)
(0.0852091381377 1.22779614227 0)
(0.0564447312338 1.24192934716 0)
(0.0325850978689 1.17661752454 0)
(0.0203656558447 1.05877363596 0)
(0.0174854290459 0.966715599327 0)
(0.0191020847961 0.896592320893 0)
(0.023283024643 0.833604207983 0)
(0.0288981094123 0.778085357498 0)
(0.0342234133113 0.735286118336 0)
(0.0374829489478 0.698827063227 0)
(0.038539810367 0.668475775205 0)
(0.0383901653229 0.640418779321 0)
(0.0371906724097 0.60433196043 0)
(0.0333537906625 0.555233671904 0)
(0.0248368196871 0.517959173924 0)
(0.0122661948369 0.496535309599 0)
(-0.000870757158732 0.487666128667 0)
(-0.020053304208 0.494942428805 0)
(0.0513296217744 1.32260469935 0)
(0.0958419068868 1.25654206123 0)
(0.0744737316817 1.30083481826 0)
(0.0437580912813 1.35583191846 0)
(0.0177084489585 1.25989609659 0)
(0.00524921752982 1.09431507187 0)
(0.00391307477077 0.97667109577 0)
(0.00802523726983 0.893520096221 0)
(0.0144288967824 0.824040779786 0)
(0.0214554656901 0.767787156579 0)
(0.0278788377046 0.727313628624 0)
(0.0325552017944 0.690943130036 0)
(0.0353499243763 0.658541961784 0)
(0.0373400627303 0.630427050167 0)
(0.0380876293845 0.599821207122 0)
(0.0347709125952 0.559761244033 0)
(0.0262381367102 0.517952893841 0)
(0.013605298188 0.492277769836 0)
(0.000340755819965 0.480810912121 0)
(-0.0140039413571 0.480849709603 0)
(0.0482319457392 1.31377911326 0)
(0.0887267145557 1.27742359224 0)
(0.0675883502392 1.37918632526 0)
(0.0374130534713 1.48506589813 0)
(0.0121549119076 1.33695651198 0)
(0.00191620104868 1.12070190166 0)
(0.00208167469258 0.978836985143 0)
(0.00744904291602 0.88454095477 0)
(0.014694926582 0.811158434155 0)
(0.0222508840997 0.756314391413 0)
(0.0295418181544 0.718366434854 0)
(0.0355433429909 0.682863083351 0)
(0.0395642617894 0.648891118705 0)
(0.0424295201637 0.61952572485 0)
(0.0433916901377 0.593218260136 0)
(0.0389610247539 0.563076491939 0)
(0.0295100735987 0.518298838132 0)
(0.0170583484731 0.486923004724 0)
(0.00408203432794 0.472771337762 0)
(-0.00786743971192 0.469518513808 0)
(0.0489298101845 1.30626492641 0)
(0.0897274189382 1.29655447175 0)
(0.0670654411929 1.46496868608 0)
(0.0363575432278 1.62220758637 0)
(0.0138999180282 1.39787854687 0)
(0.00701421575582 1.13633587957 0)
(0.00884558703584 0.976035585432 0)
(0.0149542094361 0.874020543177 0)
(0.0224644508022 0.79912117182 0)
(0.0301680888987 0.74678703437 0)
(0.0378542636221 0.710738825532 0)
(0.0445280066504 0.676242708563 0)
(0.0490901890221 0.641590382582 0)
(0.0518000028527 0.610905824313 0)
(0.0511581832503 0.58738786119 0)
(0.0451724062182 0.564617601392 0)
(0.0354116795999 0.521207696669 0)
(0.0234491186334 0.481901221044 0)
(0.0105732545619 0.464630878154 0)
(-0.00106672398007 0.459873313902 0)
(0.0485252372386 1.30143481863 0)
(0.0865777211519 1.3223486069 0)
(0.0601047488289 1.56854634171 0)
(0.0341537254992 1.73560418147 0)
(0.0201653749015 1.43940424934 0)
(0.0167372768765 1.14257649511 0)
(0.0202251770928 0.97133478737 0)
(0.0268496352894 0.865400738428 0)
(0.0344229361854 0.790907667361 0)
(0.042093525681 0.741632391277 0)
(0.0496972606016 0.706811293153 0)
(0.0562790880137 0.67302977399 0)
(0.0606422697658 0.638236339125 0)
(0.0624065714425 0.606785059581 0)
(0.0598785794924 0.585203563835 0)
(0.0524105379413 0.565806284662 0)
(0.0424156130431 0.526526902948 0)
(0.031543619393 0.479628560693 0)
(0.0196083390146 0.458499623469 0)
(0.00800518335156 0.452472050443 0)
(0.0466300870903 1.31280457961 0)
(0.0785492364509 1.37434322795 0)
(0.0494346934376 1.68174714096 0)
(0.0279993779221 1.81051936596 0)
(0.0211319308265 1.45260825912 0)
(0.023779207092 1.1374361486 0)
(0.0299196848514 0.964478331265 0)
(0.037779992514 0.858884726752 0)
(0.0460974644327 0.786943495551 0)
(0.0541054438928 0.741226297579 0)
(0.061611482584 0.707281795461 0)
(0.0678781950351 0.673894251436 0)
(0.0717797075523 0.639152867163 0)
(0.072449306879 0.607536208128 0)
(0.0683743595672 0.587559701112 0)
(0.0598426033826 0.56893621563 0)
(0.0497179544209 0.532951237904 0)
(0.0396169925352 0.481457575943 0)
(0.0289545867003 0.455771200779 0)
(0.0184902272366 0.447714166835 0)
(0.0418858722601 1.35282633079 0)
(0.0575441997634 1.49109657628 0)
(0.0206406765581 1.78132790224 0)
(0.0073459735579 1.84839636211 0)
(0.0112375498024 1.41989569483 0)
(0.0231628515579 1.11430002184 0)
(0.0338738265222 0.951499166317 0)
(0.0444671399666 0.851671603045 0)
(0.0544678968072 0.785268958047 0)
(0.0632994144418 0.743629210514 0)
(0.0710428203935 0.710604789733 0)
(0.0772275291261 0.677548461148 0)
(0.080843509823 0.643045906179 0)
(0.0808172897987 0.611776852961 0)
(0.0759987927542 0.593127383197 0)
(0.0671864328806 0.574384324087 0)
(0.0568282683677 0.54010779731 0)
(0.0469811999163 0.487006456312 0)
(0.0376574821258 0.456432042273 0)
(0.0285464693779 0.445559848179 0)
(0.00836423261491 1.57576756507 0)
(-0.0169156328181 1.72766186506 0)
(-0.0469451337177 1.80864209643 0)
(-0.0300102774354 1.78933340672 0)
(-0.0038718753796 1.3346301486 0)
(0.0174028220184 1.07069399655 0)
(0.0331451268421 0.929007648973 0)
(0.0469643290226 0.840455889528 0)
(0.0589802904685 0.782759897073 0)
(0.0690762703841 0.745532690354 0)
(0.0775807480632 0.713923781928 0)
(0.0841256873383 0.681634720507 0)
(0.087834146352 0.647900304091 0)
(0.0876287870561 0.617645802883 0)
(0.0825673074306 0.60009439421 0)
(0.0738998047814 0.581161787588 0)
(0.0638444125652 0.548021381108 0)
(0.0543328524897 0.495316092633 0)
(0.0459290929493 0.459991386271 0)
(0.0375964193601 0.445651847972 0)
(0.00830846311347 1.91709057676 0)
(-0.0251806631433 2.0976955747 0)
(-0.0589937629226 1.7552235001 0)
(-0.0301495962691 1.62479727091 0)
(0.00216603984285 1.23145383589 0)
(0.0220015479994 1.01985694006 0)
(0.0381888860167 0.901424978736 0)
(0.0530485464421 0.826345467973 0)
(0.0660625378525 0.778543667239 0)
(0.0769010712661 0.7455784387 0)
(0.0857636192264 0.71590852155 0)
(0.0922783997905 0.684971387612 0)
(0.095656899436 0.652656183555 0)
(0.0949217515503 0.624073723546 0)
(0.0895665499216 0.607355178604 0)
(0.081279107528 0.588685612955 0)
(0.0718426106427 0.556990916886 0)
(0.0626332475306 0.506078908665 0)
(0.0544756154563 0.466197931552 0)
(0.046309871314 0.447737501467 0)
(0.025594688825 2.12359963991 0)
(0.0347580935668 2.39433008008 0)
(0.0121177278816 1.74426038867 0)
(0.0159845146876 1.47802614806 0)
(0.0315982467482 1.16082061968 0)
(0.0428478064452 0.982801152571 0)
(0.0552543635145 0.880203572505 0)
(0.0686559442189 0.816012322741 0)
(0.0811931703743 0.776137170058 0)
(0.0916058312595 0.746449066363 0)
(0.0996824748984 0.718546448679 0)
(0.105029023335 0.689023780554 0)
(0.106933024455 0.658292235598 0)
(0.104725822683 0.631568712288 0)
(0.0986038321459 0.615140755167 0)
(0.0906627677782 0.597138346735 0)
(0.0819566195136 0.567834589031 0)
(0.072587428955 0.52004722742 0)
(0.0636625339581 0.475351283703 0)
(0.0550753540783 0.451993241686 0)
(0.0361592697983 2.16317787668 0)
(0.0681950564128 2.48405129797 0)
(0.0584026342836 1.79147696121 0)
(0.0562795421401 1.40963949707 0)
(0.0623362337664 1.12841827772 0)
(0.068743163766 0.965256655173 0)
(0.0783587584092 0.870932511499 0)
(0.0904080594094 0.813931471111 0)
(0.102173975635 0.778962537679 0)
(0.111610456806 0.751273808618 0)
(0.118231158956 0.724509561119 0)
(0.12156991667 0.696004464398 0)
(0.121025402068 0.666545966719 0)
(0.116567758779 0.641287804612 0)
(0.109581254904 0.624524578283 0)
(0.102373573852 0.607473705312 0)
(0.0942812579276 0.581958625816 0)
(0.0837843435823 0.538328714841 0)
(0.0730458587161 0.488166854815 0)
(0.06368339036 0.459077585574 0)
(0.0392813696435 2.1057625516 0)
(0.0796897613526 2.46905393054 0)
(0.0812566452808 1.80224177964 0)
(0.0839387810165 1.37627493822 0)
(0.0882209460592 1.11389867745 0)
(0.0938771148481 0.960503881871 0)
(0.103024375712 0.871669721082 0)
(0.114704357983 0.819940649078 0)
(0.125752929937 0.787731364454 0)
(0.133900345983 0.76111224955 0)
(0.138585533958 0.73493046537 0)
(0.139232278211 0.706947711596 0)
(0.135603744398 0.678370115176 0)
(0.128825171272 0.654017200863 0)
(0.121684535432 0.636683624885 0)
(0.115755680616 0.621015160618 0)
(0.10771077479 0.600600231415 0)
(0.0948474407541 0.561701033019 0)