/*--------------------------------*- C++ -*----------------------------------*\
| =========                 |                                                 |
| \\      /  F ield         | OpenFOAM: The Open Source CFD Toolbox           |
|  \\    /   O peration     | Version:  2312                                  |
|   \\  /    A nd           | Website:  www.openfoam.com                      |
|    \\/     M anipulation  |                                                 |
\*---------------------------------------------------------------------------*/
FoamFile
{
    version     2.0;
    format      ascii;
    arch        "LSB;label=32;scalar=64";
    class       volScalarField;
    location    "0.245/water";
    object      alphat.gas;
}
// * * * * * * * * * * * * * * * * * * * * * * * * * * * * * * * * * * * * * //

dimensions      [1 -1 -1 0 0 0 0];

internalField   nonuniform List<scalar> 
1503
(
1.99238568899e-07
8.29804838199e-08
3.56749658399e-08
2.46778610985e-08
9.4702227472e-08
6.95557281305e-07
2.95669259928e-06
6.69976625394e-06
1.01454913967e-05
1.233837085e-05
1.34876671211e-05
1.40223135172e-05
1.42457197704e-05
1.43256279837e-05
1.43449722406e-05
1.43417384698e-05
1.43320923901e-05
1.43222768683e-05
1.43143162747e-05
1.43086031693e-05
9.05757597709e-07
6.48846646911e-07
3.35190170289e-07
1.78778608328e-07
7.57459778626e-08
5.77538711056e-08
1.21067128473e-07
7.02416917377e-07
3.05424949366e-06
7.0061045534e-06
1.04426174904e-05
1.25392023757e-05
1.36056294909e-05
1.408594562e-05
1.42762263746e-05
1.43362569837e-05
1.43436204537e-05
1.43331881492e-05
1.43194334448e-05
1.43077286844e-05
1.24551223957e-06
1.0813019953e-06
7.21101985028e-07
4.00190985903e-07
2.22601090972e-07
1.07523071726e-07
7.75399984676e-08
1.78752624444e-07
9.54680829539e-07
3.43930055891e-06
7.12746649424e-06
1.03424434876e-05
1.24181583497e-05
1.35432491253e-05
1.40792759936e-05
1.43021691601e-05
1.43760868507e-05
1.43868362642e-05
1.43753268095e-05
1.43594569186e-05
1.47596438595e-06
1.33870923675e-06
9.86911517904e-07
6.23467237403e-07
4.06918204177e-07
1.94474938844e-07
1.05219585832e-07
9.99596637021e-08
3.66517815091e-07
1.69943874754e-06
4.64678699413e-06
8.12599560134e-06
1.09149574224e-05
1.26984983283e-05
1.36801255097e-05
1.41562088927e-05
1.43557191472e-05
1.44202432292e-05
1.44267410666e-05
1.44131781743e-05
1.64591727294e-06
1.52914279987e-06
1.17993539058e-06
8.09982259323e-07
4.92267675092e-07
3.28596285917e-07
1.42547410689e-07
9.3302617919e-08
1.78113005684e-07
8.69519624406e-07
3.00332828944e-06
6.24907564522e-06
9.37778875337e-06
1.16827494442e-05
1.31141145766e-05
1.38941357245e-05
1.4268929413e-05
1.44217628336e-05
1.44663044537e-05
1.4465077288e-05
1.75593390769e-06
1.66557639938e-06
1.3253548459e-06
9.54247073672e-07
6.30064059595e-07
3.62710986686e-07
2.22999984813e-07
9.58102970016e-08
1.08132013232e-07
4.48337819846e-07
1.91407067485e-06
4.74228492691e-06
7.94725146857e-06
1.06082867715e-05
1.24351639483e-05
1.35290176597e-05
1.41098870661e-05
1.43800165485e-05
1.44827146782e-05
1.45053940398e-05
1.80611134428e-06
1.73050286236e-06
1.40729504869e-06
1.04934063276e-06
7.3287530131e-07
4.65271393252e-07
2.4677954122e-07
1.30546523678e-07
7.33453233896e-08
2.22276344732e-07
1.16620826258e-06
3.52966956788e-06
6.66058793526e-06
9.54486223321e-06
1.16960694956e-05
1.30869731939e-05
1.38861495363e-05
1.42937320066e-05
1.44719048411e-05
1.45298507091e-05
1.82725046867e-06
1.76318353029e-06
1.45380844624e-06
1.11055302176e-06
8.06889824057e-07
5.47138767315e-07
3.24213847257e-07
1.62413487832e-07
7.1772679049e-08
9.91442148137e-08
6.32872820193e-07
2.5229396166e-06
5.50219906347e-06
8.52335908511e-06
1.0935606422e-05
1.25949507341e-05
1.36107414873e-05
1.41667721051e-05
1.44333932557e-05
1.45364455957e-05
1.84292256087e-06
1.783268836e-06
1.48139820746e-06
1.15010027581e-06
8.59372135795e-07
6.10860080047e-07
3.93573110124e-07
2.07242350789e-07
1.01050124018e-07
5.19028473066e-08
2.61106455366e-07
1.6298273733e-06
4.41743594652e-06
7.54041305732e-06
1.01747443602e-05
1.20748482907e-05
1.32977860311e-05
1.40056366857e-05
1.43688360225e-05
1.45245315745e-05
1.85444936884e-06
1.7974965719e-06
1.50099673174e-06
1.17697886552e-06
8.96357720413e-07
6.59674963942e-07
4.52276966447e-07
2.66006070388e-07
1.14779830872e-07
5.31733106124e-08
8.12352487968e-08
8.22533933088e-07
3.33115861971e-06
6.56328725629e-06
9.4144292014e-06
1.15387616002e-05
1.29582514298e-05
1.38164629962e-05
1.42803230871e-05
1.44936871731e-05
1.85263246477e-06
1.80496788646e-06
1.51384986525e-06
1.19424597102e-06
9.217589454e-07
6.96813289315e-07
5.01274073825e-07
3.20044166504e-07
1.56477574034e-07
5.28485470164e-08
3.98695702142e-08
2.61192950203e-07
2.18041131791e-06
5.52754586203e-06
8.62619305777e-06
1.09801276727e-05
1.25934741202e-05
1.36014415718e-05
1.41686501472e-05
1.4443193352e-05
1.8445815494e-06
1.80662477895e-06
1.51863425292e-06
1.20269170515e-06
9.38343977849e-07
7.25112965422e-07
5.41435092843e-07
3.67037892167e-07
1.96846590441e-07
6.77898160438e-08
3.32265086727e-08
7.28935869897e-08
1.06723063784e-06
4.36778042338e-06
7.74923876057e-06
1.03656006576e-05
1.21904050884e-05
1.33573274845e-05
1.40319099878e-05
1.43721421987e-05
1.82788918323e-06
1.80395573524e-06
1.5179557053e-06
1.20463798953e-06
9.48493713979e-07
7.4709007804e-07
5.74217956653e-07
4.05824970546e-07
2.31522584066e-07
8.34709576539e-08
2.731286423e-08
3.90492665943e-08
3.48494147706e-07
3.07821319102e-06
6.71099976922e-06
9.64233167314e-06
1.17239341001e-05
1.30715943389e-05
1.38668811631e-05
1.42795663687e-05
1.82258840347e-06
1.80033037289e-06
1.51266206506e-06
1.20343474316e-06
9.56999053996e-07
7.6656127045e-07
6.01795090003e-07
4.37125858876e-07
2.59347234783e-07
9.76443756322e-08
2.91846966761e-08
2.65065891605e-08
1.13439843976e-07
1.82083625104e-06
5.46988920765e-06
8.73527441174e-06
1.11484550206e-05
1.27283820636e-05
1.36684813727e-05
1.41643163813e-05
1.82613229123e-06
1.8016901982e-06
1.51321529557e-06
1.20849597875e-06
9.70755772217e-07
7.87795511804e-07
6.2704294689e-07
4.63275827013e-07
2.82219088105e-07
1.12207686693e-07
3.24739049216e-08
1.88937794812e-08
4.89083268312e-08
8.10718637746e-07
3.99528726152e-06
7.57955491731e-06
1.04226043905e-05
1.23068371265e-05
1.34287980269e-05
1.40245880849e-05
1.83897947286e-06
1.80862876755e-06
1.52653667052e-06
1.23068016665e-06
9.97609096549e-07
8.14293557023e-07
6.52000591547e-07
4.86947411071e-07
3.04251231326e-07
1.30091320873e-07
3.8752850161e-08
1.83483174742e-08
2.96078213123e-08
2.80605235626e-07
2.50200139701e-06
6.17424102704e-06
9.50662281446e-06
1.17817124693e-05
1.31368946868e-05
1.38573336932e-05
1.85592344041e-06
1.83482908888e-06
1.57491705143e-06
1.2853534476e-06
1.04199196515e-06
8.45459811297e-07
6.76171500374e-07
5.0959184421e-07
3.29332254683e-07
1.56180459758e-07
4.90262481632e-08
1.9461220528e-08
2.17650961799e-08
8.57843625632e-08
1.27281924471e-06
4.59812345989e-06
8.37667278729e-06
1.11278195184e-05
1.27794781545e-05
1.36577112245e-05
1.93390667577e-06
1.93881181628e-06
1.68144242909e-06
1.36672912304e-06
1.09173412465e-06
8.74130787594e-07
6.96403710159e-07
5.31075133724e-07
3.61777338093e-07
1.91097171054e-07
6.41362675465e-08
2.1835261109e-08
1.69761630964e-08
3.64495680175e-08
4.98056792312e-07
3.04736129339e-06
7.05049390012e-06
1.03285291101e-05
1.23431268465e-05
1.34190772498e-05
2.09650706252e-06
2.10885604302e-06
1.80619518945e-06
1.43634770078e-06
1.12704412282e-06
8.9317911183e-07
7.10563986728e-07
5.52930758617e-07
3.98445188257e-07
2.33272968295e-07
8.50930719593e-08
2.52897439114e-08
1.72032946724e-08
2.55647330942e-08
1.27644784711e-07
1.69840972312e-06
5.59320124665e-06
9.38029051809e-06
1.18158815697e-05
1.31332592504e-05
2.24901373554e-06
2.22492435844e-06
1.86618445584e-06
1.46494415045e-06
1.14273389345e-06
9.02408084455e-07
7.20511087124e-07
5.73051831355e-07
4.34332064404e-07
2.77632904393e-07
1.11171337052e-07
2.98004144739e-08
1.74312045859e-08
1.99841649065e-08
5.0514602613e-08
6.59463060652e-07
4.0993314221e-06
8.29079224032e-06
1.11874057532e-05
1.2791161469e-05
2.25643394447e-06
2.23467768282e-06
1.88353813233e-06
1.47909638568e-06
1.15093562948e-06
9.06171099226e-07
7.26329398377e-07
5.89239000994e-07
4.65357436215e-07
3.17963930044e-07
1.38422938681e-07
3.51046703867e-08
1.75563385533e-08
1.9119787226e-08
3.00163923349e-08
1.7077941359e-07
2.65371652458e-06
7.11313184161e-06
1.04589580029e-05
1.23853677544e-05
2.27435882158e-06
2.25726448733e-06
1.90414165516e-06
1.49591119922e-06
1.16021216486e-06
9.09905014328e-07
7.30362389136e-07
6.01180434221e-07
4.90124578889e-07
3.51354602201e-07
1.62154547638e-07
4.01288536685e-08
1.76123940751e-08
1.80765789633e-08
2.56370519187e-08
8.23435646883e-08
1.2969409195e-06
5.87034267577e-06
9.62993763488e-06
1.19081664509e-05
2.2787347895e-06
2.2701089781e-06
1.91830184535e-06
1.50829704839e-06
1.1684812675e-06
9.14099976253e-07
7.34062523216e-07
6.11170595607e-07
5.11419482553e-07
3.78287420161e-07
1.80627799692e-07
4.40563320381e-08
1.76590853318e-08
1.71848198196e-08
2.23544501111e-08
5.28444068194e-08
4.71942714914e-07
4.5417493702e-06
8.6929477231e-06
1.13499695421e-05
2.27837062756e-06
2.27650832863e-06
1.92418150847e-06
1.51263210654e-06
1.17182730409e-06
9.16762969373e-07
7.3828727817e-07
6.22540755066e-07
5.3189088019e-07
3.99749680759e-07
1.94797756818e-07
4.76340963813e-08
1.78512529658e-08
1.66752501757e-08
2.00465173012e-08
3.24481312512e-08
1.96316750413e-07
3.22064706129e-06
7.6498547861e-06
1.07003777532e-05
2.28805860218e-06
2.28750810569e-06
1.93011798028e-06
1.51269608021e-06
1.17153259273e-06
9.18692081143e-07
7.44935482799e-07
6.37292938344e-07
5.51312203877e-07
4.16128453292e-07
2.06151149864e-07
5.16269381637e-08
1.83260501329e-08
1.65850967125e-08
1.87801515212e-08
2.54578390913e-08
1.04908715315e-07
2.04607180463e-06
6.49234266078e-06
9.94420382331e-06
2.29439750494e-06
2.30068937671e-06
1.93814157455e-06
1.51301104431e-06
1.17097142335e-06
9.21988895639e-07
7.55171837649e-07
6.54432841632e-07
5.68365309921e-07
4.28083971583e-07
2.15000757938e-07
5.59323084322e-08
1.90984888526e-08
1.68307902372e-08
1.83567760303e-08
2.19349121423e-08
6.33251168459e-08
1.13187449744e-06
5.23864434663e-06
9.06925789722e-06
2.30709383641e-06
2.31526532377e-06
1.9472774943e-06
1.51507378492e-06
1.17178682606e-06
9.27336770898e-07
7.68129363773e-07
6.71498848644e-07
5.82111249741e-07
4.3541462362e-07
2.205536183e-07
5.9718836614e-08
1.99343449793e-08
1.71793763538e-08
1.84454309752e-08
2.05435624088e-08
4.34963500625e-08
5.35206342317e-07
3.97446349223e-06
8.08072286138e-06
2.31108542781e-06
2.32662839489e-06
1.95370752762e-06
1.51618691631e-06
1.17316361951e-06
9.34030802579e-07
7.81834164616e-07
6.86677701842e-07
5.91908442013e-07
4.36811943059e-07
2.21321030429e-07
6.18838219774e-08
2.03973343811e-08
1.7426677206e-08
1.88261653021e-08
2.02671950728e-08
3.00365144638e-08
2.16791690893e-07
2.78182099891e-06
6.99029221511e-06
2.32606381581e-06
2.33208276988e-06
1.95034146368e-06
1.51119480673e-06
1.17231995097e-06
9.4081178328e-07
7.95017821825e-07
6.99352144868e-07
5.96644924409e-07
4.31193252737e-07
2.171779169e-07
6.22788756637e-08
2.04764452338e-08
1.76157515579e-08
1.91110309911e-08
2.02911851604e-08
2.30113360885e-08
9.03664495459e-08
1.73374614028e-06
5.817489834e-06
2.33291283795e-06
2.32787395048e-06
1.93833090647e-06
1.50064781883e-06
1.17006483558e-06
9.48546417965e-07
8.07903732218e-07
7.09278903083e-07
5.9493595977e-07
4.18932650144e-07
2.0987806264e-07
6.18382087756e-08
2.06571231587e-08
1.77584286945e-08
1.91437467464e-08
2.02470279345e-08
2.17210687149e-08
5.10530370447e-08
9.40190950832e-07
4.62386942684e-06
2.32683461847e-06
2.3033850696e-06
1.91181369503e-06
1.4862812254e-06
1.17121658087e-06
9.60318170764e-07
8.21619433758e-07
7.15718758136e-07
5.85838890648e-07
4.02362886802e-07
2.01770873452e-07
6.24161265832e-08
2.14886686067e-08
1.7875422784e-08
1.90235635194e-08
1.99985651458e-08
2.08364605906e-08
3.76511080766e-08
4.42220418098e-07
3.4756610569e-06
2.28809629796e-06
2.24691850706e-06
1.87143771585e-06
1.47735146952e-06
1.18440306934e-06
9.79935086936e-07
8.36445686577e-07
7.16407171348e-07
5.69622562398e-07
3.84751393474e-07
1.96404882489e-07
6.63614153487e-08
2.30816872998e-08
1.80355961796e-08
1.88591994395e-08
1.96239853243e-08
2.00475854854e-08
2.5042488105e-08
1.83549973375e-07
2.40609631125e-06
2.22025592286e-06
2.17280010342e-06
1.84340735664e-06
1.49337028153e-06
1.21700238076e-06
1.00734907e-06
8.48275741747e-07
7.06821156528e-07
5.48317544033e-07
3.72290300077e-07
1.99836727621e-07
7.3880551176e-08
2.54648261155e-08
1.8314390015e-08
1.87314811133e-08
1.92697961427e-08
1.93346125531e-08
2.08668065244e-08
7.89590250274e-08
1.50230407391e-06
2.17129070551e-06
2.15282096272e-06
1.87845453396e-06
1.55534507126e-06
1.26929618313e-06
1.03409605479e-06
8.474837386e-07
6.88410951137e-07
5.33524534565e-07
3.73405988996e-07
2.12569416309e-07
8.48289565318e-08
2.88663450473e-08
1.87917534443e-08
1.87008465515e-08
1.89756020074e-08
1.87341516466e-08
1.94280956349e-08
4.46686002643e-08
8.55322303096e-07
2.23003446479e-06
2.26215484087e-06
2.01010282059e-06
1.66465216434e-06
1.32699458654e-06
1.04839824225e-06
8.38154589599e-07
6.75309008606e-07
5.32545476608e-07
3.88131401442e-07
2.34085046612e-07
9.98755584966e-08
3.35534964347e-08
1.95319410195e-08
1.87291179783e-08
1.8639891349e-08
1.81380630774e-08
1.83864508479e-08
3.30935198161e-08
4.2582259188e-07
2.37922804895e-06
2.45634395482e-06
2.19560597174e-06
1.78583878063e-06
1.38177722269e-06
1.06027737007e-06
8.34775871464e-07
6.74639574205e-07
5.44466738682e-07
4.13201497069e-07
2.63311683525e-07
1.19765435695e-07
3.97573420722e-08
2.05324273606e-08
1.86957442274e-08
1.8171009806e-08
1.74125331705e-08
1.74546113062e-08
2.10028434308e-08
1.62748409198e-07
2.53619808708e-06
2.65251466487e-06
2.37396734446e-06
1.90949874387e-06
1.44304851136e-06
1.0822301197e-06
8.43781242131e-07
6.8559582058e-07
5.64831985878e-07
4.44064170408e-07
2.98297010828e-07
1.44847780177e-07
4.77900700621e-08
2.17639968466e-08
1.85771854869e-08
1.76258826463e-08
1.66068330219e-08
1.64366943258e-08
1.86276452356e-08
6.33567971793e-08
2.70037855933e-06
2.82837274739e-06
2.52386451041e-06
2.02767204651e-06
1.50876649959e-06
1.11374434192e-06
8.62899844e-07
7.03861049366e-07
5.88391483672e-07
4.76104788617e-07
3.35501338705e-07
1.73643459467e-07
5.78037394073e-08
2.32727022715e-08
1.84363213708e-08
1.70812491358e-08
1.57815311068e-08
1.5252484825e-08
1.66678816837e-08
3.96469718639e-08
1.43050751948e-05
1.43034129357e-05
1.43031795977e-05
1.430405553e-05
1.43057495661e-05
1.43077354434e-05
1.43087132847e-05
1.43054127494e-05
1.42899241587e-05
1.42438897993e-05
1.41263367362e-05
1.38496625991e-05
1.32372933072e-05
1.196839819e-05
9.5865698123e-06
5.89328716165e-06
2.11266779663e-06
3.50728482006e-07
1.09626601852e-07
4.98627643944e-07
1.4299860362e-05
1.42958830797e-05
1.42949392347e-05
1.42959971493e-05
1.42975892117e-05
1.42967868351e-05
1.42870701313e-05
1.42540683413e-05
1.41674596948e-05
1.39667523353e-05
1.35394808326e-05
1.2696461001e-05
1.11696392404e-05
8.70849558143e-06
5.41373000078e-06
2.24717948896e-06
5.38024620845e-07
1.4103964161e-07
2.57529842478e-07
9.90542842892e-07
1.43465746051e-05
1.43387947959e-05
1.433521315e-05
1.43335681942e-05
1.43297962761e-05
1.43157773613e-05
1.42749079208e-05
1.41744095666e-05
1.39534290595e-05
1.35078986292e-05
1.26790994266e-05
1.12660419252e-05
9.10215249089e-06
6.246156679e-06
3.25288099604e-06
1.11514994466e-06
2.76482722978e-07
1.73867673775e-07
5.18496296667e-07
1.44649828852e-06
1.43969873805e-05
1.43847622557e-05
1.43763467579e-05
1.43677616705e-05
1.43507348392e-05
1.43091466989e-05
1.42126086142e-05
1.40071056679e-05
1.36042572941e-05
1.28749591791e-05
1.16605749476e-05
9.82340476687e-06
7.35867291843e-06
4.55812376075e-06
2.09292783709e-06
6.56167242349e-07
2.12585494228e-07
2.85936358693e-07
8.57104240001e-07
1.81892496993e-06
1.44494749736e-05
1.44331198852e-05
1.44176571561e-05
1.43970092461e-05
1.43572742263e-05
1.42723619634e-05
1.40968563515e-05
1.3757860817e-05
1.31501563175e-05
1.21432910529e-05
1.06134344445e-05
8.51228927209e-06
5.97158889307e-06
3.39920572259e-06
1.42105901583e-06
4.42852807864e-07
2.2457111464e-07
4.7229309063e-07
1.20070398877e-06
2.08857214249e-06
1.44955990906e-05
1.4476073583e-05
1.44513443734e-05
1.44130243422e-05
1.43406677905e-05
1.41975557935e-05
1.39245740348e-05
1.34358425744e-05
1.26221062284e-05
1.13702683916e-05
9.60711315434e-06
7.36853993272e-06
4.87826163891e-06
2.58233477542e-06
1.00869827408e-06
3.436979148e-07
2.91023060928e-07
7.12312447762e-07
1.49329283702e-06
2.27104464195e-06
1.45314691099e-05
1.4509931827e-05
1.44735647504e-05
1.44116981374e-05
1.42971083779e-05
1.4083131295e-05
1.3700147566e-05
1.30564758485e-05
1.20498249253e-05
1.0595294948e-05
8.67230421561e-06
6.38423747385e-06
4.00937614718e-06
1.99036931767e-06
7.47868118237e-07
3.10655673714e-07
4.08077146936e-07
9.68751989812e-07
1.71805069466e-06
2.390751537e-06
1.45547186428e-05
1.45321704199e-05
1.44816202301e-05
1.43903562696e-05
1.42248404371e-05
1.39302126732e-05
1.34304660434e-05
1.26348810406e-05
1.14558238088e-05
9.84081902956e-06
7.8168685485e-06
5.53728993083e-06
3.30940032957e-06
1.55253945667e-06
5.83880802696e-07
3.25199474098e-07
5.68016791009e-07
1.20792958542e-06
1.88296031752e-06
2.46695289217e-06
1.45637642083e-05
1.45409126873e-05
1.44735442254e-05
1.43473693067e-05
1.41235809325e-05
1.37415344189e-05
1.31230750155e-05
1.21839094608e-05
1.08555154189e-05
9.11778514745e-06
7.03781458468e-06
4.80442547271e-06
2.73821568397e-06
1.22586404404e-06
4.8706795106e-07
3.80249974996e-07
7.5492588323e-07
1.4121932005e-06
2.0019917341e-06
2.51303423147e-06
1.4557242525e-05
1.45344945957e-05
1.44477351996e-05
1.42817464845e-05
1.39939110625e-05
1.35204860614e-05
1.2785011311e-05
1.17135525054e-05
1.02586388003e-05
8.43020304799e-06
6.32797272195e-06
4.16571468341e-06
2.26809055947e-06
9.83538678181e-07
4.4055504641e-07
4.71666988545e-07
9.49441818825e-07
1.57861901879e-06
2.0871893707e-06
2.53816426416e-06
1.45338786415e-05
1.45114675064e-05
1.44029678331e-05
1.41930622807e-05
1.38370222588e-05
1.32706714236e-05
1.24224358838e-05
1.12312740977e-05
9.67101543417e-06
7.77840369444e-06
5.6794302545e-06
3.60564949216e-06
1.88026033304e-06
8.0800002292e-07
4.34572678162e-07
5.93575007607e-07
1.13543918808e-06
1.71181371792e-06
2.14758712391e-06
2.54868574083e-06
1.4492658551e-05
1.447081479e-05
1.43385789574e-05
1.40815404739e-05
1.36546595989e-05
1.29957795556e-05
1.20406895392e-05
1.07426547881e-05
9.09605000614e-06
7.16110984409e-06
5.08514338746e-06
3.11292080086e-06
1.56206791668e-06
6.86979157794e-07
4.63332140835e-07
7.37052794672e-07
1.30355542376e-06
1.81818025105e-06
2.18983777885e-06
2.549046334e-06
1.44330796835e-05
1.44122385027e-05
1.4254706098e-05
1.39481927348e-05
1.34491588499e-05
1.26996119574e-05
1.1644512138e-05
1.02520259906e-05
8.53581900942e-06
6.57664394254e-06
4.53957815993e-06
2.67974369738e-06
1.30472336996e-06
6.11420167054e-07
5.2274516464e-07
8.91523588043e-07
1.45078090493e-06
1.90342733251e-06
2.21882587873e-06
2.54241304583e-06
1.4355255305e-05
1.43363219441e-05
1.41524095884e-05
1.37948592607e-05
1.32234200884e-05
1.23860752732e-05
1.12381953361e-05
9.76289243397e-06
7.99171484711e-06
6.02351772073e-06
4.0388030696e-06
2.30099515361e-06
1.10157822363e-06
5.74443011025e-07
6.08644229165e-07
1.04718029971e-06
1.57806345205e-06
1.97209062267e-06
2.23810310893e-06
2.53105689044e-06
1.42596923165e-05
1.4244387002e-05
1.40335204258e-05
1.36240098143e-05
1.29806774979e-05
1.205898998e-05
1.0825525162e-05
9.27805906959e-06
7.46468942394e-06
5.50058538175e-06
3.58024669969e-06
1.97325983974e-06
9.46924941117e-07
5.70771087337e-07
7.15820365189e-07
1.19683035806e-06
1.68797280512e-06
2.0277095098e-06
2.25021855534e-06
2.51658321883e-06
1.41467137528e-05
1.41379905543e-05
1.39001658419e-05
1.34382677358e-05
1.27240355101e-05
1.17216938384e-05
1.04095169074e-05
8.79951696285e-06
6.95522278979e-06
5.00693401008e-06
3.16227349158e-06
1.69390457139e-06
8.35387944619e-07
5.96245968536e-07
8.38067649787e-07
1.33645340743e-06
1.78330965363e-06
2.07305527027e-06
2.25697333874e-06
2.50006668172e-06
1.40156893609e-05
1.40181970095e-05
1.37541009298e-05
1.32397892066e-05
1.24559099519e-05
1.13765851123e-05
9.99209764975e-06
8.32826019267e-06
6.46320369638e-06
4.54169307043e-06
2.78373071381e-06
1.46035402278e-06
7.61852414475e-07
6.47287221465e-07
9.6895832473e-07
1.46468285653e-06
1.86657211087e-06
2.11029923075e-06
2.25961899952e-06
2.48213915746e-06
1.38644385772e-05
1.3884922544e-05
1.35961185485e-05
1.30297589251e-05
1.21776219936e-05
1.10248354303e-05
9.57394746456e-06
7.86422905842e-06
5.98790398746e-06
4.10392808722e-06
2.44361552278e-06
1.26972058629e-06
7.21698187244e-07
7.20378047844e-07
1.10279766088e-06
1.58182702877e-06
1.93986621948e-06
2.14114474567e-06
2.25902228611e-06
2.46307102867e-06
1.36890266772e-05
1.37366458293e-05
1.34258143402e-05
1.28082407431e-05
1.18893425929e-05
1.06664336516e-05
9.15463448281e-06
7.40650221436e-06
5.52816754917e-06
3.69273513206e-06
2.14096494924e-06
1.11882122173e-06
7.11032346245e-07
8.11738103752e-07
1.2352841574e-06
1.6889588889e-06
2.00494389885e-06
2.16693841795e-06
2.25581046444e-06
2.44287409439e-06
1.34841292241e-05
1.35706249336e-05
1.32417834344e-05
1.25744105409e-05
1.15903867442e-05
1.03005514047e-05
8.73304267484e-06
6.95375643831e-06
5.08285044377e-06
3.30756523979e-06
1.87495933053e-06
1.00444432639e-06
7.26697711996e-07
9.17272715555e-07
1.36367988648e-06
1.78731606821e-06
2.06324106274e-06
2.18875810924e-06
2.2504954458e-06
2.42143310663e-06
1.32440048426e-05
1.33834291987e-05
1.30420286921e-05
1.2326970838e-05
1.12796942345e-05
9.92610787226e-06
8.30800714614e-06
6.50493429689e-06
4.65145195047e-06
2.94867587165e-06
1.64508585004e-06
9.23625503258e-07
7.66009820775e-07
1.03276722386e-06
1.48656865254e-06
1.87801303659e-06
2.11590500544e-06
2.2074757893e-06
2.24356509462e-06
2.39864848296e-06
1.2962513822e-05
1.31711772221e-05
1.28242429932e-05
1.2064530974e-05
1.0956343202e-05
9.54240704657e-06
7.87903220622e-06
6.05997579723e-06
4.23474938592e-06
2.61746528137e-06
1.45113865036e-06
8.73738263708e-07
8.26342086039e-07
1.15421143411e-06
1.60342154718e-06
1.96196109392e-06
2.16382971832e-06
2.22379922797e-06
2.23553058529e-06
2.37455592726e-06
1.26326661662e-05
1.29294732996e-05
1.25859445432e-05
1.17859163664e-05
1.06200103139e-05
9.14969858599e-06
7.44688400365e-06
5.62035573323e-06
3.83513876363e-06
2.31640197338e-06
1.29292880346e-06
8.52368122005e-07
9.04764833076e-07
1.27811712079e-06
1.71418414713e-06
2.03988909575e-06
2.2077055324e-06
2.23829912556e-06
2.22692890879e-06
2.34939057713e-06
1.2246413444e-05
1.26534138659e-05
1.23246510385e-05
1.14904257045e-05
1.02712563471e-05
8.74944571502e-06
7.01379307997e-06
5.1891523956e-06
3.45643326961e-06
2.04842823308e-06
1.16980891264e-06
8.57083190015e-07
9.97912846261e-07
1.40172360937e-06
1.81900159217e-06
2.11239386994e-06
2.2480725253e-06
2.25142651339e-06
2.21829243312e-06
2.32358360221e-06
1.1794215978e-05
1.23378793115e-05
1.20381937156e-05
1.11779903825e-05
9.91151017391e-06
8.34415580561e-06
6.58314811171e-06
4.77057792548e-06
3.10313096541e-06
1.81603633989e-06
1.0802936947e-06
8.85242783705e-07
1.1021265336e-06
1.52304895513e-06
1.91808735288e-06
2.17998323803e-06
2.28536241796e-06
2.26352348767e-06
2.21010619275e-06
2.29770686808e-06
1.12672157447e-05
1.19785916028e-05
1.17252240303e-05
1.08492367703e-05
9.54279624402e-06
7.93688531761e-06
6.15885218241e-06
4.36919083437e-06
2.77944755787e-06
1.62044062476e-06
1.0220009e-06
9.33919947739e-07
1.21376620103e-06
1.64080373696e-06
2.01167690376e-06
2.243095931e-06
2.31991994675e-06
2.27482958644e-06
2.20277308488e-06
2.2724002099e-06
1.06609465e-05
1.15735136196e-05
1.13857729848e-05
1.05055261271e-05
9.1674333473e-06
7.53073307022e-06
5.74468890601e-06
3.98914980379e-06
2.48850946167e-06
1.46121058174e-06
9.91900340581e-07
9.99934311146e-07
1.32952942991e-06
1.75421722879e-06
2.10000223803e-06
2.30209680095e-06
2.35200541568e-06
2.28548630123e-06
2.19659821032e-06
2.24831703656e-06
9.97331718274e-06
1.11226733461e-05
1.1021320129e-05
1.01489360572e-05
8.78789084974e-06
7.12859315549e-06
5.34398766036e-06
3.63379450363e-06
2.23198172546e-06
1.33644384352e-06
9.86668001461e-07
1.07994371861e-06
1.44663579195e-06
1.86283102422e-06
2.18325396056e-06
2.35725647303e-06
2.38178822778e-06
2.29554184211e-06
2.19179033577e-06
2.22610755118e-06
9.20246021965e-06
1.0626893085e-05
1.06343089307e-05
9.78215688119e-06
8.40683808111e-06
6.73323781252e-06
4.95967027208e-06
3.30562682639e-06
2.01014606104e-06
1.24325895361e-06
1.0029331341e-06
1.170538497e-06
1.56283924899e-06
1.96630845869e-06
2.26153410007e-06
2.40873167081e-06
2.40934394046e-06
2.30495756617e-06
2.18846768129e-06
2.20643345987e-06
8.35149999398e-06
1.00869900552e-05
1.02273541626e-05
9.40820071067e-06
8.02719762444e-06
6.34753339894e-06
4.59448944733e-06
3.0064976025e-06
1.82219168076e-06
1.17827942945e-06
1.03733432039e-06
1.2683156411e-06
1.67631958063e-06
2.06429723334e-06
2.33482190597e-06
2.45656127274e-06
2.43466320507e-06
2.31361614467e-06
2.18665241848e-06
2.18998745625e-06
7.42142205828e-06
9.50080066393e-06
9.80173055892e-06
9.02970646025e-06
7.65196362965e-06
5.97452349774e-06
4.25117220094e-06
2.73771228382e-06
1.66645166586e-06
1.13791137951e-06
1.0864457452e-06
1.36994878848e-06
1.78554257439e-06
2.15636459097e-06
2.40297102833e-06
2.50068400284e-06
2.45767365238e-06
2.32133165301e-06
2.18624515562e-06
2.1774850892e-06
6.40167259292e-06
8.8593905314e-06
9.35563961805e-06
8.6480405219e-06
7.28377019262e-06
5.61722910348e-06
3.93226159969e-06
2.49988307744e-06
1.54048064875e-06
1.11842041281e-06
1.14670292559e-06
1.47227963094e-06
1.88916170415e-06
2.24200182644e-06
2.46574015063e-06
2.54097296438e-06
2.47827007474e-06
2.32786374256e-06
2.18698376349e-06
2.16960643093e-06
5.30330708207e-06
8.15087799604e-06
8.88387959634e-06
8.26259787991e-06
6.92430451719e-06
5.2781461309e-06
3.6396292219e-06
2.2925765145e-06
1.44105399335e-06
1.11593244766e-06
1.21443151608e-06
1.57243638574e-06
1.98598953976e-06
2.3206768058e-06
2.52284506818e-06
2.57727661129e-06
2.49634694636e-06
2.33294064085e-06
2.18840413293e-06
2.16688272826e-06
4.1822613485e-06
7.36767345769e-06
8.37918705579e-06
7.87066232904e-06
6.57379663033e-06
4.95861053832e-06
3.37384736236e-06
2.11397939814e-06
1.36423262555e-06
1.12648070928e-06
1.28600353037e-06
1.667958954e-06
2.07502583378e-06
2.391905921e-06
2.57401541975e-06
2.60945635789e-06
2.51182846554e-06
2.33629542069e-06
2.18982845412e-06
2.16954332555e-06
3.09440783175e-06
6.50552190296e-06
7.83464674218e-06
7.46863388304e-06
6.23113842333e-06
4.65833852287e-06
3.13367529257e-06
1.96078423782e-06
1.30556485249e-06
1.14614517549e-06
1.35806603809e-06
1.75689474119e-06
2.15550478677e-06
2.45531781034e-06
2.61904141847e-06
2.63741477235e-06
2.52469285375e-06
2.33771507006e-06
2.19040386174e-06
2.17735678818e-06
2.10390947994e-06
5.57046333206e-06
7.24741815362e-06
7.05427701641e-06
5.89451274151e-06
4.37522649508e-06
2.91586491092e-06
1.82840469122e-06
1.26040931993e-06
1.17124356376e-06
1.42773879061e-06
1.83782351225e-06
2.22691836083e-06
2.51068901671e-06
2.6578040736e-06
2.66111561002e-06
2.53499091546e-06
2.33709332472e-06
2.18919427403e-06
2.18950782054e-06
1.28209051481e-06
4.59367419776e-06
6.61990000458e-06
6.62677173065e-06
5.56127682652e-06
4.10536079094e-06
2.71553085425e-06
1.71156842188e-06
1.22430922683e-06
1.19848470865e-06
1.49269612197e-06
1.90979989527e-06
2.28900307751e-06
2.55795704326e-06
2.69029854957e-06
2.68060342583e-06
2.54285403839e-06
2.33444658969e-06
2.18522741442e-06
2.20439485676e-06
6.41008257892e-07
3.62649729866e-06
5.95975337249e-06
)
;

boundaryField
{
    emptyPatch
    {
        type            empty;
    }
    minY
    {
        type            zeroGradient;
    }
    maxY
    {
        type            calculated;
        value           nonuniform List<scalar> 0();
    }
    maxX
    {
        type            compressible::alphatPhaseChangeJayatillekeWallFunction;
        Prt             0.85;
        Cmu             0.09;
        kappa           0.41;
        E               9.8;
        dmdt            uniform 0;
        value           uniform 0;
    }
    water_to_heater
    {
        type            compressible::alphatWallBoilingWallFunction;
        phaseType       vapor;
        relax           constant 1;
        partitioningModel
        {
            type            Lavieville;
            alphaCrit       0.2;
        }
        otherPhase      liquid;
        dmdt            uniform 0;
        dDep            uniform 1e-05;
        qQuenching      uniform 0;
        alphatConv      uniform 0;
        value           nonuniform List<scalar> 
61
(
5.85132054345e-11
1.04304972392e-07
1.04304972392e-07
1.04302973465e-07
1.04302973465e-07
1.04304972392e-07
1.04304972392e-07
7.75482016972e-08
4.76331871212e-08
4.43006807532e-08
4.43006807532e-08
4.73828239977e-08
4.73828239977e-08
4.65120320646e-08
4.65120320646e-08
4.92874602086e-08
4.67191489574e-08
4.98750237112e-08
4.98750237112e-08
4.67191489574e-08
4.67191489574e-08
4.97941985385e-08
4.97941985385e-08
4.65425744001e-08
4.74897499137e-08
4.64848085257e-08
4.64848085257e-08
3.98818154196e-08
3.98818154196e-08
3.54016050811e-08
3.54016050811e-08
5.27887707535e-08
1.27076983125e-07
1.38690306366e-07
1.38690306366e-07
1.486325798e-07
1.486325798e-07
1.39903535075e-07
1.39903535075e-07
1.53481746069e-07
1.40108844467e-07
1.53225339213e-07
1.53225339213e-07
1.39903535075e-07
1.39903535075e-07
1.50650481796e-07
1.50650481796e-07
1.39272514688e-07
1.46607051839e-07
1.37927534883e-07
1.37927534883e-07
1.40217045172e-07
1.40217045172e-07
1.09232863268e-07
1.09232863268e-07
4.72288899781e-08
2.07765552064e-08
1.73513272974e-08
1.73513272974e-08
1.90783681068e-08
1.90783681068e-08
)
;
    }
    procBoundary2to3
    {
        type            processor;