/*--------------------------------*- C++ -*----------------------------------*\
| =========                 |                                                 |
| \\      /  F ield         | OpenFOAM: The Open Source CFD Toolbox           |
|  \\    /   O peration     | Version:  2312                                  |
|   \\  /    A nd           | Website:  www.openfoam.com                      |
|    \\/     M anipulation  |                                                 |
\*---------------------------------------------------------------------------*/
FoamFile
{
    version     2.0;
    format      ascii;
    arch        "LSB;label=32;scalar=64";
    class       volScalarField;
    location    "0.275/water";
    object      d.gas;
}
// * * * * * * * * * * * * * * * * * * * * * * * * * * * * * * * * * * * * * //

dimensions      [0 1 0 0 0 0 0];

internalField   nonuniform List<scalar> 
6000
(
0.00497371219221
0.00497377475274
0.0049737913776
0.00497380402467
0.00497381476076
0.00497382434146
0.00497383312301
0.00497384111157
0.00497384824778
0.00497385456348
0.00497386008885
0.0049738648737
0.00497386899312
0.0049738725199
0.00497387551449
0.00497387802663
0.00497388009589
0.00497388175271
0.00497388301783
0.00497388390524
0.0049740241301
0.00497405431898
0.00497405148569
0.00497405121719
0.00497405579822
0.00497405999883
0.00497406403147
0.00497406798499
0.00497407197606
0.00497407590522
0.00497407955542
0.00497408283926
0.00497408578741
0.00497408843766
0.0049740908026
0.00497409287796
0.0049740946524
0.00497409611323
0.00497409724694
0.00497409804122
0.00497430160119
0.00497433267745
0.00497432001674
0.00497431025839
0.00497430763976
0.00497430566727
0.00497430429343
0.00497430369964
0.00497430381563
0.00497430452241
0.00497430561024
0.00497430682311
0.00497430801918
0.00497430917046
0.00497431027433
0.00497431131557
0.00497431226415
0.00497431308226
0.00497431372918
0.00497431416862
0.00497453833849
0.00497455940919
0.00497454559218
0.00497453884795
0.00497453851705
0.00497453747348
0.00497453572881
0.00497453403443
0.00497453272182
0.00497453187353
0.00497453146936
0.00497453136916
0.00497453140804
0.00497453150032
0.00497453162455
0.00497453177341
0.00497453193084
0.00497453206984
0.00497453215568
0.00497453215512
0.00497477182492
0.0049747854478
0.00497476721714
0.00497476001766
0.00497476022685
0.00497476019698
0.00497475907165
0.0049747575193
0.00497475611106
0.00497475502032
0.00497475426645
0.00497475378507
0.00497475344721
0.00497475315104
0.00497475285857
0.00497475256548
0.00497475227163
0.00497475197057
0.0049747516483
0.00497475129089
0.00497498404643
0.00497499862772
0.00497498145702
0.00497497440831
0.00497497452344
0.00497497561352
0.00497497602923
0.00497497567336
0.0049749750781
0.00497497459746
0.00497497429114
0.00497497412355
0.00497497399643
0.00497497381524
0.00497497353974
0.00497497317084
0.00497497272285
0.00497497220958
0.00497497164013
0.00497497102421
0.00497519094607
0.00497521198714
0.0049751979734
0.00497519131605
0.00497519028917
0.00497519077632
0.00497519169244
0.00497519243588
0.00497519291196
0.00497519335759
0.00497519381669
0.00497519422128
0.00497519449383
0.00497519456561
0.00497519441158
0.00497519404649
0.00497519350177
0.00497519281155
0.00497519200743
0.00497519112373
0.00497540013726
0.0049754302323
0.00497542253766
0.00497541661989
0.00497541467686
0.00497541372766
0.00497541359873
0.00497541405885
0.00497541472578
0.00497541550188
0.00497541628763
0.00497541687283
0.00497541715175
0.00497541709771
0.00497541672006
0.00497541605481
0.00497541515094
0.00497541405955
0.00497541283148
0.00497541151761
0.00497563677561
0.00497567095826
0.0049756597166
0.00497565274748
0.00497564992632
0.00497564764589
0.0049756462023
0.00497564544496
0.0049756450241
0.00497564476881
0.00497564464475
0.00497564434505
0.00497564366104
0.00497564260984
0.00497564125657
0.00497563966092
0.00497563788001
0.00497563597047
0.00497563398757
0.00497563198478
0.00497589961573
0.00497593441142
0.00497591594523
0.00497590560874
0.00497590058236
0.00497589641743
0.00497589254624
0.0049758890435
0.00497588580274
0.0049758826254
0.00497587965619
0.00497587681498
0.00497587381285
0.00497587064476
0.00497586741162
0.00497586417631
0.00497586097509
0.0049758578409
0.0049758548076
0.00497585191055
0.00497618247406
0.00497620839797
0.00497618051499
0.00497616641806
0.00497615905044
0.00497615256758
0.00497614569524
0.00497613856192
0.00497613137181
0.00497612415996
0.00497611702025
0.00497611031992
0.00497610402458
0.0049760980629
0.00497609248516
0.00497608731154
0.0049760825188
0.00497607808309
0.00497607399191
0.00497607024217
0.00497640901154
0.00497642408548
0.00497640155378
0.00497639215612
0.00497638793793
0.00497638331113
0.00497637721553
0.0049763698429
0.00497636177944
0.00497635334724
0.00497634449338
0.00497633553858
0.00497632702743
0.00497631918045
0.00497631205369
0.0049763056301
0.00497629984908
0.00497629464489
0.0049762899683
0.00497628578493
0.00497660297527
0.00497661778516
0.00497660048859
0.00497659160806
0.00497658761281
0.00497658366699
0.0049765788261
0.00497657313456
0.00497656692081
0.00497656036708
0.00497655336701
0.00497654561904
0.0049765375204
0.00497652984095
0.00497652289168
0.00497651665955
0.00497651108419
0.00497650610866
0.00497650168468
0.00497649777386
0.00497675919178
0.00497677618131
0.00497676335783
0.00497675965684
0.0049767599452
0.00497675977109
0.00497675850593
0.00497675643784
0.00497675372533
0.00497675041527
0.00497674651538
0.00497674178301
0.00497673606784
0.00497673024057
0.00497672498773
0.00497672033388
0.00497671616867
0.00497671245563
0.00497670917007
0.00497670628605
0.00497694843153
0.00497696719841
0.00497694683007
0.00497693927433
0.00497693772538
0.00497693685945
0.00497693618895
0.00497693583421
0.00497693526689
0.00497693404733
0.00497693195405
0.00497692926585
0.00497692610565
0.00497692292051
0.00497692034256
0.00497691828545
0.00497691648944
0.00497691488448
0.00497691347087
0.0049769122386
0.00497709205975
0.00497711740112
0.00497710437201
0.00497710108459
0.00497710296834
0.00497710509475
0.0049771073451
0.00497711016276
0.00497711300612
0.00497711424489
0.00497711342882
0.0049771117706
0.00497711074935
0.00497711065577
0.00497711157131
0.00497711299226
0.00497711433646
0.00497711546961
0.0049771164281
0.00497711723588
0.00497726533301
0.00497729804103
0.00497728243641
0.00497727575202
0.00497727594719
0.00497727806204
0.00497728198945
0.00497728778773
0.00497729355692
0.00497729659951
0.00497729652506
0.00497729541223
0.00497729591774
0.00497729873465
0.00497730331579
0.00497730855639
0.0049773132792
0.00497731728364
0.00497732065302
0.0049773234667
0.00497741906373
0.00497746059186
0.00497745414463
0.00497745103564
0.00497745443614
0.00497746015584
0.00497746857534
0.00497747892274
0.00497748708239
0.00497749085744
0.00497749103362
0.0049774899317
0.00497749078777
0.00497749521127
0.00497750249326
0.0049775107122
0.00497751800536
0.00497752412792
0.00497752920814
0.00497753337558
0.00497762921625
0.00497767502882
0.0049776626258
0.00497765977839
0.00497766535346
0.00497767397209
0.00497768552932
0.00497769651085
0.0049777036122
0.00497770681698
0.00497770625675
0.00497770407975
0.00497770372348
0.00497770768864
0.00497771565373
0.00497772487329
0.0049777328781
0.00497773941892
0.00497774472507
0.00497774895917
0.00497787208931
0.00497791692932
0.00497790192296
0.00497790014003
0.00497790729072
0.00497791685645
0.00497792774182
0.00497793778142
0.0049779450059
0.00497794740958
0.00497794565149
0.00497794190675
0.00497793930389
0.00497794056827
0.00497794637782
0.00497795388527
0.00497796014464
0.00497796482769
0.00497796835771
0.00497797095928
0.00497811309934
0.00497816316454
0.00497815207244
0.00497815264651
0.0049781619604
0.00497817394598
0.00497818789033
0.00497820035675
0.00497820718451
0.00497820819813
0.00497820542472
0.00497820122207
0.00497819701676
0.00497819452811
0.00497819477396
0.00497819711751
0.00497819889013
0.00497819935692
0.00497819904819
0.00497819829942
0.00497838154808
0.00497844068043
0.00497843535357
0.0049784373118
0.00497844705808
0.00497845900911
0.00497847103414
0.00497847846944
0.00497847964132
0.004978476725
0.00497847288432
0.00497846922957
0.0049784654704
0.00497846062027
0.0049784546244
0.00497844905057
0.00497844412616
0.00497843871965
0.00497843317939
0.00497842792402
0.00497871156225
0.00497877640847
0.00497877435262
0.00497877081215
0.00497877045782
0.00497876981328
0.00497876774177
0.00497876184081
0.00497875265782
0.00497874379456
0.00497873715286
0.00497873149524
0.00497872517677
0.00497871884717
0.00497871106512
0.00497869941917
0.00497868752537
0.0049786760925
0.00497866526524
0.00497865543043
0.00497906944253
0.00497911667871
0.00497909586364
0.0049790839207
0.00497907485782
0.00497906310962
0.00497904868277
0.00497903205492
0.00497901496461
0.00497899983521
0.0049789870286
0.00497897609103
0.00497896648812
0.00497895823031
0.00497894943294
0.00497893691003
0.00497892068155
0.00497890464315
0.00497888977123
0.00497887641648
0.0049793442804
0.00497936190211
0.00497933332853
0.00497932186316
0.00497931407996
0.00497930234727
0.00497928574697
0.00497926631065
0.00497924623662
0.00497922746192
0.00497921147584
0.00497919774676
0.00497918579845
0.00497917423903
0.00497916354572
0.0049791525246
0.00497913675057
0.00497911919016
0.00497910259205
0.00497908765614
0.00497952747178
0.00497952613274
0.00497950051105
0.00497949255049
0.00497948920354
0.00497948279706
0.00497947078702
0.00497945485471
0.00497943750624
0.00497942106677
0.00497940758481
0.00497939412303
0.00497938137729
0.00497936890189
0.00497935697982
0.00497934647717
0.0049793338598
0.00497931803603
0.00497930233828
0.00497928798725
0.00497965531098
0.0049796538294
0.00497963471471
0.004979629976
0.00497962971059
0.00497962767114
0.00497962102324
0.00497961086154
0.00497959939519
0.00497958966891
0.00497958032049
0.00497956956085
0.00497955812132
0.00497954675687
0.0049795353943
0.00497952556615
0.0049795158909
0.00497950341012
0.00497949048041
0.00497947838908
0.00497979255296
0.00497979185836
0.004979775721
0.00497977024985
0.00497976922627
0.00497976746219
0.00497976249591
0.00497975510048
0.00497974765221
0.00497974331236
0.00497973872723
0.00497972986757
0.00497972183286
0.00497971372438
0.00497970523864
0.00497969667602
0.00497968872193
0.00497967954699
0.0049796700545
0.00497966111155
0.00497991322516
0.00497991379435
0.00497989787789
0.00497989515488
0.00497989631387
0.00497989669106
0.00497989424304
0.00497988962295
0.00497988704107
0.00497988919784
0.00497988563328
0.00497988214524
0.00497987797898
0.00497987417278
0.00497987042886
0.00497986384903
0.00497985694911
0.00497985027237
0.0049798441129
0.00497983856947
0.00498005167455
0.00498005197262
0.00498003068865
0.00498002588593
0.00498002600463
0.00498002610011
0.00498002401703
0.00498002143686
0.00498002419399
0.00498002890549
0.00498003121846
0.00498002923816
0.00498002947882
0.00498003132799
0.00498003179789
0.0049800294637
0.00498002296497
0.00498001794021
0.00498001476823
0.00498001260238
0.00498016021587
0.00498016505486
0.00498014719236
0.00498014409073
0.0049801458061
0.00498014777272
0.00498014839032
0.00498015069628
0.00498016014284
0.00498017064644
0.0049801719147
0.00498017631946
0.00498017934675
0.00498018485437
0.00498019498695
0.00498019288804
0.00498018636597
0.00498018306597
0.00498018287917
0.00498018427032
0.00498028927006
0.00498029949662
0.00498027985461
0.00498027500669
0.00498027620989
0.00498027835312
0.0049802805518
0.00498028741605
0.00498030221041
0.00498030974829
0.00498031785743
0.00498032186305
0.00498033039571
0.0049803434265
0.00498035278545
0.00498035432037
0.0049803477075
0.00498034629235
0.00498034929075
0.00498035472979
0.00498040142334
0.00498042039274
0.00498040936637
0.00498040757599
0.0049804110418
0.00498041529659
0.00498042078153
0.00498043350876
0.0049804487354
0.00498046089017
0.00498046618292
0.00498047606516
0.00498048453851
0.00498049873829
0.00498052110414
0.00498051460077
0.00498050967583
0.00498051030824
0.00498051663344
0.00498052652621
0.00498056216409
0.00498058387826
0.00498056295696
0.00498055901999
0.00498056229312
0.00498056714002
0.0049805754748
0.00498059261389
0.00498061071326
0.00498061812984
0.0049806297768
0.00498063791329
0.00498064992594
0.00498068013187
0.00498068487652
0.0049806823665
0.00498068117071
0.00498068164162
0.00498069024726
0.00498070395736
0.00498070666754
0.00498073287099
0.00498071066641
0.00498070927529
0.00498071641937
0.00498072589391
0.0049807415164
0.00498076481079
0.00498077701323
0.00498079153395
0.00498080146194
0.00498081576009
0.00498083489373
0.00498085120055
0.00498086337846
0.00498086509932
0.00498086268976
0.0049808640035
0.00498087435049
0.00498089085323
0.00498087096063
0.0049809062033
0.00498088012681
0.00498087854502
0.00498088828815
0.0049809026571
0.00498092554777
0.00498094481038
0.00498096232411
0.0049809732914
0.00498098852688
0.00498100335225
0.00498102433276
0.00498105454761
0.00498105623278
0.00498105853957
0.00498105977468
0.00498106228161
0.00498107290241
0.00498109037103
0.00498102901137
0.00498107428642
0.00498105392594
0.00498105660844
0.00498107239947
0.00498109429562
0.00498111974675
0.00498114329899
0.00498115701832
0.00498117553979
0.00498119244221
0.00498121056371
0.00498124895985
0.00498125791023
0.00498126332404
0.00498127080779
0.00498127532693
0.00498127931534
0.00498128810694
0.00498130426303
0.00498120194921
0.00498126449154
0.00498125575997
0.00498126317964
0.00498128327774
0.0049813083035
0.00498133633215
0.00498135245924
0.00498137048687
0.00498139274258
0.00498141128184
0.00498144892473
0.00498146828707
0.00498147718726
0.00498148812542
0.00498150081415
0.00498151132354
0.00498151552819
0.0049815206248
0.00498153351621
0.00498140981031
0.00498148121887
0.00498147771579
0.0049814904154
0.00498151369555
0.00498154064005
0.00498156567754
0.00498158786464
0.00498161947958
0.00498164430974
0.00498166983234
0.00498168842092
0.00498170243463
0.00498171521288
0.0049817336524
0.00498175385987
0.0049817666051
0.00498177018288
0.00498177180845
0.00498177978826
0.00498166523235
0.00498175548863
0.00498175896114
0.00498177394007
0.00498179999003
0.00498183080721
0.00498186471679
0.00498189705252
0.0049819166425
0.00498192692165
0.0049819383086
0.00498195276613
0.00498196746434
0.00498198642014
0.00498200867808
0.00498202880308
0.00498203839005
0.00498204006419
0.00498203922344
0.00498204251009
0.00498210484327
0.00498221196248
0.00498221393931
0.00498222548807
0.0049822407099
0.00498225374802
0.00498226448723
0.0049822659662
0.00498226014577
0.00498225707721
0.00498226160251
0.0049822706631
0.00498228202069
0.0049822949905
0.00498230932512
0.00498232104642
0.00498232433374
0.00498232294882
0.00498231951262
0.00498231818444
0.004982700927
0.00498280246654
0.00498279627985
0.00498279352105
0.00498278549541
0.00498276407011
0.00498273474929
0.0049827034983
0.00498267577758
0.00498265560835
0.00498264334902
0.0049826353446
0.00498262859608
0.00498262381452
0.00498262229824
0.00498262136428
0.0049826182701
0.00498261002179
0.00498260347664
0.00498259801548
0.00498318129434
0.00498325229998
0.00498323932966
0.00498323157559
0.00498322380658
0.00498320519041
0.00498317086604
0.0049831292009
0.0049830886451
0.00498305240984
0.00498302079775
0.00498299240346
0.00498296631568
0.00498294349717
0.00498292597141
0.0049829126009
0.00498290226428
0.00498289071633
0.00498288207793
0.00498287143113
0.00498346409622
0.00498349894524
0.00498348222966
0.00498347883209
0.00498347859141
0.00498347554009
0.00498346199094
0.00498343577586
0.00498340255243
0.00498336633203
0.00498332933241
0.00498329323743
0.00498325861871
0.00498322680992
0.00498320045853
0.00498317955192
0.00498316426858
0.00498314985168
0.00498313792732
0.00498312589745
0.00498364384173
0.00498367067103
0.0049836515818
0.0049836476675
0.00498364724782
0.00498364708537
0.00498364297755
0.00498363010398
0.00498360951477
0.00498358391119
0.00498355463101
0.00498352367367
0.00498349232045
0.00498346214924
0.00498343621215
0.00498341495257
0.00498339661943
0.00498338390931
0.00498337018574
0.00498335856192
0.00498377983665
0.00498380968062
0.0049837921477
0.00498378734643
0.00498378511488
0.00498378344583
0.00498377989741
0.00498377118101
0.00498375736182
0.00498374069714
0.0049837219482
0.00498370172075
0.00498368002841
0.00498365795644
0.00498363836356
0.00498362247044
0.00498360864334
0.00498359789459
0.00498358572062
0.00498357528457
0.00498390678488
0.00498394429255
0.00498392753434
0.00498392133811
0.00498391777823
0.00498391408498
0.00498390894983
0.00498390022309
0.00498388905609
0.00498387772774
0.00498386676761
0.00498385587161
0.00498384376809
0.00498383041776
0.00498381830579
0.004983809237
0.00498380103052
0.00498379487409
0.00498378302498
0.00498377163017
0.00498401753566
0.00498406445535
0.00498405428255
0.00498404931671
0.004984045692
0.00498404126001
0.00498403513412
0.00498402642276
0.00498401713766
0.00498400915783
0.00498400341476
0.00498400023251
0.00498399646506
0.00498399089948
0.00498398644242
0.00498398293264
0.00498398098995
0.0049839760624
0.00498396877413
0.00498395866939
0.00498414398513
0.00498419514609
0.00498417716883
0.00498417084544
0.00498416631295
0.00498416072126
0.0049841531127
0.00498414425535
0.00498413635772
0.00498413169115
0.00498413327765
0.00498413999358
0.00498414415064
0.0049841474501
0.0049841495989
0.00498415015998
0.00498415503882
0.00498415845495
0.00498415126433
0.0049841431931
0.00498427219484
0.00498432333135
0.00498429812509
0.004984289626
0.00498428315027
0.00498427498902
0.00498426520051
0.00498425633621
0.00498425157256
0.00498425384529
0.00498426685497
0.00498428366912
0.00498429682347
0.00498430952403
0.00498431567276
0.00498432099238
0.00498433367338
0.00498434091961
0.00498434195757
0.00498433862288
0.0049844102188
0.00498446926993
0.00498443608207
0.00498442277332
0.00498441244924
0.00498440014952
0.00498438821109
0.00498438179387
0.00498438358973
0.00498439686515
0.0049844224379
0.00498444822152
0.00498447002733
0.00498448701926
0.00498449472602
0.00498450454989
0.0049845242794
0.00498454184274
0.00498454181125
0.00498453789801
0.00498460631578
0.00498466457678
0.0049846253319
0.00498460439829
0.00498458672332
0.0049845676757
0.00498455454218
0.00498455274671
0.00498456366726
0.00498458887904
0.00498462248326
0.00498465172097
0.00498467683505
0.00498469041398
0.0049846969215
0.00498470929974
0.00498473432649
0.00498475121718
0.00498475450906
0.00498475345174
0.00498488805279
0.00498494361709
0.00498490089859
0.00498487559778
0.00498484991368
0.00498482426751
0.00498480963758
0.00498481049832
0.00498482777568
0.00498485638798
0.00498488505813
0.00498490799711
0.00498492407263
0.00498492806274
0.00498493109048
0.00498494131456
0.004984963648
0.00498497966077
0.00498497591404
0.00498497198235
0.00498535360302
0.00498536318233
0.00498528916876
0.00498525844385
0.0049852263832
0.00498519823668
0.00498517974674
0.00498517457704
0.00498518269868
0.00498519513218
0.00498520388929
0.00498520922907
0.00498520717802
0.00498519985419
0.00498519377766
0.00498519479842
0.0049852050059
0.00498520980161
0.00498520412763
0.00498519732134
0.00498595545751
0.00498591119547
0.00498580114803
0.00498575459676
0.00498571217766
0.00498567539388
0.00498564252282
0.00498561459313
0.00498559276766
0.00498557289484
0.00498555240803
0.00498553201269
0.00498550965116
0.00498548701687
0.00498546624669
0.00498545082569
0.00498544716177
0.00498544599335
0.0049854323569
0.00498542013094
0.00498635592744
0.00498635630587
0.00498630537672
0.00498624983055
0.00498619924186
0.00498615092917
0.00498609917915
0.00498604287326
0.00498598583186
0.00498593138611
0.00498588103445
0.00498583565174
0.00498579443338
0.00498575593836
0.00498572132716
0.00498569335703
0.00498567931315
0.00498566720677
0.00498565121844
0.00498563503016
0.0049864048157
0.00498640492145
0.00498640105828
0.00498638469189
0.00498636591903
0.00498634620077
0.00498631788189
0.00498627666536
0.00498622505747
0.00498616943464
0.00498611486806
0.00498606387716
0.00498601714368
0.00498597382822
0.00498593485211
0.00498590102452
0.00498588183706
0.00498587023516
0.00498585080382
0.0049858306701
0.00498644605511
0.00498644593112
0.00498644562339
0.00498643476922
0.00498642477348
0.00498641618485
0.00498640212384
0.00498637700789
0.00498634159614
0.00498630049792
0.00498625744376
0.0049862148771
0.00498617415438
0.00498613515891
0.00498609969749
0.00498607064602
0.00498605622785
0.00498604654064
0.00498602882794
0.00498600742171
0.00498649213982
0.0049864921025
0.00498648475472
0.0049864721325
0.00498646332132
0.00498645712972
0.00498644788832
0.0049864306766
0.00498640619176
0.00498637824038
0.00498634898872
0.00498631903864
0.00498628905731
0.00498625959584
0.00498623381592
0.00498621298588
0.0049862054374
0.00498620354197
0.00498618679219
0.00498617008971
0.00498654391741
0.00498654406445
0.00498650833087
0.00498648932444
0.00498648136138
0.00498647738334
0.00498647084043
0.00498645813395
0.00498644315473
0.00498643127269
0.00498641853253
0.00498640216731
0.00498638393951
0.00498636600082
0.00498635049715
0.00498633965447
0.00498634327664
0.00498634712365
0.00498633672789
0.00498632289003
0.0049865949133
0.00498659468552
0.00498652503031
0.00498649738679
0.00498649098235
0.00498649020373
0.00498648763051
0.00498648426068
0.00498648711873
0.00498649257203
0.00498649060326
0.00498648490219
0.00498647828843
0.00498647234114
0.00498646876654
0.00498646953189
0.00498647924957
0.00498648782618
0.00498648233446
0.00498647557704
0.00498665558442
0.00498664554732
0.00498656216283
0.0049865284794
0.00498652372046
0.00498652647732
0.00498653186218
0.00498654595555
0.0049865658336
0.00498657724637
0.00498657867137
0.00498658014681
0.00498658479208
0.00498659187948
0.00498659922095
0.00498660478239
0.00498661779879
0.00498663416628
0.00498663814701
0.0049866341766
0.0049867175677
0.00498669448915
0.00498661458815
0.00498658046786
0.0049865776851
0.00498658713761
0.00498660924279
0.00498664046635
0.00498666264319
0.00498667184117
0.00498668250672
0.00498669191071
0.00498670296057
0.0049867221922
0.00498673851889
0.00498674871504
0.00498676843972
0.00498679558072
0.00498680627487
0.00498680826519
0.00498677340921
0.00498673141855
0.00498663064503
0.00498660334948
0.00498661567122
0.00498665000974
0.00498669744613
0.00498673527501
0.00498675599423
0.00498677614488
0.004986793332
0.00498681376916
0.00498683713898
0.00498686442079
0.00498689065041
0.0049869070166
0.00498693690137
0.00498697672295
0.00498699509377
0.00498699817085
0.00498681989061
0.00498677900341
0.00498666398852
0.00498664472444
0.00498668416209
0.00498674950132
0.00498680398706
0.00498683472893
0.00498686544704
0.00498689304443
0.00498692274895
0.00498695214566
0.00498698462744
0.00498702704023
0.00498705636757
0.00498708251698
0.00498712809789
0.00498717993127
0.00498720090604
0.0049872119899
0.00498685915203
0.00498687489622
0.00498675931131
0.00498675333512
0.00498682486146
0.00498689285016
0.00498692903478
0.00498696383333
0.0049869964321
0.00498703529651
0.00498707221744
0.00498710994412
0.00498715361448
0.00498719598799
0.00498723932156
0.00498728167875
0.00498734396687
0.00498740141482
0.00498742829304
0.0049874477041
0.00498689259283
0.00498701213803
0.00498690664022
0.00498692626499
0.00498700195695
0.00498703949792
0.00498707616077
0.0049871076923
0.00498714895485
0.00498719184784
0.00498723704136
0.0049872852721
0.0049873316115
0.00498738967228
0.00498744271034
0.00498750314813
0.00498757671018
0.00498763688864
0.00498767062223
0.00498770473791
0.00498691911312
0.00498711110419
0.00498704689776
0.00498708919731
0.00498713240621
0.00498717525624
0.00498721060594
0.00498725838282
0.0049873055477
0.00498735601506
0.00498741406853
0.00498747067464
0.0049875338644
0.0049875926475
0.00498766079078
0.00498773444031
0.00498781333559
0.00498787432265
0.00498791855688
0.00498796108033
0.00498694069517
0.00498714294917
0.0049871505469
0.00498718202098
0.00498723858628
0.00498728576599
0.00498734561672
0.0049874060838
0.00498746894259
0.00498753915397
0.00498760422135
0.00498768002632
0.00498774823909
0.0049878226442
0.00498789347717
0.00498796789488
0.00498804295155
0.00498810440575
0.00498815535818
0.00498819752151
0.00498703922619
0.00498724867715
0.00498727267923
0.00498731565348
0.00498737878152
0.00498745230605
0.00498753879385
0.00498762009727
0.00498771568407
0.00498779482263
0.00498788715636
0.00498796334363
0.00498804310487
0.00498810972447
0.00498817239621
0.00498822876729
0.0049882862186
0.00498833819167
0.00498838190828
0.00498841222813
0.00498792337481
0.0049881653197
0.00498819679955
0.00498821476237
0.0049882384415
0.00498827023542
0.0049882846383
0.00498831238633
0.00498833519166
0.00498837765548
0.004988414231
0.00498845590633
0.00498848841873
0.00498851754977
0.00498853942126
0.00498855915871
0.00498857788529
0.00498859583753
0.00498861121466
0.00498862300783
0.00498964672525
0.0049898808488
0.00498986190344
0.00498982055968
0.00498977134332
0.00498969571021
0.00498959628962
0.00498947173815
0.00498934901332
0.00498924271925
0.00498916276614
0.00498910088911
0.00498905253695
0.00498901114587
0.00498897538767
0.00498894274613
0.00498891206857
0.00498888254078
0.00498885344334
0.00498883697947
0.00499004261307
0.00499007162404
0.00499007185892
0.00499007171319
0.00499006998254
0.00499006334448
0.00499004733825
0.00499001418343
0.00498995083488
0.00498985556805
0.00498974227821
0.00498963092987
0.00498953160771
0.00498944435944
0.00498936616469
0.00498929453075
0.00498922820634
0.00498916595725
0.00498910491352
0.00498905484013
0.00499007880572
0.00499007946104
0.00499007973856
0.00499007995788
0.00499008018201
0.00499008041956
0.00499008065207
0.00499008077429
0.0049900745425
0.00499005013237
0.00498999877384
0.00498992115365
0.00498982835578
0.00498973381822
0.00498964405668
0.00498955972562
0.00498948028305
0.00498940578619
0.00498933421753
0.00498926583948
0.00499009136428
0.00499009146316
0.00499009149409
0.00499009153607
0.0049900916017
0.00499009169552
0.00499009181585
0.00499009195918
0.00499009196397
0.00499008699893
0.00499006755502
0.00499002949439
0.00498997144747
0.0049898975575
0.00498981765468
0.00498973904014
0.00498966306073
0.00498958988252
0.00498952034633
0.00498945374351
0.00499010226499
0.00499010237521
0.00499010244191
0.00499010249603
0.00499010255737
0.00499010263814
0.00499010274775
0.00499010289504
0.0049901030949
0.00499010065638
0.00499008984356
0.00499006735115
0.00499003058445
0.00498997984263
0.00498991894077
0.00498985480285
0.00498979038909
0.00498972752392
0.00498966581177
0.00498960893035
0.00499011247932
0.00499011256766
0.00499011261471
0.00499011265113
0.00499011269283
0.00499011274119
0.00499011279769
0.00499011286922
0.00499011298385
0.00499011088406
0.00499010288019
0.00499008612293
0.00499005910263
0.00499002290304
0.0049899791816
0.00498993094603
0.0049898811342
0.00498983065813
0.00498978205295
0.00498973485966
0.0049901219105
0.00499012198399
0.00499012201523
0.00499012203144
0.00499012205209
0.00499012207017
0.00499012208664
0.00499012211104
0.00499012215642
0.00499011999006
0.0049901137887
0.00499010108912
0.00499008081708
0.00499005464848
0.00499002416828
0.00498998997458
0.0049899522814
0.00498991531793
0.00498987794946
0.00498984351413
0.00499013086071
0.00499013090999
0.00499013090206
0.00499013088467
0.00499013088506
0.00499013089393
0.00499013091929
0.00499013098764
0.00499013051925
0.00499012743762
0.00499012144763
0.00499011106084
0.00499009537494
0.00499007739241
0.00499005952789
0.00499003789019
0.00499001341283
0.00498998794385
0.00498996445917
0.00498994098521
0.0049901397937
0.00499013977893
0.00499013963517
0.00499013954697
0.00499013947294
0.00499013939562
0.00499013931621
0.00499013928638
0.00499013729399
0.00499013291186
0.00499012609004
0.0049901164461
0.00499010501626
0.00499009726845
0.00499009295721
0.00499008348536
0.00499006914504
0.00499005595944
0.00499004161579
0.00499002880817
0.00499015219815
0.00499015157698
0.00499015014923
0.00499014911963
0.00499014881041
0.00499014864563
0.00499014862182
0.00499014819312
0.0049901458936
0.00499014107676
0.00499013448722
0.00499012680568
0.00499012318886
0.00499013002558
0.00499013745765
0.00499013392048
0.00499013041041
0.00499012606655
0.00499012243887
0.00499011745486
0.00499018619353
0.00499019118788
0.00499018213231
0.00499017873629
0.00499017895551
0.00499017945354
0.00499017918775
0.00499017659316
0.00499017209276
0.00499016599303
0.00499015927159
0.00499015613383
0.00499016649556
0.00499018655276
0.00499019479689
0.00499019913652
0.0049902022514
0.00499020603214
0.00499020951411
0.00499021274767
0.00499023347951
0.00499021799069
0.00499020814515
0.00499020588462
0.00499020824468
0.00499021120991
0.00499021320521
0.00499021273316
0.00499020928691
0.00499020448656
0.00499020260079
0.00499021480978
0.00499024323314
0.00499026439726
0.00499027630216
0.00499028591696
0.00499029830351
0.00499031487003
0.00499032446587
0.00499033268625
0.00499028486882
0.00499026101839
0.00499024241141
0.00499024341726
0.00499025028739
0.00499025736339
0.00499026225129
0.0049902642269
0.00499026460168
0.00499026919218
0.00499028807471
0.00499032420658
0.00499035488153
0.0049903742599
0.00499039038079
0.00499041256419
0.00499043887775
0.00499045081519
0.00499045510246
0.00499045808461
0.0049903324949
0.00499034369834
0.00499030980345
0.0049903103117
0.00499032158184
0.00499033260209
0.00499034313692
0.0049903563236
0.00499037689964
0.00499040936102
0.00499045123821
0.00499048111402
0.00499050373452
0.00499052290899
0.00499055308113
0.00499058471657
0.00499059550291
0.00499059743349
0.00499060102163
0.00499060697956
0.00499037673475
0.00499042475354
0.00499039960752
0.0049904160031
0.00499044520532
0.00499047333035
0.00499050757489
0.00499054953895
0.00499058858143
0.00499062559535
0.00499064698644
0.00499066852815
0.00499069405279
0.00499073058795
0.00499076613752
0.00499077299014
0.00499077365955
0.00499077688193
0.00499078121441
0.00499078530481
0.00499056504714