/*--------------------------------*- C++ -*----------------------------------*\
| =========                 |                                                 |
| \\      /  F ield         | OpenFOAM: The Open Source CFD Toolbox           |
|  \\    /   O peration     | Version:  2312                                  |
|   \\  /    A nd           | Website:  www.openfoam.com                      |
|    \\/     M anipulation  |                                                 |
\*---------------------------------------------------------------------------*/
FoamFile
{
    version     2.0;
    format      ascii;
    arch        "LSB;label=32;scalar=64";
    class       volScalarField;
    location    "0.155/water";
    object      alpha.gas_0;
}
// * * * * * * * * * * * * * * * * * * * * * * * * * * * * * * * * * * * * * //

dimensions      [0 0 0 0 0 0 0];

internalField   nonuniform List<scalar> 
1503
(
0.172819325417
0.103508058271
0.0291007349253
0.0072188239663
0.00134139655546
0.000205219882078
2.5877320931e-05
1.92978686079e-06
4.23466903527e-08
3.82749514042e-10
1.98119930364e-12
8.19700639486e-15
1e-15
1e-15
1e-15
1e-15
1e-15
1e-15
1e-15
1e-15
0.612745689821
0.261647303319
0.108090422882
0.0365158313988
0.0114074389417
0.00301691688791
0.000678571483261
0.000120118688578
1.19409886774e-05
2.56309744566e-07
8.76603407788e-10
1.46235702833e-12
2.68337498472e-15
1e-15
1e-15
1e-15
1e-15
1e-15
1e-15
1e-15
0.613295062351
0.346659306852
0.171094122196
0.0727257224075
0.0277550067571
0.00917822038179
0.00255305162309
0.000571490222301
8.4358828472e-05
4.36207956202e-06
2.00417685114e-08
2.61684877915e-11
2.77858946586e-14
1.00051428457e-15
1e-15
1e-15
1e-15
1e-15
1e-15
1e-15
0.613294019074
0.424202854169
0.24909044891
0.12743592458
0.0571834389449
0.0218989681947
0.00695397490291
0.00177511676391
0.000324733060422
2.93486617186e-05
3.92935509273e-07
4.85005921551e-10
3.84275243069e-13
1.22986225834e-15
1e-15
1e-15
1e-15
1e-15
1e-15
1e-15
0.597353390234
0.468393476827
0.327422022984
0.201504412019
0.107673806552
0.0482003857058
0.0174144138735
0.00489863233381
0.00100603400087
0.000120623041011
4.12553752738e-06
6.8348804324e-09
4.75180218756e-12
4.015986766e-15
1.00008890748e-15
1e-15
1e-15
1e-15
1e-15
1e-15
0.567698835762
0.483291824006
0.38576476239
0.278340278725
0.176332930392
0.0942475612708
0.0404351778838
0.0131141402425
0.00300227727442
0.000421544581319
2.41025703041e-05
1.22583348858e-07
7.30384046736e-11
3.91888875921e-14
1.01428690911e-15
1e-15
1e-15
1e-15
1e-15
1e-15
0.549182287056
0.490815783641
0.4224871419
0.339895757078
0.246917434065
0.155622189139
0.0808463202639
0.0320955592546
0.008808688633
0.001462554696
0.000113352544579
1.92274064099e-06
1.19639645829e-09
5.67152219794e-13
1.25824222897e-15
1.00005279899e-15
1.0000335062e-15
1.00002483831e-15
1.00001802309e-15
1.00000933212e-15
0.555331503389
0.500657796994
0.442520156366
0.379982111331
0.303845306855
0.218542361803
0.134915086292
0.0664960734725
0.0233093258203
0.0049611968041
0.000515577326904
1.74663359554e-05
2.72851664331e-08
1.10993434069e-11
5.67730662748e-15
1.00163845918e-15
1.0000058151e-15
1.00000852401e-15
1.00001025202e-15
1.00000618561e-15
0.570628267487
0.509197352164
0.459652299356
0.409988333993
0.348161807793
0.273613981256
0.19242033293
0.114344977203
0.051581121947
0.0149266376526
0.00221835058784
0.000125149437102
1.38695822267e-06
4.72551000479e-10
1.8524502354e-13
1.06889329808e-15
1.00047249468e-15
1.00048917589e-15
1.00044985177e-15
1.00008533296e-15
0.575822113978
0.513248546249
0.47578880324
0.436849979165
0.385243524231
0.319501459519
0.245192490806
0.167507223151
0.0939847450975
0.037106593063
0.00818294488184
0.000757869791833
2.00022552002e-05
2.72779191685e-08
7.5111446265e-12
3.71596537401e-15
1.0021144391e-15
1.00135790652e-15
1.00123383101e-15
1.00080577965e-15
0.574027299686
0.514540887424
0.487936789082
0.458926445355
0.415855918473
0.357168947582
0.289293999505
0.217495175412
0.144541137005
0.0748846376575
0.0241922062822
0.00361488583868
0.000176711633331
1.65848649457e-06
4.52826151953e-10
1.87440622044e-13
1.07203522214e-15
1.0031184319e-15
1.00275149861e-15
1.00205763528e-15
0.578008568096
0.51298530249
0.489972933781
0.4668714544
0.431957988734
0.381935117894
0.321912326697
0.259253939677
0.194735032143
0.124542440837
0.0556288513944
0.0128268002794
0.00108183508375
2.28412965296e-05
3.65592675257e-08
1.11122476078e-11
4.23151313996e-15
1.0067943507e-15
1.00569027434e-15
1.00435156228e-15
0.574302778597
0.50823857942
0.486347887002
0.463431157887
0.430230703679
0.38698029537
0.339478229823
0.289896420065
0.237859427281
0.175842377501
0.0998389721443
0.0330633986162
0.00447490514644
0.000169829118466
1.09728803291e-06
5.43301669601e-10
1.72164665023e-13
1.06987104735e-15
1.00976772229e-15
1.00758093046e-15
0.577826561099
0.4985881009
0.479414245574
0.453964141138
0.421195924749
0.382525703638
0.345564795359
0.310295405997
0.271202415506
0.218799602492
0.145123500686
0.0632813241934
0.0127981367897
0.000800291352007
1.03395045997e-05
1.08860177227e-08
5.22394245381e-12
2.97530353352e-15
1.01368994565e-15
1.01059594005e-15
0.574027299686
0.485516597296
0.467368858589
0.438111704094
0.404409574987
0.372018137304
0.346545433729
0.324101594706
0.294519937586
0.24871218087
0.181039350576
0.0959533547677
0.0267773474383
0.00255233229083
5.48545741959e-05
1.4600117205e-07
9.39410594197e-11
3.48552387604e-14
1.0234148711e-15
1.01183492729e-15
0.576333313142
0.471814159485
0.451435529293
0.420554276095
0.388732511508
0.364094638874
0.348404996643
0.333969815495
0.30918951229
0.267588358892
0.207214921355
0.125964026852
0.044873210568
0.00608588078773
0.00020127872806
1.09009945279e-06
8.16899178297e-10
3.00495061069e-13
1.09401214356e-15
1.01154098797e-15
0.573779200333
0.462063691356
0.437519439345
0.410159088019
0.384616550848
0.364638802993
0.353497874062
0.342077142295
0.318688011561
0.2814588851
0.230167499891
0.155573957074
0.0670330949216
0.0122839020777
0.000613662932458
5.94020448653e-06
3.98311396101e-09
1.16019965612e-12
1.23823807734e-15
1.0092211984e-15
0.57415421724
0.460776032629
0.432629943008
0.410084615675
0.388663958831
0.372679973139
0.363261341861
0.35013329446
0.327256055562
0.296980100582
0.257128904846
0.191407262029
0.097799682342
0.0239665119881
0.00186573081525
3.325217367e-05
4.4421569312e-08
4.55421304256e-12
1.20107347228e-15
1.00451873826e-15
0.567053388742
0.466900979427
0.444411851964
0.426613530466
0.409172537267
0.392333727689
0.376876896028
0.358952283656
0.338621498521
0.317942823505
0.290458052499
0.237724874983
0.145398258021
0.0489085542852
0.00615760177666
0.000207285978522
1.15702407594e-06
9.05575561367e-12
2.256686702e-15
1.00042002474e-15
0.557867596111
0.494120685934
0.486919537366
0.473183928264
0.448547792988
0.418602864488
0.391356867833
0.368133946006
0.34899204863
0.333463702437
0.319780379689
0.287455530932
0.212342015055
0.0995283606438
0.0203713840929
0.00125429983935
1.63493286922e-05
2.43345703702e-09
8.95758671202e-14
1.03551830921e-15
0.57557397349
0.543806160743
0.547115741153
0.532557968122
0.494010370912
0.446402696226
0.406241026643
0.375822327581
0.350476642274
0.332828884409
0.326112446955
0.322806369425
0.281802890334
0.177432712805
0.0570747752128
0.00615591389626
0.000155781697696
4.80486962018e-07
2.77183368946e-12
2.47829220125e-15
0.623897106205
0.582767456832
0.585134473918
0.572253097484
0.532008124762
0.474354987897
0.421972703656
0.381210551326
0.348385818331
0.326033615578
0.323374642334
0.328295195169
0.325736912761
0.2572499557
0.120357259956
0.0216695327997
0.0010105352035
8.98734073526e-06
6.68814798129e-10
7.47882615073e-14
0.627915501068
0.592340726883
0.594187905553
0.585454267125
0.553167329002
0.495258316656
0.434420598664
0.382614250666
0.341458535646
0.313285790366
0.314393948419
0.328907885493
0.335958315382
0.305983035959
0.188227824054
0.0520506194525
0.00416855998492
7.11033644861e-05
9.52817870152e-08
6.86699242721e-12
0.63198968122
0.594484690532
0.594343397421
0.590106694283
0.561929167779
0.504323147102
0.438431582655
0.379833187893
0.328901492133
0.305200846587
0.307036791288
0.323696229171
0.335992262122
0.327572303702
0.23707491917
0.0900245976955
0.0114199957793
0.000334280831868
1.6436026671e-06
1.62397263202e-10
0.627915501068
0.593823233478
0.594203094287
0.592753395041
0.565319507697
0.50589141273
0.436909240512
0.370237923667
0.314453026091
0.304564031266
0.304380390272
0.312532390408
0.335417342707
0.337159602367
0.266980030601
0.124895865474
0.0228596999029
0.00107958215325
1.0038381732e-05
3.11741653871e-09
0.632890316113
0.589908497686
0.594087316634
0.593038580345
0.564829759254
0.50330708861
0.428323449442
0.353472611025
0.305859846585
0.304308052157
0.304432758616
0.305406176509
0.33085766943
0.341089046447
0.286138319433
0.154274379289
0.0376690014214
0.00267511309201
3.93713726271e-05
6.63746285007e-08
0.628007278906
0.582564637601
0.59362070845
0.58999566216
0.558272904906
0.492164318017
0.410279669842
0.332214623421
0.304425669628
0.304432758616
0.303850915347
0.304257304862
0.322050550931
0.341094613963
0.300321709493
0.180948047954
0.0558818621957
0.00566402583864
0.000123932117043
4.42222167477e-07
0.632936699451
0.57256068583
0.586343385562
0.578813015982
0.541650622333
0.470865336835
0.386256904008
0.315030939473
0.304432758616
0.303816849648
0.304257304862
0.303655948684
0.312219627165
0.341004753691
0.311548134705
0.207035700548
0.0784007749155
0.0109454450179
0.000341769104707
1.83035662754e-06
0.627934040355
0.56081761851
0.574514717455
0.561792781516
0.51841509251
0.443722320784
0.360733893719
0.305931018457
0.304060647866
0.304257304862
0.303332316596
0.304095021062
0.30582935641
0.339057225711
0.321384818966
0.23575532236
0.107322075477
0.0198427174182
0.000839209499562
5.72542662691e-06
0.631524478284
0.549221184381
0.562173045773
0.54424572821
0.493978935329
0.415893494816
0.337114141269
0.304296251449
0.304257304862
0.303413419826
0.304095021062
0.303192955953
0.304095021062
0.337968471943
0.335818111086
0.27325666543
0.145353189373
0.0336474294235
0.00183366998323
1.51232117753e-05
0.627915501068
0.53893166318
0.549935371565
0.527936496598
0.471650396823
0.391634615881
0.319283783619
0.304257304862
0.303599343003
0.304095021062
0.303192955953
0.303947744908
0.303557834386
0.341268785459
0.367930516469
0.317518141916
0.189576664244
0.0532743155222
0.00376162642587
3.85104245204e-05
0.630408865102
0.528539354442
0.53547035303
0.510784166508
0.451958924273
0.373746683517
0.310036038166
0.303861542654
0.304095021062
0.303197871478
0.303947744908
0.302955074649
0.306389133362
0.356607348732
0.387772185002
0.360074732594
0.240216956559
0.0809367314142
0.00754889157598
0.000103736322894
0.62762535696
0.517508677796
0.51679503266
0.489409723313
0.432653854937
0.361995179491
0.307955095403
0.304095021062
0.303219548235
0.303947744908
0.302963016177
0.303741357315
0.316864115033
0.376433845012
0.388317967865
0.387772185002
0.288380756602
0.116684171758
0.0147896916501
0.000298763322631
0.628169666554
0.506481047902
0.500748929177
0.469680836955
0.417719067405
0.358497287323
0.311315682148
0.303800681878
0.304095021062
0.304353936995
0.305709599486
0.303541856635
0.325055473426
0.38381552672
0.387772185002
0.388220189613
0.3194097495
0.15645720682
0.0274854718684
0.000874846092379
0.627320010138
0.494746650412
0.490883945308
0.461817100334
0.414602278887
0.362008362338
0.326976928124
0.31834364497
0.322794553619
0.325541660773
0.314147583247
0.30307272809
0.322191190384
0.382164886471
0.388430227494
0.387772185002
0.346011173669
0.201190888364
0.0481838297926
0.00245981948422
0.61388507976
0.484663976139
0.484747448591
0.46197763902
0.419589643225
0.377379120819
0.355931126226
0.350580387115
0.348217094082
0.332657856425
0.309982513984
0.295221424798
0.313705009613
0.375788361891
0.387772185002
0.388405060362
0.383897428488
0.254562794179
0.0804398494077
0.00656130195679
0.587768109324
0.483837527598
0.483606466278
0.47189353414
0.439511870239
0.402530699673
0.381282413765
0.369128191034
0.351543578443
0.327205912502
0.299175557495
0.288245633831
0.303252200862
0.359308021585
0.388218045822
0.387772185002
0.388343576175
0.300785233898
0.127242395339
0.0163875071305
0.565973041446
0.484077790003
0.49900988193
0.503646589968
0.471409850721
0.424850287414
0.394395305012
0.373025599853
0.348522750131
0.317215621627
0.291807487838
0.285424941678
0.292330203505
0.333494548566
0.387398185022
0.388575709583
0.387772185002
0.341810286479
0.185130048039
0.0360925623654
1e-15
1e-15
1e-15
1e-15
1e-15
1e-15
1e-15
1e-15
1e-15
1e-15
1e-15
1e-15
1e-15
1e-15
1e-15
1e-15
1e-15
1e-15
1e-15
1e-15
1e-15
1e-15
1e-15
1e-15
1e-15
1e-15
1e-15
1e-15
1e-15
1e-15
1e-15
1e-15
1e-15
1e-15
1e-15
1e-15
1e-15
1e-15
1e-15
1e-15
1e-15
1e-15
1e-15
1e-15
1e-15
1e-15
1e-15
1e-15
1e-15
1e-15
1e-15
1e-15
1e-15
1e-15
1e-15
1e-15
1e-15
1e-15
1e-15
1e-15
1e-15
1e-15
1e-15
1e-15
1e-15
1e-15
1e-15
1e-15
1e-15
1e-15
1e-15
1e-15
1e-15
1e-15
1e-15
1e-15
1e-15
1e-15
1e-15
1e-15
1e-15
1e-15
1e-15
1e-15
1e-15
1e-15
1e-15
1e-15
1e-15
1e-15
1e-15
1e-15
1e-15
1e-15
1e-15
1.0000117804e-15
1.00014265283e-15
1e-15
1e-15
1e-15
1e-15
1e-15
1e-15
1e-15
1e-15
1e-15
1e-15
1e-15
1e-15
1e-15
1e-15
1e-15
1e-15
1e-15
1e-15
1e-15
1.00398176479e-15
1e-15
1e-15
1.03159295727e-15
1.00001251092e-15
1.0000387063e-15
1.00005304386e-15
1.00006518146e-15
1.00008056226e-15
1.00011086907e-15
1.00025093485e-15
1.00048046193e-15
1.00108452211e-15
1.00128781529e-15
1.00082291578e-15
1.00047443119e-15
1.00003459947e-15
1.0000038111e-15
1.00323989932e-15
1.00656220722e-15
1.00661438393e-15
1e-15
1e-15
1.07778042202e-15
1.00000977943e-15
1.00022626513e-15
1.00044360608e-15
1.0005724219e-15
1.00076614942e-15
1.00101543073e-15
1.0014254186e-15
1.002618643e-15
1.00420122776e-15
1.0045124161e-15
1.00289992102e-15
1.00143699279e-15
1.00022153213e-15
1.00004313809e-15
1.01145690104e-15
1.01158395351e-15
1.00514288158e-15
1e-15
1e-15
1.12097917962e-15
1.00028299771e-15
1.00098780695e-15
1.00129384075e-15
1.00151032869e-15
1.00178888159e-15
1.00234685213e-15
1.00377524435e-15
1.00567700112e-15
1.00662157618e-15
1.00670862734e-15
1.00548302725e-15
1.00253626383e-15
1.00080618295e-15
1.00150912236e-15
1.01164376564e-15
1.01161263153e-15
1.00013755965e-15
1.00210432707e-15
1e-15
1.15097880103e-15
1.00103693454e-15
1.00188674557e-15
1.00225053065e-15
1.00253868567e-15
1.00294957189e-15
1.00403038858e-15
1.00603208076e-15
1.00688429179e-15
1.0070601034e-15
1.00698254495e-15
1.00647277582e-15
1.0036425802e-15
1.00131590309e-15
1.00329574299e-15
1.01167575768e-15
1.01067241711e-15
1.00008153666e-15
1.00660862411e-15
1e-15
1.20018625536e-15
1.00225178635e-15
1.00339619488e-15
1.00378343834e-15
1.0040883653e-15
1.00471326722e-15
1.00595636211e-15
1.00695544232e-15
1.00713878041e-15
1.00715516617e-15
1.007017103e-15
1.00662017783e-15
1.00449442348e-15
1.00217988471e-15
1.00522328004e-15
1.01170774973e-15
1.00865678519e-15
1.00012507981e-15
1.00666051065e-15
1e-15
1.34302086098e-15
1.00432162465e-15
1.00551685642e-15
1.00574900432e-15
1.00593126413e-15
1.00646661613e-15
1.00706034779e-15
1.00727044954e-15
1.00729575568e-15
1.00725091285e-15
1.00708166934e-15
1.00664921297e-15
1.0049345264e-15
1.00377572479e-15
1.01264442345e-15
1.01173974177e-15
1.0057957791e-15
1e-15
1.00690085074e-15
1e-15
1.34870478509e-15
1.00694543871e-15
1.00756971989e-15
1.00747082636e-15
1.00739779004e-15
1.0075105679e-15
1.00756347134e-15
1.0075231647e-15
1.00747648042e-15
1.00737197033e-15
1.00714224167e-15
1.00664416609e-15
1.00524508143e-15
1.00555506293e-15
1.01277322859e-15
1.01124040689e-15
1.00140571229e-15
1.00012300551e-15
1.00666051065e-15
1e-15
1.3478167183e-15
1.00918793837e-15
1.00889922946e-15
1.0084066004e-15
1.00803881868e-15
1.00783680757e-15
1.00771530332e-15
1.00761477627e-15
1.0075090418e-15
1.00736979297e-15
1.00711692378e-15
1.006589196e-15
1.00555741281e-15
1.00716760033e-15
1.01267454121e-15
1.01008568946e-15
1.00012062698e-15
1e-15
1.00685491047e-15
1e-15
1.34860437532e-15
1.01002641309e-15
1.00919838649e-15
1.00850794769e-15
1.00803086474e-15
1.00774483872e-15
1.0075834496e-15
1.00747826713e-15
1.00733001727e-15
1.0071484026e-15
1.00688324712e-15
1.0064175281e-15
1.00590853791e-15
1.00865548688e-15
1.01277233533e-15
1.00801286533e-15
1.00006333833e-15
1.00012144087e-15
1.00666051065e-15
1e-15
1.3479630737e-15
1.0097427097e-15
1.00875364292e-15
1.00796856585e-15
1.00737572421e-15
1.00697625122e-15
1.00679640929e-15
1.00681574072e-15
1.00668698011e-15
1.00649432581e-15
1.00629358777e-15
1.00600993725e-15
1.00623091687e-15
1.00989895738e-15
1.01267454121e-15
1.00515495394e-15
1.00012062698e-15
1.00000173626e-15
1.00676232659e-15
1e-15
1.34860176025e-15
1.00783781949e-15
1.00675977517e-15
1.00601131048e-15
1.00543270044e-15
1.00503220668e-15
1.00490314234e-15
1.00536184591e-15
1.00548752852e-15
1.00540100061e-15
1.00536392784e-15
1.00535710953e-15
1.00641252361e-15
1.01079322202e-15
1.01264650087e-15
1.0012204156e-15
1.000007363e-15
1.00012068754e-15
1.00666051065e-15
1e-15
1.34805008882e-15
1.0041197731e-15
1.0034250031e-15
1.00303908493e-15
1.00272290831e-15
1.00248789903e-15
1.00242734749e-15
1.00317927875e-15
1.00376893971e-15
1.00394659259e-15
1.00416946594e-15
1.00465163749e-15
1.00648376347e-15
1.01151699542e-15
1.01193876154e-15
1.00010412272e-15
1.00012062698e-15
1.00006221941e-15
1.00669163634e-15
1e-15
1.34833281412e-15
1.00045085206e-15
1.00036847487e-15
1.00033872309e-15
1.00031108231e-15
1.00028219822e-15
1.00027577539e-15
1.00089521706e-15
1.00190281637e-15
1.00243483218e-15
1.00296791034e-15
1.00399665886e-15
1.00660002131e-15
1.01244687613e-15
1.01105210334e-15
1.00012062698e-15
1e-15
1.00012062698e-15
1.00665831568e-15
1e-15
1.34817191841e-15
1.00013134312e-15
1.00011629389e-15
1.00013764184e-15
1.00015175323e-15
1.00014180343e-15
1.00015175323e-15
1.00014716984e-15
1.00083068009e-15
1.00163344626e-15
1.0024312459e-15
1.00381955755e-15
1.00717399414e-15
1.01406709072e-15
1.01058553793e-15
1.00002674112e-15
1.00012062698e-15
1.00059999651e-15
1.00667453074e-15
1e-15
1.34825591824e-15
1.00001468502e-15
1e-15
1.00005972536e-15
1.00010028803e-15
1.00015175323e-15
1.00011521898e-15
1.00015175323e-15
1.00082590788e-15
1.00169300029e-15
1.00261024003e-15
1.00425622238e-15
1.00917436263e-15
1.01669587076e-15
1.01067955258e-15
1.00012062698e-15
1e-15
1.0010632197e-15
1.00659632554e-15
1e-15
1.34829678562e-15
1e-15
1e-15
1e-15
1.00000577781e-15
1.00005862278e-15
1.00015175323e-15
1.00044308691e-15
1.00185513953e-15
1.00275078214e-15
1.0039373969e-15
1.0063233005e-15
1.01331491125e-15
1.02031756216e-15
1.0113434133e-15
1e-15
1.00012062698e-15
1.00261877807e-15
1.0066197445e-15
1e-15
1.34837348345e-15
1.04335361436e-15
1e-15
1e-15
1e-15
1e-15
1.00048440719e-15
1.00391632185e-15
1.00448081258e-15
1.00523943393e-15
1.00677287588e-15
1.01036901712e-15
1.01891736887e-15
1.024637191e-15
1.01262641517e-15
1.00012062698e-15
1e-15
1.00487467141e-15
1.00654273779e-15
1e-15
1.34844995267e-15
3.39139158681e-15
1e-15
1.00116774603e-15
1.00306905556e-15
1.00485380603e-15
1.00735823582e-15
1.00809450625e-15
1.00794565497e-15
1.00843236085e-15
1.01028542053e-15
1.01518463195e-15
1.02469947711e-15
1.02919017763e-15
1.01446103227e-15
1e-15
1.00012062698e-15
1.00561286576e-15
1.0066062813e-15
1e-15
1.34852648219e-15
5.28477280998e-14
1e-15
1.01150494082e-15
1.01528555755e-15
1.01769861611e-15
1.01314121512e-15
1.01178356544e-15
1.01105048951e-15
1.01126218038e-15
1.01347928564e-15
1.01952922404e-15
1.02989058883e-15
1.03324325068e-15
1.01664013945e-15
1.00012062698e-15
1e-15
1.00589873267e-15
1.00649406063e-15
1e-15
1.34895906721e-15
1.60923314487e-12
1e-15
1.00327800588e-15
1.01779349428e-15
1.01777580628e-15
1.01626256262e-15
1.01422168926e-15
1.01301266244e-15
1.01303064615e-15
1.01556025084e-15
1.02270489601e-15
1.0340626275e-15
1.04143213374e-15
1.01870212783e-15
1.00000157653e-15
1.0009639465e-15
1.00610891249e-15
1.00653871725e-15
1.0004199408e-15
1.35016274609e-15
3.08267609965e-11
1e-15
1e-15
1.01712639549e-15
1.01784560258e-15
1.01760510823e-15
1.01528759391e-15
1.01378677064e-15
1.01367392507e-15
1.01636973875e-15
1.02430378496e-15
1.03706698682e-15
1.04621969678e-15
1.02045730894e-15
1.00155927613e-15
1.00234088899e-15
1.00589505281e-15
1.00644278671e-15
1.00231776109e-15
1.35197381742e-15
2.46919320932e-10
1e-15
1e-15
1.01109588673e-15
1.01777580628e-15
1.01767006541e-15
1.01529787121e-15
1.01370957133e-15
1.01352279118e-15
1.01627228971e-15
1.02458907666e-15
1.03901494098e-15
1.04582061264e-15
1.02219116822e-15
1.00284525828e-15
1.00239212129e-15
1.00494850877e-15
1.00648707608e-15
1.00261783601e-15
1.35408496674e-15
1.17386409063e-09
1e-15
1e-15
1e-15
1.01771071618e-15
1.01669919996e-15
1.01443139863e-15
1.01281931602e-15
1.01251068132e-15
1.0151931657e-15
1.02397863136e-15
1.04029844302e-15
1.04621127581e-15
1.02459448677e-15
1.00280909567e-15
1.00220145562e-15
1.00368095096e-15
1.00641023574e-15
1.00232818535e-15
1.35629674311e-15
4.27182327304e-09
1e-15
1e-15
1e-15
1.01541727648e-15
1.01470819236e-15
1.01280649929e-15
1.01124486586e-15
1.01074731583e-15
1.01315322567e-15
1.02187083491e-15
1.04100779313e-15
1.04582061264e-15
1.02888169302e-15
1.00248247745e-15
1.00173973657e-15
1.00268384223e-15
1.00626007196e-15
1.00162923266e-15
1.35840551336e-15
1.56505797677e-08
1e-15
1e-15
1e-15
1.01264452969e-15
1.01236583592e-15
1.01078832749e-15
1.00926708653e-15
1.00855075803e-15
1.01059833256e-15
1.0189012392e-15
1.04123018293e-15
1.04607545864e-15
1.0322706374e-15
1.00184504979e-15
1.00114284994e-15
1.00196178036e-15
1.00467674649e-15
1.00065811601e-15
1.36025303936e-15
6.41925115525e-08
1e-15
1e-15
1e-15
1.01016534763e-15
1.00979513253e-15
1.00846309569e-15
1.00709769571e-15
1.00629386593e-15
1.00782137651e-15
1.01606075258e-15
1.04167595476e-15
1.04582061264e-15
1.03215696186e-15
1.0009848944e-15
1.00046263723e-15
1.00130626879e-15
1.00314445849e-15
1.00013639553e-15
1.36258112811e-15
3.06190577248e-07
1e-15
1e-15
1e-15
1.00784726932e-15
1.00729384967e-15
1.00626306685e-15
1.00523430491e-15
1.00454487972e-15
1.0054436859e-15
1.01356857282e-15
1.04161437551e-15
1.04591611606e-15
1.03055795936e-15
1.00013186435e-15
1.00003819369e-15
1.00058787718e-15
1.00214059928e-15
1.00000079938e-15
1.37163157861e-15
1.69107946086e-06
1e-15
1e-15
1e-15
1.0058894615e-15
1.00530391197e-15
1.00455177519e-15
1.00381604313e-15
1.00326673872e-15
1.00375734755e-15
1.01146164503e-15
1.04108279727e-15
1.04582061264e-15
1.0271943648e-15
1e-15
1e-15
1.00003795342e-15
1.00125223268e-15
1.00000053292e-15
1.48118735713e-15
9.51788004535e-06
1e-15
1e-15
1e-15
1.00422131861e-15
1.00366088565e-15
1.00308539748e-15
1.00252097707e-15
1.00207322931e-15
1.00239344835e-15
1.00974514807e-15
1.03948057461e-15
1.04457433597e-15
1.02291676151e-15
1e-15
1e-15
1e-15
1.00029615303e-15
1.01315104453e-15
3.4100701184e-15
5.15268474729e-05
1e-15
1e-15
1.00085320072e-15
1.00254882481e-15
1.00202982908e-15
1.00156132251e-15
1.00109970093e-15
1.00073569845e-15
1.00101846034e-15
1.00842432639e-15
1.03656337416e-15
1.04080072022e-15
1.01860423008e-15
1e-15
1e-15
1e-15
1e-15
1.12120505823e-15
1.49056047276e-14
0.000254453238263
1.85222406646e-08
1e-15
1.00705990642e-15
1.00057159442e-15
1.00031676922e-15
1.00013259869e-15
1.00003366663e-15
1.00000113438e-15
1.00002604765e-15
1.00734728332e-15
1.03301809692e-15
1.03678357028e-15
1.0147919542e-15
1e-15
1e-15
1e-15
1e-15
1.30903040717e-15
1.78940451289e-14
0.00107576025957
6.31453781734e-07
1.21098776936e-15
)
;

boundaryField
{
    emptyPatch
    {
        type            empty;
    }
    minY
    {
        type            fixedValue;
        value           uniform 1e-15;
    }
    maxY
    {
        type            inletOutlet;
        phi             phi.gas;
        inletValue      nonuniform List<scalar> 0();
        value           nonuniform List<scalar> 0();
    }
    maxX
    {
        type            zeroGradient;
    }
    water_to_heater
    {
        type            zeroGradient;
    }
    procBoundary2to3
    {
        type            processor;
        value           nonuniform List<scalar> 
41
(
0.552878142201
0.507840927677
0.545804816624
0.554524794166
0.508251296709
0.444901400222
0.403229148317
0.374677674064
0.34496154317
0.311565186536
0.288881871143
0.283934936699
0.285061893983
0.307586426586
0.373593001199
0.387772185002
0.388546567086
0.387033229179
0.246188043176
0.0678050931983
1.07035374644e-15
1.00402862188e-15
1e-15
1e-15
1e-15
1e-15
1e-15
1.00648412168e-15
1.02978893165e-15
1.03356959539e-15
1.011856709e-15
1e-15
1e-15
1e-15
1e-15
1.53694805547e-15
1.78272907292e-14
0.00375367559175
1.0282823843e-05
1.07035374644e-15
2.30980438483e-15
)
;
    }
}


// ************************************************************************* //
