/*--------------------------------*- C++ -*----------------------------------*\
| =========                 |                                                 |
| \\      /  F ield         | OpenFOAM: The Open Source CFD Toolbox           |
|  \\    /   O peration     | Version:  2312                                  |
|   \\  /    A nd           | Website:  www.openfoam.com                      |
|    \\/     M anipulation  |                                                 |
\*---------------------------------------------------------------------------*/
FoamFile
{
    version     2.0;
    format      ascii;
    arch        "LSB;label=32;scalar=64";
    class       volScalarField;
    location    "0.435/water";
    object      d.gas;
}
// * * * * * * * * * * * * * * * * * * * * * * * * * * * * * * * * * * * * * //

dimensions      [0 1 0 0 0 0 0];

internalField   nonuniform List<scalar> 
6000
(
0.00497686262511
0.00497692569604
0.00497694312177
0.00497695678903
0.00497696866961
0.0049769794763
0.00497698955551
0.00497699890798
0.0049770074721
0.00497701527817
0.00497702235526
0.00497702875053
0.00497703453507
0.00497703977646
0.00497704452904
0.00497704883502
0.00497705272519
0.00497705621938
0.00497705932608
0.00497706204478
0.00497717483811
0.0049772053359
0.00497720335755
0.00497720418622
0.00497721001704
0.00497721556182
0.00497722099713
0.00497722640092
0.00497723189003
0.00497723736639
0.0049772426157
0.00497724755244
0.00497725220559
0.00497725660837
0.00497726076734
0.00497726467072
0.00497726829828
0.00497727162662
0.00497727462983
0.00497727728106
0.00497745542868
0.00497748636147
0.00497747392769
0.00497746487302
0.00497746321229
0.00497746239932
0.00497746233178
0.00497746315293
0.00497746477352
0.00497746706162
0.00497746979833
0.00497747272278
0.00497747568813
0.00497747865896
0.00497748162407
0.00497748455889
0.00497748742328
0.00497749016789
0.0049774927391
0.00497749508577
0.00497769149792
0.0049777126131
0.00497769925671
0.00497769340742
0.00497769423928
0.00497769456699
0.00497769434324
0.0049776942688
0.00497769465006
0.00497769555813
0.00497769696454
0.00497769872414
0.00497770066813
0.00497770270533
0.00497770480664
0.00497770695568
0.00497770912648
0.00497771128079
0.00497771337134
0.00497771535048
0.00497792546744
0.00497793913723
0.00497792129821
0.00497791496163
0.00497791638467
0.00497791785052
0.00497791844124
0.0049779187497
0.00497791928724
0.00497792019412
0.00497792147334
0.00497792305306
0.00497792480068
0.00497792661089
0.00497792844054
0.0049779302781
0.00497793211486
0.00497793393428
0.00497793571098
0.00497793741766
0.00497813951368
0.0049781542482
0.00497813743285
0.0049781311168
0.00497813235181
0.00497813491487
0.00497813711896
0.00497813878852
0.00497814035483
0.00497814209467
0.00497814402819
0.00497814610656
0.00497814822922
0.00497815030069
0.0049781522784
0.00497815415828
0.00497815594776
0.00497815765198
0.00497815926983
0.00497816079865
0.00497835096013
0.00497837221514
0.00497835834567
0.00497835213185
0.00497835195155
0.00497835371438
0.00497835630089
0.00497835904552
0.00497836174108
0.00497836450716
0.004978367309
0.00497837005172
0.00497837265621
0.00497837505663
0.00497837722809
0.00497837918178
0.00497838094294
0.00497838253741
0.00497838398661
0.00497838531234
0.00497856835884
0.00497859835003
0.00497859018915
0.00497858422255
0.00497858275591
0.00497858281161
0.00497858408535
0.00497858628382
0.00497858895659
0.00497859191349
0.00497859495194
0.00497859781148
0.00497860037828
0.00497860262844
0.00497860457025
0.00497860623398
0.00497860765985
0.00497860888827
0.00497860995739
0.00497861090319
0.00497881570312
0.00497884865165
0.0049788359258
0.00497882864592
0.00497882616901
0.00497882467809
0.00497882431659
0.00497882489875
0.00497882608802
0.00497882768143
0.004978829561
0.00497883135414
0.00497883283178
0.0049788340047
0.00497883492934
0.00497883565223
0.00497883621528
0.00497883665854
0.00497883701934
0.00497883733175
0.00497908869524
0.00497912027881
0.00497909994872
0.00497908958218
0.00497908509794
0.00497908164688
0.00497907855132
0.00497907597468
0.00497907393403
0.00497907226052
0.00497907105219
0.00497907016198
0.00497906925837
0.00497906830793
0.00497906738545
0.00497906652778
0.00497906574686
0.00497906505195
0.00497906445359
0.00497906396321
0.00497937322163
0.00497939654107
0.00497936879917
0.00497935586721
0.0049793495062
0.00497934372833
0.00497933744392
0.00497933106839
0.00497932497667
0.00497931926157
0.00497931400039
0.004979309458
0.0049793055076
0.0049793020213
0.00497929900464
0.00497929644117
0.00497929427979
0.00497929247235
0.00497929098311
0.00497928978553
0.00497961792034
0.00497962722239
0.00497960076945
0.00497958918913
0.00497958372845
0.00497957848851
0.00497957239449
0.00497956572832
0.0049795590351
0.00497955254223
0.00497954614104
0.00497954001418
0.00497953449886
0.00497952969971
0.00497952561799
0.00497952220472
0.00497951938247
0.00497951707354
0.00497951521532
0.00497951375765
0.00497977092617
0.00497978950852
0.00497978092687
0.00497977823411
0.00497977871287
0.00497977819461
0.00497977622483
0.00497977317433
0.00497976953771
0.00497976564373
0.00497976154876
0.00497975706926
0.00497975249227
0.00497974836973
0.00497974490059
0.00497974203444
0.00497973970176
0.00497973784535
0.004979736413
0.00497973535798
0.00497998774371
0.00498000449354
0.00497998577089
0.0049799781277
0.00497997603247
0.00497997461121
0.00497997303069
0.00497997139176
0.00497996975022
0.00497996805393
0.00497996622038
0.0049799640937
0.00497996159413
0.00497995932675
0.00497995766406
0.00497995649093
0.00497995566525
0.00497995514425
0.00497995489704
0.00497995488907
0.00498015546271
0.00498017615107
0.0049801623668
0.00498015902823
0.00498016048873
0.00498016185529
0.00498016304722
0.00498016443144
0.0049801655948
0.00498016606714
0.00498016573442
0.00498016515799
0.00498016477187
0.00498016496587
0.00498016595274
0.00498016734925
0.00498016883697
0.0049801703463
0.00498017187227
0.00498017339856
0.00498035032226
0.00498037637579
0.00498035825545
0.00498035164866
0.00498035151394
0.00498035265386
0.00498035481437
0.00498035820895
0.00498036190834
0.00498036407168
0.00498036438003
0.00498036430576
0.00498036555111
0.00498036842178
0.0049803726531
0.00498037730257
0.0049803816742
0.00498038564887
0.00498038926394
0.00498039254117
0.00498050917489
0.00498054415525
0.00498053491612
0.00498053252679
0.00498053620291
0.00498054131592
0.00498054791107
0.00498055583
0.00498056287897
0.00498056676469
0.00498056763558
0.00498056785334
0.00498057016826
0.00498057535282
0.00498058270616
0.00498059063775
0.00498059783854
0.00498060414839
0.00498060965687
0.00498061444396
0.00498071434702
0.00498075844583
0.00498074950265
0.00498074518446
0.00498074843684
0.0049807547158
0.0049807639699
0.00498077449717
0.00498078220631
0.00498078590801
0.00498078634477
0.00498078594632
0.0049807878443
0.00498079378334
0.0049808029513
0.00498081293925
0.00498082181599
0.00498082941207
0.00498083586554
0.00498084130216
0.00498095321738
0.00498099712305
0.00498098490664
0.00498098256674
0.00498098887087
0.00498099801784
0.00498100919682
0.00498101912423
0.00498102562102
0.00498102853867
0.00498102781105
0.00498102580549
0.00498102571283
0.00498103023511
0.00498103894789
0.00498104877192
0.00498105724442
0.00498106422992
0.00498106997468
0.00498107463368
0.00498121310469
0.00498126033364
0.00498124770466
0.00498124760243
0.00498125585976
0.00498126587334
0.00498127706275
0.00498128724325
0.00498129384262
0.00498129551913
0.00498129353503
0.00498128964504
0.00498128683338
0.004981287724
0.00498129298204
0.00498129978634
0.00498130532357
0.00498130937663
0.00498131237818
0.0049813145386
0.00498148611183
0.00498153640814
0.0049815264873
0.00498152782508
0.00498153789414
0.00498155026161
0.00498156369958
0.00498157441017
0.00498157949132
0.00498157957879
0.00498157658562
0.00498157250534
0.00498156815621
0.00498156486505
0.00498156346404
0.00498156389347
0.00498156389711
0.0049815628235
0.0049815611769
0.00498155925714
0.00498178082256
0.00498184137838
0.00498183818602
0.00498184101473
0.00498184999116
0.00498185947281
0.00498186781687
0.00498187162806
0.00498187028808
0.00498186645515
0.00498186259321
0.00498185876554
0.00498185460971
0.00498184909073
0.00498184172906
0.00498183395525
0.00498182679405
0.00498181938836
0.00498181207213
0.00498180520912
0.00498212839666
0.00498219354775
0.00498219295359
0.0049821889794
0.00498218657435
0.00498218236276
0.00498217655399
0.00498216789921
0.00498215736513
0.00498214796906
0.00498214076061
0.00498213448735
0.00498212766464
0.00498212082245
0.00498211240728
0.00498209938396
0.00498208553752
0.0049820721455
0.00498205948514
0.00498204790161
0.00498248059351
0.00498253026767
0.00498251219249
0.00498250056303
0.00498249121476
0.00498247876736
0.00498246374404
0.00498244694612
0.00498243004831
0.00498241510066
0.00498240249953
0.00498239153858
0.0049823814941
0.0049823728174
0.00498236347324
0.00498235025853
0.00498233275482
0.00498231504685
0.00498229843068
0.00498228329144
0.00498275713717
0.00498278362845
0.00498275747722
0.0049827462642
0.00498273872734
0.00498272749635
0.0049827116305
0.00498269298117
0.00498267382007
0.00498265608676
0.00498264118267
0.00498262764918
0.00498261562841
0.00498260362024
0.00498259209713
0.00498258023645
0.00498256326063
0.00498254404273
0.00498252557363
0.00498250864729
0.00498296606704
0.00498297605972
0.00498295068606
0.00498294239271
0.00498293853276
0.00498293168301
0.00498291946537
0.00498290353291
0.00498288643913
0.00498287090457
0.00498285762663
0.00498284306868
0.00498282940865
0.0049828156607
0.0049828025291
0.0049827906476
0.00498277615669
0.00498275804914
0.00498273988753
0.00498272299705
0.00498314304085
0.00498314563405
0.00498312344015
0.00498311637606
0.00498311393467
0.00498310971102
0.00498310086262
0.00498308868278
0.004983075545
0.00498306489267
0.00498305230654
0.00498303898655
0.00498302527701
0.00498301183805
0.00498299861903
0.00498298673779
0.00498297440646
0.00498295870481
0.00498294237736
0.00498292692963
0.00498330587162
0.00498330555166
0.00498328853472
0.0049832822876
0.00498327998176
0.00498327641001
0.00498326898896
0.00498325846711
0.00498324814565
0.00498324010626
0.00498323087247
0.0049832183449
0.00498320698039
0.00498319592844
0.00498318454319
0.00498317321458
0.0049831620021
0.00498314880659
0.00498313500025
0.00498312185712
0.0049834721385
0.00498346452629
0.00498344278562
0.00498343620724
0.00498343400212
0.00498343084562
0.00498342404912
0.0049834146356
0.0049834080456
0.00498340473235
0.0049833946441
0.00498338606764
0.00498337746643
0.00498336944164
0.0049833621151
0.0049833520984
0.00498334163935
0.00498333061959
0.00498331957515
0.00498330923605
0.00498361423707
0.00498360366904
0.0049835802807
0.00498357388486
0.00498357210674
0.00498356969593
0.00498356417384
0.00498355805129
0.0049835572199
0.00498355407608
0.00498354966782
0.00498354199157
0.00498353709945
0.0049835344169
0.00498353054111
0.0049835246152
0.00498351448283
0.00498350535868
0.00498349728145
0.00498349016275
0.00498374348688
0.0049837319561
0.0049837079158
0.00498370140757
0.00498370005203
0.00498369840021
0.00498369466902
0.0049836927957
0.00498369591901
0.00498369788327
0.00498369252695
0.00498369111472
0.00498368901307
0.00498368961285
0.00498369575055
0.00498368902201
0.00498367938234
0.00498367294698
0.00498366849231
0.00498366532972
0.00498386361373
0.00498385343503
0.00498383128767
0.00498382551605
0.0049838252064
0.00498382478269
0.00498382354576
0.00498382683524
0.00498383506146
0.00498383396591
0.00498383533941
0.00498383361135
0.00498383653974
0.00498384524033
0.00498384907184
0.00498384663491
0.00498383823801
0.00498383471023
0.00498383435828
0.00498383603358
0.00498400108701
0.00498399095235
0.00498396944611
0.00498396204182
0.00498396052139
0.00498395939674
0.00498395959607
0.00498396737351
0.00498397281551
0.00498397692401
0.00498397572503
0.00498397971832
0.00498398328806
0.00498399284913
0.00498401108022
0.00498400309245
0.00498399587682
0.00498399421183
0.0049839979867
0.00498400503305
0.00498411473897
0.00498410491734
0.00498408151899
0.00498407800185
0.00498408085479
0.00498408422888
0.00498409100789
0.00498410367065
0.00498411447777
0.00498411668285
0.00498412367925
0.00498412800008
0.00498413615936
0.00498416338879
0.00498416586
0.00498416021236
0.00498415547759
0.00498415570293
0.0049841636729
0.00498417617023
0.00498424205397
0.00498423528137
0.00498420572864
0.00498420267446
0.00498420804106
0.00498421562178
0.00498423008205
0.00498424916897
0.00498425606987
0.0049842671902
0.00498427444521
0.00498428553191
0.00498430266258
0.00498431616783
0.00498432622178
0.00498432574395
0.0049843232383
0.00498432536719
0.00498433657566
0.00498435367802
0.00498435182856
0.0049843509725
0.00498432357393
0.00498432478752
0.00498433618891
0.00498435227468
0.0049843759938
0.0049843916536
0.00498440815003
0.00498441887757
0.00498443325272
0.00498444786206
0.00498446771479
0.00498449636963
0.00498449868501
0.00498450109902
0.00498450237203
0.00498450668304
0.00498451991259
0.00498454056199
0.00498446321071
0.00498447833979
0.00498445449728
0.00498445804914
0.00498447471811
0.00498449881577
0.00498452412271
0.00498454761266
0.00498456249125
0.00498458223839
0.00498460519079
0.00498462439545
0.00498466201363
0.00498467147282
0.0049846794908
0.00498468886838
0.00498469560156
0.00498470181241
0.00498471552412
0.0049847388943
0.00498456430203
0.00498460117973
0.00498459222026
0.00498460349984
0.00498463016278
0.00498466147357
0.00498469229667
0.00498471429629
0.00498474122958
0.00498477824353
0.00498480051244
0.00498482982763
0.00498484726276
0.00498485978586
0.00498487679671
0.00498489498016
0.00498490697293
0.0049849132422
0.00498492591875
0.00498495149184
0.00498467977733
0.0049847513177
0.00498474926864
0.00498477303722
0.00498481255749
0.00498485135336
0.00498488906445
0.00498492477359
0.00498495719565
0.00498497642867
0.00498499754634
0.00498501943546
0.00498504072901
0.00498506596857
0.0049850985128
0.00498512567771
0.0049851394022
0.00498514488011
0.00498515659033
0.00498518350662
0.00498478393574
0.00498489246795
0.00498491661609
0.00498495427236
0.00498500122319
0.00498504356431
0.00498507841004
0.00498510739274
0.00498513212298
0.00498515628976
0.00498518513253
0.00498522015451
0.00498526089164
0.00498530799073
0.00498535292392
0.0049853833931
0.00498539790354
0.0049854057275
0.00498541735711
0.00498544289516
0.00498490741597
0.00498505733411
0.00498510283667
0.00498513454837
0.00498517635754
0.00498521374122
0.00498525022532
0.00498528431688
0.00498531799651
0.00498535841543
0.00498541032849
0.00498547069797
0.0049855338569
0.00498559521363
0.00498564581785
0.00498567837983
0.00498569592775
0.00498570791944
0.0049857183488
0.00498573893513
0.0049850120781
0.00498522800431
0.00498527528765
0.0049853118506
0.00498536033198
0.00498541112957
0.00498546322243
0.00498551777078
0.0049855792276
0.00498565073723
0.00498572834336
0.00498580481151
0.00498587746211
0.00498594333606
0.00498599439656
0.0049860265801
0.00498604554102
0.00498605784068
0.00498606547708
0.00498607901704
0.00498550194198
0.00498579263985
0.00498580651875
0.00498579922368
0.00498581938728
0.00498586489937
0.00498592598789
0.00498599438357
0.00498606637921
0.00498613805887
0.00498620438243
0.00498626455639
0.00498632063086
0.00498637061146
0.0049864080332
0.00498643132418
0.00498644432528
0.0049864505961
0.00498645431781
0.00498645962064
0.00498723534492
0.00498742648317
0.00498721901572
0.00498708543562
0.00498698457409
0.00498691863409
0.00498688550233
0.00498687593215
0.00498687545512
0.00498687633015
0.00498687606688
0.00498687509787
0.00498687477653
0.00498687585353
0.00498687687042
0.00498687698141
0.0049868747342
0.00498686921219
0.00498686605677
0.00498686012196
0.00498877078766
0.00498875402066
0.0049886852608
0.00498858255778
0.00498846207691
0.00498829965915
0.00498810788761
0.00498794171722
0.00498781448993
0.00498771049229
0.00498762076199
0.00498754156538
0.00498747036404
0.00498740682702
0.00498735537198
0.00498732056907
0.00498729720134
0.00498727720877
0.00498726064016
0.00498724461456
0.004988810716
0.00498881090601
0.00498881186623
0.00498881256058
0.00498881086911
0.00498879613401
0.00498873334111
0.00498859308944
0.00498843123924
0.0049882918144
0.00498817058643
0.00498806106853
0.00498795990023
0.00498786517537
0.00498777894637
0.00498771214472
0.00498766759726
0.00498763488964
0.00498760810274
0.00498758627184
0.00498883508946
0.00498883521628
0.00498883549376
0.00498883592629
0.00498883657481
0.00498883698703
0.00498883386098
0.00498880513238
0.00498871689081
0.00498860193072
0.00498849167476
0.00498838919628
0.00498829205322
0.00498819892597
0.00498811022429
0.00498803095915
0.00498797243511
0.00498793307167
0.00498790026296
0.00498787387413
0.00498885360531
0.00498885366756
0.00498885381887
0.00498885399341
0.00498885419194
0.00498885446049
0.00498885493006
0.00498885140564
0.00498881868374
0.00498875110765
0.00498866814707
0.00498858552901
0.00498850513043
0.00498842655301
0.00498835055451
0.00498827883466
0.00498821846959
0.00498817485662
0.00498814213103
0.00498811411436
0.004988870252
0.00498887028381
0.00498887033158
0.00498887039475
0.00498887049114
0.00498887062835
0.00498887081614
0.00498887040901
0.00498885630137
0.00498881884289
0.00498876352864
0.00498870307574
0.00498864224187
0.00498858064593
0.00498852034715
0.00498846274188
0.00498841131927
0.00498837130935
0.004988340989
0.00498831125216
0.00498888531469
0.00498888534494
0.00498888536907
0.00498888538449
0.00498888540646
0.00498888544738
0.00498888554193
0.00498888438688
0.00498887582899
0.00498885216198
0.00498881646543
0.00498877539385
0.00498873142
0.00498868631291
0.00498864071756
0.00498859771877
0.00498856023086
0.00498852883914
0.00498850320046
0.00498847595947
0.00498889959836
0.00498889959655
0.00498889955578
0.00498889948573
0.00498889940685
0.00498889932333
0.00498889921273
0.00498889762643
0.00498889190018
0.00498887589791
0.00498885291344
0.00498882572983
0.00498879554136
0.00498876369659
0.00498873199802
0.00498870065225
0.00498867515276
0.00498866021066
0.00498864156533
0.00498861617285
0.00498891343899
0.00498891344576
0.00498891340055
0.00498891334908
0.00498891332548
0.00498891335738
0.00498891213805
0.00498891007088
0.00498890511641
0.00498889373699
0.00498888031655
0.00498886563618
0.00498884641046
0.00498882611461
0.00498880545029
0.00498878556848
0.00498877401561
0.00498877126464
0.00498876092596
0.00498873969066
0.00498892738348
0.00498892733641
0.00498892718845
0.00498892701177
0.00498892681712
0.00498892659973
0.00498892372932
0.0049889211157
0.00498891601857
0.00498890868862
0.00498890540213
0.00498890126278
0.00498889238125
0.00498888256276
0.00498887320254
0.00498886406975
0.00498886114218
0.00498887156331
0.00498887025005
0.00498885410254
0.00498894247585
0.00498894236991
0.00498894210889
0.0049889417062
0.00498894150952
0.00498894000249
0.00498893776732
0.00498893432982
0.00498892986212
0.00498892972044
0.00498893770254
0.00498894258603
0.00498894104287
0.00498894034832
0.00498894094432
0.00498894138941
0.00498895009562
0.00498896947292
0.00498897640402
0.00498896500044
0.0049889616168
0.00498896142791
0.00498896100756
0.00498896008866
0.00498895808992
0.00498895582231
0.00498895314933
0.0049889502336
0.00498895046631
0.00498896433275
0.00498898246624
0.00498899064415
0.00498899749037
0.00498900655398
0.00498901586444
0.00498902613661
0.00498904454091
0.00498907205817
0.00498908387538
0.00498907689505
0.00498898755698
0.0049889869878
0.00498897748201
0.00498897279922
0.00498896997067
0.00498896902085
0.0049889681272
0.00498897048943
0.00498898759475
0.00498901617606
0.00498903562874
0.00498905125382
0.00498906730265
0.00498908446493
0.00498910376558
0.00498912365076
0.00498915200986
0.00498918208654
0.00498919781762
0.00498919642772
0.00498903080865
0.00498902254411
0.00498899930388
0.00498899022399
0.00498898878805
0.00498899014447
0.00498899656766
0.00498901929909
0.00498905706792
0.0049890870639
0.00498910931735
0.00498913081275
0.00498915498763
0.0049891832186
0.00498920943793
0.00498923988465
0.00498927284954
0.0049893036552
0.00498932493842
0.00498932987122
0.00498907304284
0.00498908014566
0.00498904859942
0.00498903557574
0.00498903655171
0.00498904931861
0.00498908072732
0.0049891238567
0.0049891577956
0.00498918479357
0.0049892083691
0.00498923602464
0.00498926793373
0.00498930107844
0.00498933766737
0.00498937372579
0.00498940773763
0.00498944262924
0.00498946959031
0.00498948071635
0.00498911205222
0.00498918206813
0.00498912757836
0.0049891117233
0.00498913630373
0.00498917743448
0.00498922051033
0.00498924799627
0.00498927708401
0.00498930371142
0.00498933319896
0.00498936522572
0.00498940085726
0.00498944497241
0.00498948438242
0.00498952252887
0.00498956014814
0.00498960008129
0.00498963200246
0.00498964948569
0.00498914564877
0.00498930885612
0.00498923923924
0.00498924534389
0.00498928912481
0.00498932659971
0.00498934682478
0.00498937534449
0.0049894031178
0.00498943711085
0.00498947408562
0.00498950945768
0.00498955584487
0.00498960086186
0.00498964347815
0.00498968376479
0.00498972753791
0.0049897741865
0.00498981303793
0.00498983808003
0.00498917220073
0.00498939200234
0.0049893529747
0.0049893687761
0.00498940586627
0.00498942714399
0.00498946237259
0.00498949412978
0.00498953218757
0.00498957740161
0.0049896206462
0.00498967135069
0.00498971947368
0.00498977200425
0.00498981754282
0.00498986367213
0.00498991510871
0.00498996943349
0.00499001586126
0.00499004914859
0.00498919306479
0.00498942094173
0.00498943403327
0.00498945832665
0.0049894850195
0.00498953189828
0.00498957468883
0.00498962406904
0.00498968197159
0.00498973404685
0.00498979956174
0.00498985722157
0.00498992435347
0.00498997916575
0.0049900302927
0.00499008267875
0.00499013872893
0.0049901959894
0.00499024725166
0.00499028653674
0.00498924253986
0.00498948904859
0.00498953497975
0.00498954856152
0.00498960281651
0.00498967174584
0.00498973711237
0.00498982129169
0.00498989117534
0.00498998251487
0.00499005599294
0.00499013985081
0.00499020596357
0.00499026366012
0.00499031705655
0.00499036890076
0.00499041991291
0.00499046981872
0.00499051589222
0.00499055301082
0.0049898574383
0.00499011994117
0.00499011979935
0.00499011628345
0.00499016704707
0.00499021498959
0.00499027892906
0.00499033116476
0.00499040331977
0.00499046529592
0.00499053128923
0.00499058422668
0.00499062972488
0.0049906694812
0.00499070543025
0.00499073870026
0.00499076950704
0.00499079815102
0.00499082432708
0.00499084725979
0.00499173798001
0.00499198219291
0.00499188085958
0.0049917899905
0.00499170601722
0.00499161123743
0.00499149097285
0.00499138349518
0.00499130487251
0.00499125905025
0.00499122956526
0.00499120942685
0.00499119460055
0.00499118359924
0.00499117553283
0.00499116962031
0.00499116562692
0.00499116318353
0.0049911623112
0.00499116060796
0.00499242714363
0.00499242855373
0.00499242904682
0.00499242425767
0.00499240784872
0.00499237603655
0.00499232071769
0.00499223002553
0.00499211110653
0.00499198753612
0.00499188328619
0.00499179990237
0.00499173096259
0.00499167273765
0.00499162322736
0.00499158160713
0.00499154680484
0.00499151782363
0.00499149363486
0.00499147383724
0.00499244577949
0.00499244588875
0.00499244588608
0.00499244600705
0.00499244613142
0.00499244622689
0.00499244620712
0.00499243639579
0.00499240350692
0.00499233804146
0.0049922505995
0.00499216358096
0.00499208682963
0.00499201890963
0.00499195809813
0.00499190458521
0.00499185849236
0.00499181898979
0.00499178589501
0.00499175848139
0.00499245850047
0.00499245853376
0.00499245852815
0.00499245853134
0.00499245856843
0.00499245863835
0.00499245872596
0.00499245789487
0.00499245097841
0.00499242972004
0.00499238985412
0.00499233624463
0.00499228046433
0.00499222814868
0.00499217872891
0.00499213319712
0.00499209254369
0.00499205712243
0.00499202623708
0.00499200113322
0.00499247148906
0.00499247151028
0.00499247153412
0.004992471591
0.00499247168409
0.0049924718097
0.00499247197013
0.00499247232124
0.00499247145549
0.00499246329782
0.00499244460089
0.00499241760021
0.00499238713668
0.00499235573942
0.00499232486323
0.00499229480325
0.00499226715434
0.00499224260053
0.00499222238976
0.00499220659368
0.00499248459892
0.00499248460571
0.00499248464158
0.00499248473751
0.00499248487933
0.00499248504956
0.00499248525047
0.00499248595062
0.00499248781369
0.00499248542277
0.0049924766228
0.00499246500427
0.00499245274179
0.00499243929256
0.00499242404502
0.0049924099316
0.00499239720962
0.00499238692012
0.0049923794751
0.00499237713469
0.00499249776307
0.00499249776832
0.00499249783088
0.00499249796675
0.00499249814201
0.00499249832184
0.00499249848825
0.00499249937326
0.00499250270257
0.00499250339825
0.00499250038047
0.00499249915822
0.0049925014306
0.00499249973163
0.00499249763318
0.00499249607792
0.00499249584857
0.00499249815146
0.00499250354343
0.00499251225837
0.00499251084679
0.00499251091194
0.00499251105441
0.00499251127002
0.00499251153429
0.004992511826
0.00499251210217
0.00499251353074
0.00499251688952
0.00499251854328
0.00499252020739
0.0049925298424
0.00499254133484
0.00499254855411
0.00499255379856
0.00499256141909
0.0049925712803
0.0049925826595
0.00499259763499
0.00499261715762
0.00499252288646
0.00499252309294
0.00499252331626
0.00499252356357
0.00499252384273
0.00499252414781
0.00499252448037
0.00499252621033
0.00499252984701
0.00499253300854
0.0049925403851
0.00499255767781
0.00499257473698
0.00499258356953
0.00499259521176
0.00499260859792
0.00499262416281
0.0049926432781
0.00499266443533
0.00499268968331
0.0049925337109
0.00499253401426
0.00499253424467
0.00499253447056
0.00499253472393
0.00499253500792
0.00499253519914
0.00499253598717
0.00499253840428
0.00499254197132
0.00499255309606
0.00499257455052
0.00499259213288
0.00499260621628
0.00499262012484
0.0049926380094
0.00499265875315
0.00499268125149
0.00499270795116
0.00499273758825
0.00499254341779
0.00499254370646
0.00499254388577
0.00499254406447
0.00499254427187
0.00499254451435
0.00499254430661
0.00499254342336
0.00499254313876
0.00499254514303
0.0049925576402
0.00499258110646
0.00499260218962
0.00499261565146
0.00499263408307
0.00499265453248
0.00499267789202
0.00499270492685
0.00499273379059
0.00499276717296
0.00499255200281
0.00499255220676
0.00499255237041
0.00499255252234
0.0049925526826
0.00499255288084
0.00499255185592
0.00499254893971
0.00499254555794
0.00499254554049
0.00499255970175
0.00499258588191
0.00499260404494
0.00499262237411
0.00499264152966
0.0049926649193
0.00499269167777
0.00499272035755
0.00499275342082
0.00499278900697
0.00499256163948
0.00499256277793
0.00499256238445
0.00499256149926
0.00499256143693
0.00499256123934
0.00499255877919
0.00499255330893
0.00499254684412
0.00499254598926
0.0049925657184
0.00499259233371
0.00499261337081
0.0049926310714
0.00499265386011
0.00499267973593
0.00499270797619
0.00499273969628
0.00499277364951
0.00499281400534
0.00499256588598
0.0049925820314
0.00499257366556
0.00499256973621
0.00499256966054
0.00499256944832
0.00499256594566
0.00499255863298
0.00499255144819
0.0049925587325
0.00499258845661
0.00499261848532
0.00499263593719
0.00499265866628
0.00499268348123
0.00499271027824
0.00499274241
0.00499277572516
0.00499281863095
0.00499285579488
0.0049925727839
0.004992668161
0.00499262632357
0.00499260531485
0.0049926010665
0.00499259864777
0.00499259246351
0.00499258423191
0.00499258671333
0.00499261689718
0.00499265488823
0.00499267316481
0.00499269592834
0.00499272014941
0.00499274706549
0.00499278503073
0.00499281988322
0.00499285573935
0.00499288534607
0.00499291781243
0.00499259340702
0.00499275336174
0.00499268753317
0.00499265371679
0.00499265093337
0.00499265079542
0.0049926519458
0.00499266601387
0.00499270068504
0.00499274205429
0.00499275824879
0.004992780341
0.00499280498696
0.00499283538882
0.00499287383471
0.00499290338925
0.0049929300608
0.00499295350897
0.0049929786004
0.00499300732534
0.00499262795445
0.00499277757221
0.00499274424543
0.00499272816663
0.00499274095335
0.00499276590985
0.00499280394324
0.00499284089764
0.00499287884298
0.00499289248338
0.0049929138049
0.00499294171697
0.00499297436581
0.00499301026054
0.00499303192092
0.00499305416217
0.00499307487983
0.00499309571847
0.0049931167289
0.00499313836018
0.00499273727218
0.00499287646307
0.00499287134784
0.00499288434664
0.00499292408591
0.00499297378466
0.00499301166232
0.00499304574431
0.00499307224185
0.00499309619335
0.00499313545708
0.00499317217905
0.0049932085222
0.00499322678845
0.00499324838637
0.004993268518
0.00499328547086
0.0049932991887
0.00499331060173
0.00499331968435
0.00499341551891
0.00499355873146
0.00499351689463
0.00499349602373
0.00499349688091
0.00499350293921
0.00499351526708
0.00499353904027
0.00499355933219
0.00499357642537
0.00499357226359
0.004993570572
0.00499356594177
0.00499357097495
0.0049935777281
0.00499358066759
0.00499357948749
0.00499357468151
0.00499356677184
0.00499355579483
0.00499467713185
0.00499474858974
0.00499468521404
0.00499466130733
0.00499465249317
0.00499464517492
0.0049946375888
0.00499461687118
0.00499455920536
0.00499444625675
0.00499431017505
0.00499419858382
0.00499412535005
0.00499407355999
0.00499402916748
0.00499398790629
0.00499394794658
0.00499390888384
0.00499387060349
0.00499383274038
0.00499511630872
0.00499512640165
0.00499511372168
0.00499511150566
0.0049951187639
0.00499512465926
0.00499511570578
0.00499509135331
0.00499506038954
0.00499501944696
0.00499493653178
0.00499480940112
0.00499467827737
0.00499456586719
0.00499447120926
0.00499438735909
0.00499431080278
0.00499424003136
0.00499417433221
0.00499411288935
0.00499511440855
0.00499511543835
0.00499511621036
0.00499511692816
0.00499511754057
0.00499511796462
0.00499511817106
0.00499511818175
0.00499511806769
0.00499511785029
0.00499510747465
0.00499506234978
0.00499497577179
0.00499486709306
0.004994764779
0.00499467249181
0.00499458707742
0.00499450621884
0.00499443007548
0.00499435850903
0.00499513164013
0.00499513200583