/*--------------------------------*- C++ -*----------------------------------*\
| =========                 |                                                 |
| \\      /  F ield         | OpenFOAM: The Open Source CFD Toolbox           |
|  \\    /   O peration     | Version:  2312                                  |
|   \\  /    A nd           | Website:  www.openfoam.com                      |
|    \\/     M anipulation  |                                                 |
\*---------------------------------------------------------------------------*/
FoamFile
{
    version     2.0;
    format      ascii;
    arch        "LSB;label=32;scalar=64";
    class       volScalarField;
    location    "0.15/water";
    object      alphat.gas;
}
// * * * * * * * * * * * * * * * * * * * * * * * * * * * * * * * * * * * * * //

dimensions      [1 -1 -1 0 0 0 0];

internalField   nonuniform List<scalar> 
750
(
8.52999790068e-09
8.32405661353e-09
1.02672205788e-08
1.51975578835e-08
3.30930323898e-08
1.03895485718e-07
3.97692655953e-07
1.29198082095e-06
2.84214332347e-06
4.33211374686e-06
4.90344269799e-06
4.21818682505e-06
2.64883300473e-06
1.09668769889e-06
2.97082748037e-07
1.19774946257e-07
1.86673481355e-07
4.7511161787e-07
1.08529053222e-06
1.33408314905e-08
8.82949285935e-09
7.12988505327e-09
7.50142421656e-09
1.08332962625e-08
2.35729344225e-08
5.11341757476e-08
1.26348227858e-07
3.13016837829e-07
6.80366907084e-07
1.11400960292e-06
1.20209470851e-06
7.76716100631e-07
3.17441839272e-07
1.71033481638e-07
2.7263857831e-07
6.02848735172e-07
1.09886701129e-06
1.68911594752e-06
1.93408124466e-08
1.171626004e-08
7.61161078872e-09
6.16013169795e-09
6.75098315735e-09
9.60559941702e-09
1.70367578541e-08
4.0542869916e-08
7.55368174195e-08
1.32241539752e-07
2.20859215301e-07
2.88542265827e-07
2.3518036155e-07
1.68159763639e-07
2.48469916886e-07
5.15541478841e-07
9.2295851557e-07
1.42104139206e-06
1.82796427435e-06
2.66146749428e-08
1.71909086209e-08
1.03187622103e-08
6.77561820732e-09
6.05482965696e-09
7.59068203713e-09
1.19666152782e-08
1.9919741723e-08
3.22979369783e-08
5.49120373381e-08
7.52245062864e-08
9.83814995011e-08
1.1364655606e-07
1.61624304149e-07
3.44848301869e-07
6.55454210595e-07
9.84341445812e-07
1.4295030472e-06
1.485978101e-06
3.32420929627e-08
2.09538728632e-08
1.27894404949e-08
7.90485055563e-09
6.08109915831e-09
6.66842520061e-09
9.86666910547e-09
1.58308341616e-08
2.23034772633e-08
2.81112175186e-08
4.36224486518e-08
5.96485874108e-08
8.56386779325e-08
1.66127490433e-07
3.61810931468e-07
6.40182704861e-07
8.74958297724e-07
1.23269241517e-06
8.85255943887e-07
4.51203814706e-08
2.4314530383e-08
1.48285186136e-08
9.277269193e-09
6.56107061532e-09
6.1784824574e-09
8.16051759601e-09
1.2771770229e-08
1.83250969674e-08
2.28873139188e-08
2.74350693695e-08
4.30723968625e-08
8.28937885297e-08
1.49006079585e-07
2.76837022357e-07
4.70121903824e-07
6.27783217367e-07
9.00784240122e-07
4.75439081357e-07
5.14562835809e-08
3.10881288485e-08
1.76065194299e-08
1.06939371395e-08
7.30842966595e-09
6.26301819373e-09
7.31272657586e-09
1.04576988388e-08
1.47977044043e-08
1.90194475028e-08
2.35047231737e-08
3.43516513051e-08
6.73056167334e-08
1.46440725982e-07
2.02386838865e-07
2.65104239004e-07
3.29268516891e-07
4.83587773446e-07
3.4359823586e-07
5.07223435736e-08
3.39107043174e-08
1.93815111878e-08
1.12312338738e-08
7.49571846218e-09
6.21651410686e-09
6.94230378836e-09
9.45748251347e-09
1.29445105094e-08
1.6373755425e-08
2.1320825257e-08
3.48601144513e-08
6.77728444022e-08
1.12514433806e-07
1.71541873725e-07
2.15977143323e-07
2.43416903057e-07
3.22233427455e-07
3.03543713741e-07
4.68761101769e-08
3.14021627573e-08
1.89581725428e-08
1.10568278587e-08
7.36869584394e-09
6.14140549794e-09
6.75454554308e-09
8.93379560236e-09
1.18041883361e-08
1.46705958195e-08
1.97041606705e-08
3.64383501256e-08
7.34342037115e-08
1.19701340473e-07
1.53664915546e-07
1.78183560003e-07
2.3112351792e-07
3.31863522166e-07
4.71042399077e-07
5.5214571763e-08
2.93512813581e-08
1.81054467761e-08
1.13953847916e-08
7.51440552423e-09
6.07052890944e-09
6.4842878089e-09
8.28595181168e-09
1.05917443159e-08
1.28154410564e-08
1.73063038547e-08
3.38259639276e-08
7.49787282922e-08
1.35376062979e-07
1.8579298384e-07
2.42928463602e-07
3.51668926998e-07
5.25203177407e-07
7.98669001554e-07
6.67306370868e-08
6.22465402689e-08
3.84685476784e-08
1.73811536203e-08
1.11409364397e-08
7.89568421308e-09
6.24430682327e-09
6.22293174108e-09
7.48507817349e-09
9.25443183082e-09
1.09926566865e-08
1.43179104077e-08
2.72303820456e-08
7.02351649651e-08
1.5671243652e-07
2.44556003784e-07
3.32651597065e-07
4.6809785337e-07
6.83823437291e-07
9.94088287738e-07
6.4688580225e-08
6.15342705789e-08
4.15217274962e-08
2.32470351814e-08
1.10277076355e-08
7.57920434645e-09
6.31168080558e-09
6.09113026052e-09
6.76124212933e-09
7.90583653946e-09
9.11922457915e-09
1.10692418822e-08
1.7439155861e-08
4.26004668594e-08
1.20555224691e-07
2.36915512127e-07
3.49268073912e-07
5.36472272045e-07
7.95697331823e-07
1.09314896217e-06
5.51182157453e-08
5.45174177237e-08
4.56812643059e-08
2.59892343922e-08
1.36745785506e-08
7.40228162887e-09
5.49346587172e-09
5.42315186096e-09
5.9734433415e-09
6.81561326348e-09
7.69199147323e-09
8.83759505677e-09
1.29569616515e-08
3.52296190685e-08
1.20252857667e-07
2.67684942222e-07
4.5550519612e-07
6.75414027821e-07
8.90141002944e-07
1.09470456073e-06
3.96935219113e-08
2.79420468495e-08
3.46515379737e-08
2.62968846608e-08
1.5600207562e-08
8.36100336781e-09
5.62966410935e-09
4.13226360067e-09
4.56511223943e-09
5.33513429015e-09
6.14081258496e-09
7.18673457696e-09
1.20053670487e-08
4.35664783996e-08
1.36655642449e-07
3.0224382953e-07
5.23636515999e-07
7.7236184472e-07
9.26937307119e-07
1.07806775981e-06
4.86831874041e-08
2.44390359644e-08
2.32156334762e-08
2.25863412439e-08
1.61119470695e-08
9.69701342956e-09
5.8417060283e-09
4.21751728694e-09
3.92530373365e-09
3.56549009809e-09
4.20084403819e-09
5.54050292259e-09
1.61967438131e-08
6.74960520036e-08
1.81674638363e-07
3.73330024827e-07
5.94098730916e-07
8.50462468435e-07
9.61928785178e-07
1.0717649849e-06
5.30984239115e-08
3.07208124563e-08
1.75139304317e-08
1.43310500945e-08
1.57346063253e-08
1.11492019008e-08
6.92093823716e-09
4.76427843128e-09
4.0047763271e-09
3.69795013524e-09
4.07266471889e-09
1.12677853759e-08
4.2616105607e-08
1.28142465174e-07
2.70302525389e-07
4.71333607712e-07
6.72538936723e-07
9.1333597141e-07
9.98174664516e-07
1.08446158211e-06
5.25793424381e-08
3.62912855639e-08
2.01524557611e-08
9.99543848387e-09
1.15170949713e-08
1.12450875627e-08
7.24920177199e-09
4.89156413269e-09
3.8537564647e-09
4.09067021388e-09
1.35960839353e-08
5.53260572578e-08
1.0988720622e-07
2.38464678106e-07
3.89655593614e-07
5.74316070916e-07
7.54069233623e-07
9.69999462338e-07
1.03228689525e-06
1.09940311286e-06
5.38467393699e-08
3.40487110971e-08
1.64475379111e-08
8.91290266653e-09
1.13658215622e-08
9.16221511933e-09
4.98595252214e-09
2.47856498377e-09
3.87810798958e-09
1.41201362963e-08
5.44500929448e-08
1.18058773325e-07
2.09872265006e-07
3.57127523591e-07
4.89716784483e-07
6.46475615715e-07
8.05766184538e-07
1.00156571411e-06
1.04547933283e-06
1.12153283069e-06
5.60006908068e-08
2.85380389162e-08
1.38240410884e-08
7.19177514262e-09
7.02900556717e-09
3.14544183641e-09
1.17274625808e-09
2.31051860358e-09
1.15266249304e-08
5.11854470293e-08
1.15848574303e-07
1.87398096051e-07
2.84817483093e-07
4.14329937457e-07
5.29750313331e-07
6.60495056011e-07
8.00068679273e-07
9.57659858043e-07
1.01544535667e-06
1.16824781101e-06
5.59931621219e-08
2.55245940935e-08
1.22824321867e-08
6.23051732374e-09
3.5066063093e-09
1.49302065007e-09
1.14118189504e-09
2.60049629742e-09
1.40651020852e-08
6.8398869051e-08
1.49443638492e-07
2.23313303346e-07
3.01873510557e-07
3.92067743513e-07
4.91085531499e-07
6.11980783089e-07
7.48325549294e-07
8.64470708601e-07
9.80863271984e-07
1.21282945717e-06
5.67072869625e-08
2.51049693285e-08
1.20937442259e-08
6.19030858435e-09
3.74362062254e-09
2.21720018987e-09
1.32452129591e-09
1.66301742151e-09
5.18538464303e-09
3.64324676451e-08
1.24483875905e-07
2.07396606198e-07
2.79734860261e-07
3.50295638315e-07
4.38809686356e-07
5.37497935728e-07
6.2629805049e-07
7.24869837213e-07
9.16819775893e-07
1.26624163725e-06
7.03057147476e-08
2.61123286475e-08
1.28016418347e-08
6.8243610265e-09
4.27285911384e-09
3.08236465967e-09
2.32937283743e-09
1.63445604613e-09
1.98492140523e-09
9.2733041502e-09
6.57850544567e-08
1.50326801559e-07
2.17811255303e-07
2.75248261858e-07
3.34769760151e-07
3.98240961725e-07
4.7522586147e-07
5.93077251184e-07
7.93756604771e-07
1.15520859971e-06
8.07432016576e-08
3.36890864495e-08
1.84068778602e-08
8.42541148748e-09
4.63529075394e-09
3.5848128714e-09
3.55502498191e-09
2.25748837832e-09
1.49327707423e-09
4.39775533575e-09
2.23938043543e-08
8.89874347264e-08
1.7208148332e-07
2.21768716776e-07
2.49247225793e-07
2.71049002315e-07
3.10728600703e-07
3.90658417446e-07
5.40609981184e-07
8.41027587754e-07
8.30412751324e-08
3.34893447466e-08
1.89091313551e-08
1.14859786597e-08
6.05896643226e-09
4.97610853383e-09
3.60368217425e-09
1.21684203537e-09
2.12154888296e-09
3.5435016681e-09
7.17548203708e-09
4.23696407533e-08
1.64372737469e-07
3.35256740064e-07
4.31060198574e-07
4.31393505347e-07
4.09297977815e-07
4.14106676153e-07
4.84721241014e-07
4.98195132838e-07
7.51310030125e-08
2.9050813598e-08
2.02685738545e-08
1.39246508985e-08
6.53710793732e-09
5.0395523943e-09
2.17171005703e-09
2.75459050255e-09
2.7552095332e-09
4.28923745076e-09
7.1281862012e-09
2.94552208503e-08
1.86617357947e-07
3.81522795194e-07
6.0339330356e-07
6.46929780619e-07
6.18469750997e-07
5.60203419184e-07
5.68891831023e-07
4.11883688446e-07
7.50894689567e-08
2.79006076305e-08
1.83927466553e-08
1.5066453326e-08
8.49635184038e-09
4.84592099302e-09
1.62201338213e-09
3.76014261779e-09
4.13472078142e-09
5.42837051561e-09
9.22648676718e-09
3.28379459316e-08
2.38129127384e-07
4.57591970195e-07
7.57012216259e-07
8.45671070383e-07
8.41488587425e-07
7.75444706325e-07
7.58247207444e-07
4.94055437429e-07
7.63663742992e-08
4.13841262523e-08
1.7143771145e-08
1.29704655561e-08
9.98544330397e-09
5.39233250526e-09
1.39494860864e-09
3.81388834776e-09
4.6195876472e-09
6.13937850162e-09
1.03720972536e-08
4.49454202362e-08
3.04460072161e-07
6.7401360665e-07
9.38720125836e-07
1.06242857232e-06
1.08039559972e-06
1.01452438388e-06
9.78701096774e-07
7.74991772469e-07
7.95661818984e-08
4.9230249154e-08
1.86003492494e-08
9.5089677937e-09
7.43197370293e-09
3.7769259542e-09
1.07421567411e-09
3.37654859625e-09
4.4271025708e-09
6.28482247507e-09
1.08108949292e-08
4.27091710432e-08
3.54847183783e-07
8.5506130186e-07
1.17538638209e-06
1.31709269231e-06
1.37509681033e-06
1.36561241543e-06
1.30665561249e-06
1.12147853525e-06
6.16290312415e-08
4.00670759484e-08
1.61679215232e-08
7.44471715598e-09
4.11861482365e-09
1.51348612345e-09
1.86551664909e-09
3.18093285791e-09
4.186978177e-09
5.79621323751e-09
9.7135833442e-09
4.32565476382e-08
3.47230565819e-07
8.02687754321e-07
1.31536099841e-06
1.55535866087e-06
1.71510604559e-06
1.79133772867e-06
1.7839443483e-06
1.61274066128e-06
4.18939310518e-08
2.52876567742e-08
1.3377071848e-08
5.94019978465e-09
2.32596254197e-09
1.12284947151e-09
1.8658092348e-09
2.76148902027e-09
3.59042980023e-09
5.08082676713e-09
1.14313946856e-08
5.77287326312e-08
2.72086936956e-07
5.93208200214e-07
8.78200584378e-07
1.5230729514e-06
1.91647095449e-06
2.20077379893e-06
2.3164190016e-06
2.32463502764e-06
3.11015724163e-08
2.53396330335e-08
9.97872044821e-09
4.1833052466e-09
1.84844390485e-09
1.47549373484e-09
1.60215104524e-09
2.57943734914e-09
5.37827253844e-09
1.61001957076e-08
4.43850691265e-08
1.23033668941e-07
2.99298649539e-07
5.51218620583e-07
8.24510538462e-07
1.08187616165e-06
1.29734831762e-06
1.44542173453e-06
1.79640750478e-06
2.16242693906e-06
3.16008886662e-08
2.2720371918e-08
9.43615477313e-09
4.6436339161e-09
2.63191505297e-09
1.46874044506e-09
2.17756342651e-09
8.6788306099e-09
2.96468127937e-08
8.69476096615e-08
2.02467131963e-07
3.62596117112e-07
5.42234051698e-07
7.48740585376e-07
9.80953776772e-07
1.21372405337e-06
1.40990292104e-06
1.51467934449e-06
1.4245234092e-06
1.24507530778e-06
3.2438724569e-08
2.29247272295e-08
1.19578089455e-08
5.14719032257e-09
2.93164767171e-09
2.64915285262e-09
8.58459658646e-09
4.92453843829e-08
1.76620813471e-07
3.42955923417e-07
4.91791330283e-07
6.46307728822e-07
8.31866305245e-07
1.04732994131e-06
1.25626951102e-06
1.4108741443e-06
1.47479311153e-06
1.40021430737e-06
1.2158647617e-06
1.22857315025e-06
3.26627387722e-08
2.79281425974e-08
1.19883940081e-08
5.18613939465e-09
4.03317771392e-09
6.45165257113e-09
5.61588644211e-08
2.12813858144e-07
3.73447924503e-07
5.15045318037e-07
6.56571154052e-07
8.29960942209e-07
1.0389485971e-06
1.23299596231e-06
1.37384506505e-06
1.43871785102e-06
1.39874959632e-06
1.30301950927e-06
1.51016648088e-06
2.12931945145e-06
3.69647036434e-08
3.26781205479e-08
1.62503056507e-08
6.45843642385e-09
4.53668938067e-09
2.29310616684e-08
2.1208560913e-07
4.38173263217e-07
4.64017988017e-07
6.0625916021e-07
7.6098420888e-07
9.38371400596e-07
1.11718435917e-06
1.27824220765e-06
1.39040120919e-06
1.42553129818e-06
1.38658160494e-06
1.43050833544e-06
1.80967773333e-06
2.70959429241e-06
4.2213118111e-08
3.74854855071e-08
2.04446195428e-08
7.36183862792e-09
6.17295274206e-09
1.05045223158e-07
4.30354012266e-07
5.52070506145e-07
5.0263515904e-07
6.46885294779e-07
7.91819148007e-07
9.48118099683e-07
1.10916513104e-06
1.25682865173e-06
1.36918579889e-06
1.42197297468e-06
1.43670672452e-06
1.56933446958e-06
1.98256962587e-06
2.87964042524e-06
4.70263774498e-08
4.33640108811e-08
2.6634166598e-08
9.63818021376e-09
1.71587632096e-08
3.58666036161e-07
9.33412750925e-07
5.5288578507e-07
5.07992004528e-07
6.40787481091e-07
7.62504268281e-07
9.03408875079e-07
1.05355340316e-06
1.19769708539e-06
1.32391837815e-06
1.41008686221e-06
1.47170278018e-06
1.64133409952e-06
2.05608115479e-06
2.92964166426e-06
5.14800664081e-08
4.94854190258e-08
4.1697519618e-08
2.28005217581e-08
4.72268868623e-08
4.70401261524e-07
1.10537214193e-06
5.90316998588e-07
5.02254136677e-07
6.28861186075e-07
7.25318434925e-07
8.50620853297e-07
9.90829294032e-07
1.13533060147e-06
1.27801092277e-06
1.39437304541e-06
1.49092388914e-06
1.68557705848e-06
2.10762524965e-06
2.97190658921e-06
)
;

boundaryField
{
    emptyPatch
    {
        type            empty;
    }
    minY
    {
        type            zeroGradient;
    }
    maxY
    {
        type            calculated;
        value           nonuniform List<scalar> 0();
    }
    maxX
    {
        type            compressible::alphatPhaseChangeJayatillekeWallFunction;
        Prt             0.85;
        Cmu             0.09;
        kappa           0.41;
        E               9.8;
        dmdt            uniform 0;
        value           nonuniform List<scalar> 
38
(
0
0
0
0
0
0
0
0
0
0
0
0
0
0
0
0
0
0
0
0
0
0
0
2.97896297429e-06
4.95977730845e-07
1.47763445999e-07
8.2123385303e-08
6.86329936852e-08
7.47799233847e-08
1.10942620962e-07
1.93755224318e-07
2.52207828855e-07
4.48748033373e-07
2.08696873604e-06
0
0
0
0
)
;
    }
    water_to_heater
    {
        type            compressible::alphatWallBoilingWallFunction;
        phaseType       vapor;
        relax           constant 1;
        partitioningModel
        {
            type            Lavieville;
            alphaCrit       0.2;
        }
        otherPhase      liquid;
        dmdt            nonuniform List<scalar> 0();
        dDep            nonuniform List<scalar> 0();
        qQuenching      nonuniform List<scalar> 0();
        alphatConv      nonuniform List<scalar> 0();
        value           nonuniform List<scalar> 0();
    }
    procBoundary1to0
    {
        type            processor;
        value           nonuniform List<scalar> 
38
(
7.41091903202e-08
8.37524297332e-08
8.43387264215e-08
8.9200231242e-08
1.05463152026e-07
1.0677440667e-07
9.0370817529e-08
5.47741813412e-08
5.60138428058e-08
6.21087561059e-08
7.87554125476e-08
1.46978294474e-07
1.83160114251e-07
1.8142418958e-07
1.63974411488e-07
1.55340944207e-07
1.496587536e-07
1.49670026505e-07
1.32047498518e-07
9.41860080592e-08
7.22936925761e-08
6.86237667678e-08
4.955134995e-08
4.5513416132e-08
4.15078802855e-08
4.09711658593e-08
4.55027374463e-08
1.24901148624e-08
2.19032466084e-08
3.08392521091e-08
3.77756714078e-08
4.94184339246e-08
6.13977689665e-08
6.02931745895e-08
6.00475156789e-08
5.90526229674e-08
6.01492357548e-08
6.01492357548e-08
)
;
    }
    procBoundary1to2
    {
        type            processor;
        value           nonuniform List<scalar> 
20
(
5.54470225768e-08
5.48779770679e-08
6.36287160475e-08
5.19461549678e-08
7.17847295253e-08
5.29421906518e-07
1.1302079591e-06
8.5039655399e-07
4.84589928854e-07
6.10610774517e-07
6.84376865521e-07
7.9561500839e-07
9.29374048279e-07
1.07871262587e-06
1.24020833588e-06
1.38421902026e-06
1.5080737007e-06
1.7181149443e-06
2.14443004844e-06
3.00493123591e-06
)
;
    }
    procBoundary1to3
    {
        type            processor;
        value           uniform 5.11050407974e-08;
    }
}


// ************************************************************************* //
