/*--------------------------------*- C++ -*----------------------------------*\
| =========                 |                                                 |
| \\      /  F ield         | OpenFOAM: The Open Source CFD Toolbox           |
|  \\    /   O peration     | Version:  2312                                  |
|   \\  /    A nd           | Website:  www.openfoam.com                      |
|    \\/     M anipulation  |                                                 |
\*---------------------------------------------------------------------------*/
FoamFile
{
    version     2.0;
    format      ascii;
    arch        "LSB;label=32;scalar=64";
    class       volScalarField;
    location    "0.15/water";
    object      d.gas;
}
// * * * * * * * * * * * * * * * * * * * * * * * * * * * * * * * * * * * * * //

dimensions      [0 1 0 0 0 0 0];

internalField   nonuniform List<scalar> 
750
(
0.00498421836285
0.00498423842837
0.00498425631638
0.00498427154822
0.00498428426289
0.00498429474608
0.00498430343316
0.00498431071774
0.0049843167236
0.00498432137928
0.00498432461688
0.00498432650951
0.00498432731978
0.00498432738806
0.00498432681484
0.00498432529309
0.00498432233947
0.00498431710369
0.0049842887993
0.00498490769983
0.00498490144311
0.00498489491712
0.00498489241073
0.00498489258444
0.00498489449924
0.00498489740675
0.00498490074955
0.00498490412557
0.00498490722368
0.00498490977837
0.00498491165934
0.00498491299666
0.00498491406514
0.00498491503539
0.00498491591932
0.00498491662634
0.00498491709559
0.00498491853535
0.00498550881526
0.00498551002227
0.00498551105889
0.00498551283944
0.00498551520118
0.00498551813427
0.0049855214496
0.00498552500032
0.00498552856962
0.00498553191607
0.00498553487105
0.00498553734114
0.00498553935344
0.00498554100908
0.00498554235772
0.00498554338657
0.00498554408802
0.00498554449469
0.0049855452034
0.00498617027942
0.00498617857069
0.00498618413284
0.00498618826656
0.00498619125641
0.00498619375283
0.00498619617169
0.00498619879105
0.00498620154948
0.00498620422132
0.00498620666728
0.00498620881063
0.00498621063094
0.00498621214031
0.0049862133481
0.00498621426029
0.00498621489381
0.00498621528208
0.00498621575608
0.00498695872346
0.00498692802339
0.00498691449089
0.00498691166071
0.00498691251453
0.00498691409471
0.00498691544159
0.00498691663023
0.00498691785107
0.0049869191124
0.00498692039864
0.00498692163039
0.00498692272965
0.00498692366648
0.00498692443461
0.00498692502021
0.00498692543172
0.00498692569378
0.00498692598388
0.00498772048657
0.00498768630983
0.0049876741767
0.00498766686051
0.00498766075605
0.00498765785332
0.00498765697398
0.004987656632
0.00498765632397
0.00498765603695
0.00498765595524
0.00498765608427
0.00498765632571
0.00498765660552
0.00498765688792
0.00498765713165
0.0049876573338
0.00498765751557
0.00498765770954
0.00498840044215
0.00498841295602
0.00498841156355
0.00498840861187
0.00498840484611
0.00498839875769
0.00498839278482
0.00498838856143
0.00498838601485
0.00498838409767
0.00498838255636
0.00498838138014
0.00498838054868
0.00498838002194
0.00498837974728
0.00498837964994
0.00498837973077
0.00498838003987
0.00498838028333
0.00498922023608
0.0049891939514
0.00498917899603
0.00498916122338
0.00498914517036
0.00498913084255
0.00498911867501
0.00498910920468
0.0049891001147
0.00498909261561
0.0049890865949
0.00498908174427
0.00498907787371
0.00498907494365
0.00498907291346
0.00498907169875
0.00498907140842
0.00498907207001
0.00498907207303
0.00498977499335
0.00498974401598
0.0049897292074
0.00498971949062
0.0049897061768
0.00498969466945
0.0049896855332
0.00498967719826
0.00498967023821
0.00498966347488
0.00498965778467
0.0049896533696
0.00498964996842
0.00498964747088
0.00498964586357
0.00498964523813
0.00498964612272
0.0049896482762
0.00498964580045
0.00499011233859
0.00499010188173
0.0049901008447
0.00499010671685
0.00499010985404
0.00499010732474
0.00499010500351
0.00499010374753
0.00499010142362
0.00499009875278
0.00499009572882
0.00499009309823
0.00499009115023
0.00499008985655
0.00499008941401
0.00499008996344
0.00499009086518
0.00499009177068
0.0049900862127
0.00499044906013
0.00499044454933
0.00499044359414
0.00499044907745
0.00499046105932
0.0049904748682
0.00499048374088
0.00499048673985
0.00499048856548
0.00499049043615
0.00499049124352
0.00499049105162
0.00499049007704
0.0049904887792
0.00499048845673
0.00499049072076
0.00499049126783
0.00499048570993
0.00499048452847
0.00499048103516
0.00499075678505
0.0049907691696
0.00499078396645
0.0049908028743
0.00499082714514
0.0049908550763
0.00499087985537
0.00499089671384
0.00499090880701
0.00499091938455
0.00499092937331
0.00499093883872
0.00499094737747
0.00499095632197
0.00499096892029
0.00499097627425
0.00499097092452
0.00499097295946
0.00499098858602
0.00499098625401
0.00499098812521
0.00499102558536
0.00499106082868
0.00499109522504
0.00499112971853
0.00499116486702
0.00499119911911
0.00499122759985
0.00499124824435
0.00499126413409
0.00499127808103
0.00499129010599
0.00499130170733
0.00499131697191
0.00499131648802
0.00499131352074
0.00499131377656
0.00499131797561
0.00499135309069
0.00499134817708
0.00499130809693
0.00499133678867
0.00499138133533
0.00499141675899
0.00499144614117
0.00499147231551
0.00499149692627
0.00499151910409
0.00499153736183
0.00499155202762
0.00499156482941
0.00499157580715
0.0049915886556
0.00499159652315
0.00499159309943
0.00499159360495
0.00499159781532
0.00499160589917
0.00499165558608
0.00499164917113
0.0049921750564
0.00499213596144
0.00499209637414
0.00499205878402
0.00499202601885
0.0049919985849
0.00499197579886
0.004991957532
0.00499194298488
0.00499193147125
0.00499192286768
0.00499191640626
0.00499191574868
0.00499191695691
0.0049919175198
0.0049919208315
0.00499192806766
0.00499193804791
0.0049920035086
0.00499199528719
0.00499244345741
0.00499242747757
0.00499241826034
0.00499240445345
0.00499238503845
0.00499236735242
0.00499235209418
0.00499233883526
0.00499232743497
0.00499231767905
0.00499230975071
0.00499230440959
0.00499230790489
0.00499230846601
0.00499232223443
0.00499232872275
0.00499233968738
0.00499236751912
0.00499242901675
0.00499241793425
0.00499254297442
0.0049925378779
0.00499254062652
0.00499254927591
0.00499256386366
0.00499258370692
0.00499260376218
0.00499262300119
0.0049926420402
0.00499266133528
0.0049926814873
0.00499270366414
0.00499272497897
0.00499273363234
0.00499274490201
0.00499275357913
0.00499276593367
0.00499280052442
0.00499285885701
0.00499284519411
0.00499260694058
0.00499261236767
0.00499262242372
0.00499264474397
0.00499269402023
0.00499275874362
0.00499282236437
0.00499288408298
0.00499294247349
0.00499299376547
0.00499303675468
0.00499306433128
0.00499307520867
0.00499308268876
0.00499308632937
0.00499309344491
0.00499310369465
0.0049931216198
0.00499317639037
0.00499316301745
0.00499241242992
0.00499249912021
0.00499255983188
0.00499263201744
0.00499274741969
0.0049928742277
0.00499297748604
0.00499305482926
0.00499311866257
0.00499317778994
0.00499322676351
0.00499325232207
0.00499325881242
0.00499326082147
0.0049932640705
0.00499326897643
0.00499327546895
0.00499328219839
0.00499331157527
0.00499330359509
0.00499309032268
0.00499316199231
0.0049932061778
0.00499324409525
0.00499328301216
0.00499332276946
0.00499335402169
0.00499337044423
0.00499336899902
0.00499336678016
0.00499336950627
0.00499337352989
0.00499337429141
0.00499337477026
0.00499337557337
0.0049933775339
0.00499338084844
0.00499338873251
0.00499340553752
0.00499340242577
0.00499484705898
0.00499470780803
0.0049946015879
0.00499451386455
0.00499442603441
0.00499433494192
0.00499427144065
0.00499423876685
0.0049941666824
0.0049940710875
0.0049939991473
0.00499394839509
0.00499392513424
0.00499391465697
0.0049939094508
0.00499390737623
0.00499390894199
0.00499391526232
0.00499393037437
0.00499393746385
0.00499608625647
0.00499586345289
0.00499567979148
0.00499552716797
0.00499539011222
0.004995258849
0.0049951391024
0.00499507973101
0.00499505826431
0.00499498628047
0.00499492648803
0.00499488277805
0.00499485052914
0.00499483120126
0.00499481886109
0.00499481136288
0.00499480901364
0.00499481313816
0.00499482863211
0.00499484438601
0.00499688836923
0.00499673907973
0.00499660490913
0.00499648633802
0.00499638047423
0.00499628759182
0.00499621340329
0.00499618914524
0.00499620716617
0.00499622744876
0.00499617403147
0.00499612621501
0.00499608804358
0.00499605794876
0.00499603647846
0.00499602137911
0.00499601155955
0.00499600767585
0.00499601089394
0.00499601188549
0.00499704107972
0.00499704219129
0.0049970600169
0.00499707702191
0.00499710148953
0.00499713368745
0.00499719664945
0.00499721626383
0.00499722604404
0.00499722644592
0.00499722500616
0.00499719116187
0.00499714786627
0.00499710617683
0.00499707184208
0.00499704477311
0.00499702370964
0.00499700877712
0.00499699896403
0.00499699045158
0.00499704473619
0.00499707369884
0.00499711523249
0.00499715428647
0.00499719101356
0.00499723250798
0.00499730670908
0.00499729165644
0.00499729154843
0.00499729164655
0.0049972918995
0.0049972872373
0.0049972764933
0.00499726695275
0.00499726003018
0.00499725475308
0.00499725043046
0.00499724787905
0.00499724630506
0.00499724183091
0.00499711366179
0.00499713682266
0.00499717524994
0.00499721263848
0.00499725220249
0.00499729709609
0.00499735649521
0.00499733663253
0.00499733678363
0.00499733689187
0.00499733687809
0.00499733727158
0.00499732932132
0.00499732296586
0.00499732167887
0.00499732170855
0.00499732162895
0.00499732235091
0.00499732333589
0.0049973211778
0.0049971434383
0.00499716927995
0.0049972095997
0.00499725510053
0.00499729910732
0.00499735066621
0.00499740687081
0.00499739001962
0.00499739019431
0.0049973902839
0.00499739028647
0.00499739140639
0.00499738622578
0.00499738028438
0.00499737961733
0.00499738050759
0.00499738128103
0.00499738268707
0.00499738446412
0.0049973828282
0.00499716994161
0.00499720876861
0.00499726005177
0.00499730895732
0.00499736054962
0.00499742958516
0.00499746563311
0.00499745065561
0.00499745075082
0.00499745079027
0.00499745075739
0.00499745244418
0.00499745226172
0.0049974457879
0.00499744165423
0.00499744165825
0.004997442927
0.00499744472941
0.00499744730929
0.00499744597635
0.00499719085398
0.00499725411332
0.00499733666689
0.0049974150152
0.00499750373104
0.00499755855318
0.0049975189745
0.00499751851182
0.00499751793685
0.00499751732363
0.00499751677919
0.00499751794401
0.00499752730655
0.00499751938906
0.00499750085672
0.00499749317521
0.0049974923872
0.00499749364135
0.00499749663359
0.00499749479446
0.00499729565007
0.00499734172012
0.00499746659452
0.00499761452078
0.00499761168077
0.00499758522997
0.00499758449276
0.00499758324028
0.00499758232607
0.00499758185835
0.00499758160556
0.00499758323803
0.00499759115663
0.00499759165979
0.0049975613594
0.00499752506412
0.00499749944493
0.00499748457726
0.00499748035301
0.00499747206923
0.0049978079791
0.00499776988014
0.00499779946708
0.00499771252969
0.00499768009058
0.00499767903011
0.00499767874883
0.00499767765077
0.00499767846426
0.00499767702825
0.00499767227174
0.00499766692524
0.00499766198043
0.00499765853386
0.00499765276604
0.00499764549341
0.00499763694274
0.00499760905633
0.00499755593499
0.00499749612587
0.00499904203164
0.00499892535654
0.00499883398309
0.00499875900977
0.00499868606298
0.00499863209303
0.0049985969246
0.00499858238246
0.00499858836448
0.00499861219864
0.00499864673916
0.00499868686684
0.00499873012832
0.00499877270572
0.00499881100392
0.00499884514224
0.00499887931236
0.00499891718232
0.00499895030327
0.00499889004878
0.00499948865625
0.00499948865389
0.00499948842633
0.00499948814136
0.00499944982275
0.00499940625207
0.00499937583979
0.00499937122487
0.0049993894652
0.00499942848849
0.00499948276374
0.00499953061876
0.00499955803804
0.00499956634083
0.00499956636572
0.00499956633819
0.0049995662901
0.00499956629349
0.00499956635146
0.00499957831939
0.00499951332437
0.00499951323325
0.00499951314995
0.00499951293897
0.00499950158675
0.00499949727161
0.00499949759242
0.00499950908871
0.0049995340045
0.00499956896857
0.00499958329966
0.00499958618564
0.00499958615992
0.00499958609132
0.00499958602211
0.00499958596315
0.00499958591866
0.00499958588854
0.00499958587921
0.00499958590961
0.00499953040158
0.004999530395
0.00499953036381
0.0049995277201
0.00499952841044
0.0049995326031
0.00499954427141
0.00499956529153
0.00499959581147
0.00499960180384
0.00499959867543
0.00499959863426
0.00499959859663
0.00499959856723
0.00499959854121
0.00499959851697
0.0049995984962
0.0049995984837
0.00499959848035
0.00499959848264
0.0049995455781
0.0049995455648
0.00499954552272
0.00499954774176
0.00499955366485
0.00499956006379
0.00499957594501
0.00499959938571
0.00499961859218
0.0049996092851
0.00499960924291
0.00499960921946
0.00499960920791
0.00499960919951
0.00499960919371
0.00499960918933
0.00499960918574
0.0049996091829
0.00499960918147
0.00499960918223
0.0049995599122
0.00499955991277
0.00499955988812
0.00499957576041
0.00499958058836
0.00499958530382
0.0049995998693
0.00499962119882
0.00499962614699
0.00499961877268
0.00499961877254
0.00499961878275
0.00499961879413
0.00499961880439
0.0049996188131
0.00499961882064
0.00499961882657
0.00499961883066
0.00499961883254
0.00499961883359
0.00499957327317
0.00499957329622
0.00499957333085
0.00499960213763
0.00499959909751
0.00499960023949
0.00499961304825
0.00499963253919
0.00499963542504
0.00499962833656
0.00499962833693
0.00499962834571
0.00499962835527
0.00499962836346
0.00499962837029
0.00499962837575
0.00499962838048
0.00499962838416
0.00499962838613
0.00499962838756
)
;

boundaryField
{
    emptyPatch
    {
        type            empty;
    }
    minY
    {
        type            calculated;
        value           nonuniform List<scalar> 
19
(
0.00498402277442
0.00498403610131
0.00498404937055
0.00498406150289
0.00498407218252
0.00498408135936
0.00498408923811
0.0049840960441
0.00498410177901
0.00498410628604
0.00498410944294
0.00498411129198
0.00498411207992
0.00498411213723
0.00498411155967
0.00498411003323
0.00498410707942
0.00498410184454
0.00498407354504
)
;
    }
    maxY
    {
        type            calculated;
        value           nonuniform List<scalar> 0();
    }
    maxX
    {
        type            calculated;
        value           nonuniform List<scalar> 
38
(
0.0049842887993
0.00498491853535
0.0049855452034
0.00498621575608
0.00498692598388
0.00498765770954
0.00498838028333
0.00498907207303
0.00498964580045
0.0049900862127
0.00499048103516
0.00499098625401
0.00499134817708
0.00499164917113
0.00499199528719
0.00499241793425
0.00499284519411
0.00499316301745
0.00499330359509
0.00499340242577
0.00499393746385
0.00499484438601
0.00499601188549
0.00499699045158
0.00499724183091
0.0049973211778
0.0049973828282
0.00499744597635
0.00499749479446
0.00499747206923
0.00499749612587
0.00499889004879
0.0049995783194
0.00499958590961
0.00499959848264
0.00499960918223
0.00499961883359
0.00499962838756
)
;
    }
    water_to_heater
    {
        type            calculated;
        value           nonuniform List<scalar> 0();
    }
    procBoundary1to0
    {
        type            processor;
        value           nonuniform List<scalar> 
38
(
0.0049904523143
0.00499073628803
0.00499095404518
0.00499127544658
0.00499221068847
0.00499244624201
0.00499254401444
0.00499260301441
0.00499234208096
0.00499303661742
0.00499496348685
0.00499631021176
0.0049968950429
0.00499705130864
0.00499709336368
0.00499713599246
0.0049971573645
0.00499717938478
0.00499723309009
0.00499726234722
0.00499784813814
0.00499911105121
0.00499948893779
0.00499951333948
0.00499953037979
0.00499954556296
0.00499955991177
0.00498419302087
0.00498491375436
0.00498550743724
0.00498616941221
0.00498702115118
0.00498775540746
0.0049883940134
0.00498926410473
0.00498981840881
0.00499012810701
0.00499012810701
)
;
    }
    procBoundary1to2
    {
        type            processor;
        value           nonuniform List<scalar> 
20
(
0.00499958526981
0.0049995852922
0.00499958536227
0.0049996218068
0.00499961258469
0.00499961174248
0.00499962337202
0.00499964290764
0.00499964890159
0.00499963775782
0.00499963776188
0.00499963777559
0.00499963778946
0.00499963780062
0.00499963780905
0.0049996378154
0.00499963782013
0.00499963782381
0.00499963782643
0.00499963782814
)
;
    }
    procBoundary1to3
    {
        type            processor;
        value           uniform 0.00499957328014;
    }
}


// ************************************************************************* //
