/*--------------------------------*- C++ -*----------------------------------*\
| =========                 |                                                 |
| \\      /  F ield         | OpenFOAM: The Open Source CFD Toolbox           |
|  \\    /   O peration     | Version:  2312                                  |
|   \\  /    A nd           | Website:  www.openfoam.com                      |
|    \\/     M anipulation  |                                                 |
\*---------------------------------------------------------------------------*/
FoamFile
{
    version     2.0;
    format      ascii;
    arch        "LSB;label=32;scalar=64";
    class       volScalarField;
    location    "0.15/water";
    object      T.gas;
}
// * * * * * * * * * * * * * * * * * * * * * * * * * * * * * * * * * * * * * //

dimensions      [0 0 0 1 0 0 0];

internalField   nonuniform List<scalar> 
750
(
306.823592544
302.507737907
300.92965457
300.346341331
300.129853787
300.049131516
300.018756614
300.007277372
300.002910975
300.001111232
300.000333653
300.000068937
300.000008259
300.000000471
300
300
300
300
300
305.609617344
301.914209093
300.630366308
300.206480458
300.068127821
300.022656818
300.007612776
300.00259468
300.000899352
300.000315615
300.000110669
300.000037773
300.000011868
300.000002648
300
300
300
300
300
304.190856284
301.31456834
300.402542831
300.122117552
300.03708613
300.011307202
300.003457267
300.001059916
300.000324291
300.000099649
300.000030215
300.000008332
300.000001388
300
300
300
300
300
300.000000047
303.381872957
301.020434015
300.303951933
300.089324492
300.026069617
300.007532186
300.00214186
300.000596901
300.000161799
300.000042944
300.000010454
300.000001576
300
300
300
300
300
300.000000383
300.000000131
307.162753135
302.393757721
300.760262267
300.226851035
300.063785847
300.017103813
300.004404749
300.001098217
300.000266514
300.000062998
300.000013863
300.000002157
300
300
300
300
300.000000069
300.000000477
300
307.050258332
302.36305196
300.790899006
300.262620232
300.085267283
300.026112583
300.007403885
300.001958046
300.000491386
300.000118967
300.000027866
300.000005996
300.000000857
300
300
300.00000009
300.000000259
300.000000485
300
304.099782508
301.415926968
300.511461233
300.181160096
300.0632696
300.021602305
300.007053332
300.002158689
300.000612361
300.000163922
300.000042511
300.000010857
300.000002703
300.000000683
300.000000309
300.000000404
300.00000049
300.000000533
300
301.428124061
300.541978925
300.213066338
300.083168902
300.031066896
300.011249061
300.003960285
300.001339867
300.000431072
300.000130827
300.000038214
300.000011073
300.000003343
300.000001206
300.000000692
300.000000656
300.000000597
300.000000482
300
300.538440033
300.188388648
300.074121199
300.031394264
300.012789199
300.004935244
300.001835791
300.00066493
300.000233729
300.000079513
300.000026621
300.000009076
300.000003395
300.000001546
300.000000961
300.000000786
300.000000546
300.000000266
300
300.362152431
300.105351104
300.032753648
300.012398368
300.005274335
300.002190863
300.000869668
300.000336354
300.000127705
300.000047972
300.00001851
300.000007723
300.000003595
300.000001904
300.000001147
300.000000622
300.000000129
300
300
301.554518153
300.369270829
300.107847648
300.029817447
300.008410679
300.002766508
300.001083373
300.000440621
300.000179894
300.000073091
300.000029754
300.00001265
300.000006077
300.000003332
300.000001858
300.000000569
300
300
300
300
302.348250928
300.435778352
300.140006435
300.045557554
300.014036708
300.004353888
300.001397624
300.000467564
300.000171224
300.00006792
300.000028617
300.000013046
300.000006751
300.000003611
300.000000783
300
300
300
300
300
310.18962423
300.75042148
300.202456037
300.074390484
300.027614931
300.010576183
300.004093578
300.001602602
300.000629555
300.000243431
300.000093217
300.000037445
300.00001624
300.000005534
300
300
300
300
300
300
318.913914944
305.798807683
300.721794418
300.155020983
300.055499591
300.022173493
300.009542961
300.004164362
300.001832917
300.0007987
300.000336076
300.000135817
300.000051032
300.000011543
300
300
300
300
300
300
318.554312943
305.185787807
301.278183461
300.233555771
300.081279579
300.035050801
300.01528661
300.006718216
300.003044309
300.001387595
300.00061833
300.000268853
300.000103853
300.00002166
300
300
300
300
300
300
319.671704864
305.744625183
301.62992717
300.577649323
300.151701087
300.052115552
300.021339145
300.009342999
300.004232836
300.00191484
300.000849923
300.00035675
300.000110814
300.000010506
300
300
300
300.000000201
300
300
317.548590762
305.344503595
301.529747123
300.577823051
300.255486388
300.075975182
300.025963024
300.010123568
300.004284255
300.001844848
300.000717971
300.000249239
300.000072727
300.000006476
300
300
300
300
300.000001469
300.000001267
307.102697284
301.976039551
300.596637423
300.269425086
300.128716799
300.04099175
300.015107511
300.005691116
300.002299815
300.000976798
300.000410033
300.000193591
300.000142629
300.000017953
300.000062781
300.000082443
300.000075688
300.00003674
300.000024265
300.00001372
302.298862805
300.714299578
300.283465825
300.137150129
300.06171932
300.020303301
300.00827515
300.003849409
300.001787834
300.000821905
300.000408296
300.000273331
300.000212718
300.000135632
300.000159193
300.000170191
300.000163897
300.000118826
300.00006512
300.000035341
301.312867883
300.456047914
300.201943124
300.101831137
300.044604397
300.0163903
300.008215672
300.004269492
300.002064752
300.00094226
300.00046373
300.000321554
300.000267715
300.000229855
300.000227077
300.000221684
300.000201759
300.000146263
300.000089713
300.000054677
301.383974427
300.466223018
300.191004387
300.09220691
300.044777513
300.019758214
300.009573976
300.00549449
300.003175296
300.001381131
300.000578345
300.00036257
300.000285365
300.000252242
300.000230119
300.000207925
300.000179995
300.000140706
300.000104476
300.000065356
302.736778973
300.648363209
300.24498143
300.109024003
300.052637129
300.026252902
300.013086643
300.007331994
300.004561502
300.002105083
300.0008672
300.0004694
300.000336877
300.000272388
300.000228986
300.000195608
300.000168632
300.000144088
300.00011973
300.000076898
318.635802618
302.006740408
300.495885982
300.185210404
300.079687984
300.038470763
300.019337979
300.00989396
300.005402626
300.00262864
300.001374008
300.000716059
300.000452959
300.000338491
300.000270244
300.000220883
300.000183913
300.000155575
300.000126722
300.000087106
328.190867482
305.05464586
300.956886464
300.270445109
300.098019541
300.04073119
300.016232393
300.008581394
300.005247142
300.003410887
300.002110946
300.001283237
300.000793014
300.000558474
300.000429232
300.000344857
300.000281973
300.000230883
300.000166094
300.00010953
324.320242601
305.993765189
301.254484591
300.346801328
300.118125336
300.042570045
300.015929905
300.009035035
300.006272632
300.004377509
300.00334091
300.002590673
300.001934599
300.001511128
300.001191243
300.000973535
300.000816148
300.000691536
300.00052761
300.000372411
318.167682197
305.746797501
301.427723928
300.465777608
300.182841284
300.067793797
300.023851793
300.012581325
300.009187985
300.007286623
300.006093904
300.005868502
300.004739491
300.003887791
300.003092189
300.002528406
300.002130058
300.001827318
300.001482644
300.001039168
313.296884024
303.408517449
301.252180081
300.592011963
300.297703213
300.12920065
300.040275082
300.019842186
300.014904224
300.012545644
300.011185149
300.010623068
300.008620772
300.006989479
300.005473126
300.004503458
300.003821942
300.003298426
300.002765259
300.001946296
310.906663603
302.438028203
300.990072422
300.568825328
300.337224632
300.145625298
300.051288826
300.027675174
300.021582109
300.018573206
300.016643721
300.015085946
300.012017378
300.009706076
300.007362771
300.005992069
300.005089621
300.004421372
300.003778065
300.00267789
313.579020403
302.415510769
300.854626151
300.462372445
300.253924777
300.12000504
300.053059279
300.033839044
300.028576594
300.025431666
300.022997599
300.020324195
300.01606788
300.012710342
300.009468615
300.00735638
300.006082669
300.00520936
300.004463316
300.003192855
321.601179283
305.457368249
301.501534599
300.489986313
300.230871241
300.107182975
300.06389045
300.049008035
300.043059416
300.038496332
300.032746937
300.026792024
300.020676693
300.015833479
300.012042759
300.009240396
300.007343531
300.005951831
300.004930416
300.003541303
322.870455927
307.667816149
302.070634224
300.499927196
300.247266596
300.158403732
300.106499583
300.081679634
300.066877834
300.053684572
300.042169936
300.032888846
300.02550998
300.019737502
300.015031488
300.010985353
300.008014815
300.00603394
300.004669776
300.003210002
319.909720504
305.284740842
301.077578932
300.561602622
300.383260285
300.271682854
300.177557151
300.122985231
300.088804095
300.064412131
300.047148865
300.035060086
300.026322968
300.020034701
300.01511828
300.011047577
300.007629491
300.0048386
300.002985312
300.001904954
314.144445879
303.922262733
301.358262209
300.824001375
300.599429415
300.413060316
300.261966947
300.162273841
300.102158587
300.064939754
300.041432478
300.028207678
300.019571065
300.013321248
300.009086832
300.006397733
300.004443002
300.002804591
300.001534425
300.000677892
315.718778161
304.997039271
301.876232567
301.03385659
300.704736613
300.457713925
300.272863187
300.157863533
300.086884027
300.046120356
300.028537385
300.017593052
300.010569625
300.006713029
300.004502831
300.00314848
300.002165765
300.001324586
300.000650385
300.000184645
321.094892886
306.755844419
302.346795964
301.170731817
300.701161374
300.410445547
300.219382141
300.107650486
300.047246313
300.027610139
300.016295112
300.009200572
300.005391584
300.003345713
300.002199177
300.00150106
300.001003796
300.000604596
300.000297213
300.000056952
326.353302761
308.477455196
302.619761035
301.189382632
300.705151941
300.33783703
300.144472432
300.049824244
300.025675865
300.015961071
300.009166591
300.005068092
300.00291423
300.001776146
300.001145142
300.000763179
300.000501297
300.000307001
300.000165912
300.000066283
329.852816762
310.160542819
303.127025
301.376047651
300.882936511
300.271994791
300.088804772
300.024772594
300.01524855
300.009898284
300.005757264
300.003179187
300.001795666
300.001071374
300.000677299
300.000444078
300.000291461
300.000185495
300.000110301
300.000050255
331.638104214
311.888738826
304.188564725
301.776492234
301.014333134
300.206763501
300.058935844
300.015152326
300.009892325
300.006650534
300.003961034
300.002223187
300.001259655
300.000745974
300.000465525
300.000302636
300.000200637
300.000133465
300.000085983
300.000042426
)
;

boundaryField
{
    emptyPatch
    {
        type            empty;
    }
    minY
    {
        type            fixedValue;
        value           uniform 300;
    }
    maxY
    {
        type            inletOutlet;
        inletValue      nonuniform List<scalar> 0();
        value           nonuniform List<scalar> 0();
    }
    maxX
    {
        type            fixedValue;
        value           uniform 300;
    }
    water_to_heater
    {
        type            copiedFixedValue;
        sourceFieldName T.liquid;
        value           nonuniform List<scalar> 0();
    }
    procBoundary1to0
    {
        type            processor;
        value           nonuniform List<scalar> 
38
(
313.739020809
325.587713694
336.419076296
352.781341069
355.412699171
354.343007157
348.861613689
321.169557939
306.303553951
302.848856259
303.755045992
317.783920867
351.058899433
362.106722408
362.106723557
358.547782453
351.044533142
345.874286623
345.95813215
358.261156097
357.861493614
348.879249745
332.551166184
335.329259758
349.883532959
363.483891195
372.27699045
318.565234569
316.509499389
312.929696472
311.103106849
320.451046525
321.99247355
313.138851035
304.631917795
301.725000515
301.223001056
301.223001056
)
;
    }
    procBoundary1to2
    {
        type            processor;
        value           nonuniform List<scalar> 
20
(
332.194063684
313.202401199
305.350682337
302.099546854
301.101728523
300.170168131
300.047628986
300.011632862
300.008002523
300.005274098
300.003172932
300.001804857
300.001028862
300.000607281
300.000376053
300.000243991
300.000164434
300.000114035
300.00007811
300.000040758
)
;
    }
    procBoundary1to3
    {
        type            processor;
        value           uniform 377.120261036;
    }
}


// ************************************************************************* //
