/*--------------------------------*- C++ -*----------------------------------*\
| =========                 |                                                 |
| \\      /  F ield         | OpenFOAM: The Open Source CFD Toolbox           |
|  \\    /   O peration     | Version:  2312                                  |
|   \\  /    A nd           | Website:  www.openfoam.com                      |
|    \\/     M anipulation  |                                                 |
\*---------------------------------------------------------------------------*/
FoamFile
{
    version     2.0;
    format      ascii;
    arch        "LSB;label=32;scalar=64";
    class       volScalarField;
    location    "0.24/water";
    object      p_rgh;
}
// * * * * * * * * * * * * * * * * * * * * * * * * * * * * * * * * * * * * * //

dimensions      [1 -1 -2 0 0 0 0];

internalField   nonuniform List<scalar> 
1497
(
102083.934347
102081.905759
102073.096487
102051.739839
102035.698852
102034.358996
102041.613102
102047.53854
102051.155806
102049.196878
102043.425008
101973.415486
101854.508353
101678.081854
101996.55871
102046.476004
102073.982229
102085.077547
102081.240614
102074.258079
102057.582251
102033.516789
102009.823716
101999.354568
102006.244709
102020.209855
102030.640676
102036.488861
102038.204425
102035.497698
102031.833894
101990.097639
101867.19346
101669.227257
101824.651994
101883.517385
101921.32722
101948.951098
101954.728639
101938.15538
101914.576947
101902.152658
101912.384375
101939.769928
101970.271652
101994.530507
102010.384831
102017.616999
102019.238049
102018.398589
102017.152793
102007.954978
101898.457773
101520.333072
101514.823125
101565.025191
101615.606926
101657.181318
101675.424205
101680.66456
101694.731459
101730.907841
101786.799121
101849.049636
101907.213094
101952.464333
101980.656558
101993.910939
101998.905196
102000.982667
102002.276907
102003.323444
101951.896507
101378.399246
101341.371326
101371.903951
101404.632811
101433.869301
101454.485996
101480.050666
101521.911596
101583.972666
101657.959078
101735.168444
101814.670511
101890.642064
101948.350761
101975.077106
101983.383956
101987.522201
101991.356229
101994.082292
101993.206806
101292.778879
101302.872026
101325.396454
101342.143483
101356.728188
101371.793319
101396.580883
101439.466374
101504.976794
101582.729873
101661.420135
101744.013792
101833.332433
101918.844132
101965.520872
101975.701294
101980.891966
101985.127016
101989.482192
101992.671638
101285.930863
101302.646462
101320.015227
101330.301884
101337.836395
101349.020522
101371.144728
101412.08446
101478.570944
101559.490647
101641.107969
101725.02728
101816.125165
101908.848673
101964.906396
101974.915607
101979.530239
101984.243576
101987.955232
101992.327734
101287.065385
101305.125404
101320.329532
101326.714553
101330.058365
101339.023841
101360.2827
101402.045832
101470.799721
101556.158784
101642.476789
101729.202591
101822.545913
101916.097228
101970.220538
101978.152025
101982.185431
101985.940382
101990.276558
101993.352822
101292.875722
101310.054527
101322.27271
101325.623527
101326.002862
101332.99086
101353.591759
101396.683706
101467.462071
101558.190247
101652.117303
101746.641762
101846.069787
101938.589067
101979.847155
101983.765155
101986.972373
101990.544556
101993.536017
101997.511784
101294.482525
101315.176246
101325.610963
101326.482934
101326.704014
101330.900265
101350.106036
101393.66176
101465.092561
101559.428838
101663.105983
101768.861747
101876.038669
101963.733864
101988.116023
101990.521413
101993.299572
101995.88578
101999.100812
102001.441828
101296.220819
101322.125328
101330.915583
101329.380944
101328.868942
101331.87783
101350.367894
101393.914891
101464.995011
101560.31076
101669.341934
101783.787472
101897.176118
101980.03663
101996.052315
101998.106239
102000.09579
102002.584185
102004.516928
102007.405873
101298.197843
101335.443145
101340.747783
101336.394631
101332.320038
101335.299465
101353.857705
101397.874463
101469.364242
101565.218787
101676.961879
101796.652072
101913.772333
101992.819505
102004.511679
102005.90337
102007.83794
102009.182821
102011.361132
102012.612649
101300.048205
101359.680123
101358.534279
101350.67468
101342.29851
101345.063369
101364.026975
101409.015363
101481.094458
101577.32217
101691.12352
101814.290051
101933.159209
102006.016995
102013.072668
102014.323562
102015.145598
102016.753053
102017.362151
102019.170823
101303.248865
101392.46312
101384.129778
101374.467241
101364.465869
101367.811652
101388.684601
101435.313128
101508.273836
101604.480411
101718.753681
101843.546183
101960.850852
102019.685321
102021.70354
102022.096142
102023.142499
102023.142508
102024.309073
102023.957639
101325.992551
101418.257397
101412.85398
101407.813566
101402.543432
101409.619137
101434.728346
101483.617339
101556.916138
101652.595351
101766.643522
101890.998351
101998.411998
102030.093601
102029.689168
102030.074985
102029.65891
102030.26535
102029.220298
102009.958361
101356.408744
101434.546089
101441.102294
101448.923884
101457.015654
101474.441501
101506.536634
101558.209206
101631.752562
101726.920138
101840.410176
101958.63041
102033.033611
102037.501306
102037.112718
102036.268925
102036.318467
102033.899227
102009.269388
102004.048917
101370.008427
101446.826145
101472.676492
101499.161862
101528.412344
101563.920018
101607.367396
101663.873144
101738.644332
101833.139925
101940.637727
102028.120916
102045.056407
102043.816322
102042.514886
102042.019163
102035.993257
102008.074036
101999.810047
102006.387443
101370.75566
101473.536234
101515.297286
101563.349107
101617.289146
101675.331653
101734.98093
101801.432807
101879.229045
101965.228087
102034.787777
102051.438135
102049.579904
102047.943279
102047.020723
102034.261219
102003.787469
101996.806258
102001.146583
102014.299306
101371.581139
101532.975965
101578.09273
101644.966864
101720.37613
101799.430179
101879.212888
101957.961809
102021.01346
102053.316312
102055.873524
102054.082769
102052.121207
102051.001206
102029.205549
101995.972725
101992.91752
101996.695803
102007.813886
102021.954289
101372.075526
101633.059435
101669.99384
101744.82385
101831.169365
101921.101988
102011.461996
102058.708139
102061.549852
102058.948238
102057.660363
102055.033525
102053.906299
102025.51812
101985.131073
101982.829176
101991.651991
102002.7489
102015.74581
102023.245925
101380.459357
101748.654819
101784.015804
101852.267696
101933.298564
102016.877309
102067.267172
102064.335606
102061.520457
102060.519803
102056.623004
102055.656115
102025.456012
101968.572161
101969.629482
101983.670371
101997.870163
102009.620157
102017.069361
102019.709088
101438.812139
101837.275778
101868.473224
101918.215827
101985.448343
102053.946223
102065.062947
102061.557588
102060.83161
102055.175365
102053.930468
102013.258168
101951.69074
101947.058998
101967.380276
101988.418162
102001.544122
102008.435554
102011.932423
102012.623025
101529.114172
101829.960404
101857.034808
101903.435737
101971.19925
102036.959849
102050.337773
102048.36257
102040.98518
102011.927662
101963.172039
101910.997753
101903.853581
101931.437239
101961.941718
101984.147127
101994.798591
101999.579692
102002.014516
102002.244682
101529.240336
101693.422253
101727.585614
101781.122584
101854.389417
101913.044135
101932.464997
101918.610404
101878.766212
101828.136241
101793.058196
101805.470166
101851.999161
101900.496408
101937.756729
101964.871993
101979.37255
101985.254616
101988.297853
101989.252457
101396.602488
101399.628807
101445.863495
101500.154635
101558.950053
101594.972536
101608.992279
101602.485945
101588.598606
101585.961901
101614.372343
101677.109095
101755.738916
101832.187557
101894.98318
101938.198757
101960.030349
101968.941261
101973.38294
101975.701292
101231.636569
101182.763433
101241.20724
101279.653308
101306.046743
101318.288724
101327.079524
101341.144983
101370.361722
101413.854333
101470.540952
101540.742587
101627.165039
101728.837744
101830.670842
101907.671292
101943.773511
101955.500179
101960.962451
101964.50952
101101.948485
101124.059809
101182.500142
101218.895242
101238.439124
101247.33836
101253.687225
101266.518474
101296.457305
101342.532878
101398.665717
101465.40601
101550.091645
101656.653374
101776.270066
101882.257607
101935.707822
101948.42086
101953.57346
101957.441616
101071.649522
101125.408614
101177.605143
101216.630815
101241.436419
101254.916364
101263.143737
101272.496962
101296.363465
101337.676817
101390.491027
101456.010044
101539.905885
101645.219015
101765.448662
101877.405798
101936.262021
101947.124441
101950.856524
101953.506102
101071.126257
101137.44462
101181.057246
101217.538706
101250.961987
101288.008239
101314.504086
101320.704048
101332.071307
101365.790121
101414.291845
101478.679096
101562.32812
101666.544983
101784.773384
101892.176361
101945.757146
101949.924845
101948.540717
101944.091877
101090.724098
101163.742368
101190.878126
101217.044069
101251.234798
101318.662491
101396.750349
101425.531639
101431.839106
101454.291792
101495.606528
101557.750384
101640.005066
101739.992836
101848.60556
101935.552477
101963.233583
101954.060812
101935.219134
101923.497886
101152.967913
101195.098671
101199.468314
101211.180998
101242.502747
101309.236501
101417.502792
101519.564764
101565.087625
101590.662688
101627.983233
101686.070813
101762.7503
101851.164327
101936.645056
101983.863155
101982.247582
101949.788591
101910.541311
101901.865042
101231.163283
101218.48934
101200.815477
101201.742096
101223.924856
101281.590772
101396.018764
101519.923799
101626.974676
101711.610223
101770.864215
101828.181406
101892.192054
101956.674846
102002.789462
102011.641786
101992.167157
101934.238205
101889.193947
101890.002732
101277.345218
101226.554493
101202.012591
101201.50288
101207.628521
101246.98635
101346.37912
101486.275822
101617.644422
101730.020729
101838.330561
101927.330632
101985.122676
102018.734787
102029.042253
102025.144158
101994.54872
101919.435276
101879.901612
101886.835955
101282.605002
101231.382983
101203.433803
101203.947257
101204.061741
101225.487314
101297.844043
101428.249163
101579.084294
101717.624924
101839.554222
101943.403352
102016.762581
102039.81888
102040.512248
102033.393904
101994.229909
101910.600825
101877.835446
101889.066087
101285.245957
101237.582088
101205.729103
101205.865559
101206.337412
101220.086219
101275.801251
101384.380725
101529.33826
101681.807429
101822.827291
101942.863836
102024.02223
102051.142813
102050.98872
102041.502402
101993.185893
101903.474747
101878.604734
101894.326728
101281.963034
101247.479845
101212.41616
101208.349011
101208.270407
101222.577918
101276.20527
101373.419229
101504.923038
101654.031828
101803.660027
101936.928758
102030.222207
102063.099111
102062.650554
102048.899509
101986.153392
101892.214055
101880.062225
101904.470894
101280.447863
101261.930407
101226.719984
101213.316696
101212.939211
101230.161248
101284.048254
101379.710085
101508.853976
101656.181512
101806.961272
101943.274249
102040.797357
102076.55492
102074.141045
102049.976684
101960.37749
101875.822607
101880.961958
101921.799996
101283.576883
101278.984051
101249.179887
101230.632008
101230.528827
101252.64427
101309.024155
101402.985815
101528.872655
101675.056115
101826.076621
101963.216385
102062.365902
102087.912985
102080.54956
102030.309072
101905.573213
101865.632198
101886.800399
101945.979935
101834.977588
101834.244942
101830.191402
101831.098435
101829.27706
101888.109169
102022.112619
102133.490327
102188.056081
102206.612539
102210.442227
102210.434296
102207.238278
102202.160126
102203.35599
102210.919163
102211.735169
102211.764173
102211.748355
102211.611018
101822.098256
101817.906788
101817.939489
101814.25674
101814.666752
101861.07478
101982.111369
102097.890107
102164.325152
102190.446943
102193.714575
102191.019136
102180.915646
102082.77664
102019.53056
102155.810091
102194.511978
102199.085863
102199.569466
102199.563442
101808.082051
101807.046064
101803.345259
101803.80498
101801.229424
101809.070903
101885.293265
101992.45756
102084.439261
102121.842006
102114.098974
102123.798056
102106.068372
101770.826229
101570.497849
101807.866893
102080.454217
102182.463851
102190.574586
102190.887386
101807.099414
101796.030079
101796.425438
101793.856212
101794.692983
101793.076272
101795.649379
101834.509659
101886.203937
101888.871899
101904.349877
101986.305986
101800.530251
101564.557825
101562.222743
101578.454765
101749.648781
102096.851858
102190.491761
102191.370172
101844.832971
101790.536052
101789.515373
101790.968185
101789.710632
101791.12234
101790.129834
101790.959333
101790.366338
101794.380331
101873.656487
101825.602581
101562.461459
101558.726046
101563.511623
101563.164604
101703.940792
101979.447676
102191.00406
102197.263851
101916.638128
101799.110468
101787.429782
101787.25089
101789.139757
101788.701742
101790.396789
101789.886884
101791.210245
101812.637329
101874.741564
101653.00588
101556.4774
101561.435637
101559.773879
101587.052551
101749.318479
101975.251962
102193.007717
102203.651386
101973.733032
101844.4064
101785.051242
101786.734359
101786.988742
101788.853888
101788.673306
101790.378788
101790.733385
101845.131795
101819.964803
101555.379957
101558.59919
101555.25436
101559.415193
101631.049155
101799.1246
102034.177381
102203.366004
102209.431684
101997.09692
101904.484192
101796.389837
101785.573544
101787.316925
101787.500204
101789.374531
101789.540117
101797.702192
101847.928684
101759.445423
101555.451004
101551.472929
101556.60176
101556.410669
101677.167655
101836.980483
102109.372251
102213.418065
102214.928681
101999.787556
101950.374199
101827.98469
101786.10241
101786.877766
101788.514441
101788.604082
101790.373785
101815.25928
101849.005005
101709.804419
101548.345815
101553.577625
101551.680512
101572.835097
101729.14911
101883.461573
102152.289646
102219.933745
102220.369665
102004.973063
101976.544397
101865.241226
101796.854474
101788.027393
101788.345071
101789.887179
101790.435566
101841.408684
101849.191716
101638.52843
101550.207715
101546.597603
101551.206241
101604.655034
101778.596825
101932.632702
102170.232575
102225.311271
102225.616989
102008.849787
101986.40203
101894.107579
101826.266376
101794.819866
101789.904248
101790.104756
101795.898971
101867.148279
101838.49958
101561.209562
101542.516001
101548.008538
101547.042806
101632.984904
101823.717432
101976.913437
102179.37389
102230.461963
102230.775616
102015.125848
101986.161471
101916.51468
101868.609275
101828.728678
101790.808995
101791.47577
101805.027833
101880.868109
101794.514473
101541.557756
101544.811686
101542.228765
101545.774098
101666.032253
101870.005801
102015.939521
102187.507666
102235.687122
102236.011541
102018.771665
101979.257243
101943.349766
101920.154886
101883.881709
101814.344746
101791.743539
101815.487008
101887.959129
101749.874229
101541.101542
101537.637688
101542.57035
101550.084999
101712.558875
101918.982613
102051.432294
102196.037355
102240.788845
102241.106157
102004.315306
101986.734893
101981.265675
101975.749918
101942.978239
101845.473286
101791.826101
101834.27221
101892.821096
101706.942174
101534.200344
101538.587031
101537.243884
101583.780326
101771.258958
101968.159357
102083.449544
102204.441346
102245.345716
102245.641558
102007.303359
102007.849904
102014.375794
102011.666575
101961.255148
101839.33362
101806.146732
101877.20039
101892.628934
101655.128871
101533.548022
101531.097257
101534.878591
101628.236032
101834.993085
102014.209108
102111.271267
102212.035518
102249.021987
102249.299991
102011.360132
102021.019199
102020.396901
102015.755276
101949.596529
101819.51845
101833.461393
101940.88852
101897.214679
101594.28578
101525.069809
101529.207404
101529.393963
101681.564319
101899.720402
102054.913688
102135.100084
102219.043663
102251.899202
102252.149355
102021.212197
102022.949197
102021.572526
102009.089324
101905.915297
101817.312871
101870.762059
102002.499222
101889.585641
101541.913882
101522.56394
101521.924076
101552.411818
101751.482925
101961.080802
102089.749078
102155.482331
102225.725876
102254.119589
102254.312054
102025.363913
102023.382437
102021.348553
101981.503852
101840.066009
101823.709178
101931.5829
102045.260651
101855.144254
101515.310151
101513.942375
101516.969225
101610.614418
101829.486704
102014.52824
102118.087114
102172.200557
102231.548567
102255.510676
102255.636326
102024.785631
102022.347895
102016.471377
101931.981381
101823.620854
101871.13232
102026.041144
102052.058329
101785.757315
101506.607265
101508.804309
101514.626613
101678.749754
101902.985942
102057.919649
102140.121059
102185.329017
102236.173425
102255.956075
102256.018406
102022.354031
102019.654938
102000.971486
101891.549572
101819.286573
101937.726437
102099.704668
102050.971516
101670.380202
101499.111174
101499.529432
101550.278704
101757.525822
101966.057964
102091.315605
102156.745634
102195.202742
102239.293839
102255.359767
102255.37759
102017.825789
102014.789523
101977.755779
101883.011732
101846.203659
102007.439101
102107.009011
101982.944725
101541.601318
101488.038756
101490.465789
101612.581919
101834.696088
102014.682843
102115.806978
102169.242817
102202.53681
102240.721215
102253.776017
102253.78337
102010.77102
102004.745579
101958.1624
101891.71175
101923.386945
102081.391454
102101.55477
101856.761636
101477.331786
101479.319226
101501.034677
101678.611143
101899.044915
102051.990143
102135.518543
102180.311212
102209.161923
102241.2528
102251.624612
102251.62772
102001.070308
101992.307727
101950.709041
101915.877477
102004.106206
102112.793932
102088.785186
101731.275113
101467.785232
101468.765796
101543.897489
101748.200025
101953.739687
102083.671996
102153.728627
102191.649502
102216.190742
102241.446078
102249.140309
102249.136648
101989.144987
101977.969869
101944.146687
101940.161363
102052.430842
102106.347158
102046.811556
101611.847032
101455.467983
101462.233103
101595.983808
101810.774627
101997.380011
102110.036422
102170.248675
102202.718105
102223.027664
102241.226938
102246.425533
102246.426268
101976.560789
101963.543753
101931.343603
101962.185895
102082.178571
102100.090853
101962.075118
101490.360979
101446.042905
101474.115347
101640.553577
101855.812486
102028.346265
102130.626009
102184.404188
102212.625197
102228.874083
102240.855053
102243.833709
102243.844669
101965.961696
101949.400429
101922.352707
101976.398753
102095.617542
102095.460135
101864.124372
101435.021889
101435.58586
101502.531675
101677.569918
101886.803434
102051.408102
102147.824335
102197.012027
102221.402108
102233.714097
102240.651126
102241.7922
102241.809901
101957.562435
101931.405285
101915.961264
101981.62929
102093.463997
102092.435942
101799.072874
101426.05131
101427.661395
101526.447978
101700.316797
101904.048852
102070.178825
102164.734133
102209.683034
102229.489624
102237.607951
102240.332956
102240.546076
102240.565809
101946.63955
101911.078117
101912.022262
101985.409746
102091.804215
102091.293961
101770.494348
101418.993199
101420.318151
101535.154871
101695.876979
101893.310911
102067.903229
102175.664679
102221.225391
102236.236247
102239.701177
102240.143637
102240.207597
102240.227595
101927.289489
101907.528943
101910.184149
101992.819181
102091.981119
102092.972099
101767.102454
101411.519598
101424.956956
101533.887415
101681.304788
101867.018056
102051.48614
102171.562189
102225.425887
102239.533147
102240.656096
102240.75989
102240.819036
102240.838876
101909.118024
101907.327523
101914.955747
102007.122097
102093.443842
102094.500605
101771.874812
101406.025354
101430.460677
101528.171573
101658.225175
101825.043703
102011.577463
102153.73481
102223.135998
102240.982954
102242.195815
102242.288975
102242.346609
102242.367781
101903.187467
101908.356852
101932.617525
102027.509681
102096.546518
102096.654413
101766.88596
101400.592488
101433.400115
101525.95225
101636.791087
101774.962339
101948.11111
102112.23861
102211.031259
102241.939
102244.592244
102244.689427
102244.746456
102244.771061
101903.786536
101918.038117
101958.381258
102048.555101
102100.246672
102095.670932
101739.797704
101396.383769
101442.618559
101534.271704
101621.055831
101719.891512
101867.077327
102047.225607
102184.16736
102240.176581
102247.741367
102247.920207
102247.975757
102248.005755
101908.819023
101936.978522
101986.411167
102067.766825
102104.142428
102079.536883
101696.777631
101407.469392
101467.173599
101550.840996
101597.253631
101650.664786
101778.386513
101976.750227
102149.935646
102234.767521
102251.355542
102251.913209
102251.96044
102251.995608
101919.551017
101960.489871
102013.869217
102085.273025
102108.462867
102052.839897
101649.669705
101443.075874
101503.418996
101549.261506
101545.342246
101574.513384
101711.997869
101931.065286
102122.901447
102227.114624
102254.812441
102256.465329
102256.49328
102256.529734
101936.046125
101986.75545
102040.016611
102100.66642
102112.888752
102014.515158
101613.776485
101486.709493
101524.533944
101526.298986
101527.270418
101547.093903
101697.244965
101926.438165
102113.99904
102220.865301
102257.405596
102261.098432
102261.120628
102261.153352
101958.426555
102015.024364
102064.471206
102113.675572
102117.159597
101974.338636
101596.78607
101515.123074
101524.259709
101524.185851
101525.321583
101547.598265
101707.404314
101937.62695
102119.288343
102220.195693
102259.619429
102265.28391
102265.339098
102265.363978
101985.935198
102043.717183
102087.012467
102124.990495
102121.532585
101940.925077
101594.025219
101531.945607
101524.334862
101521.487251
101522.718647
101559.025426
101739.310604
101966.858115
102132.725158
102224.338557
102262.073423
102268.685634
102268.773624
102268.784194
102016.041451
102071.080002
102108.168687
102136.711671
)
;

boundaryField
{
    emptyPatch
    {
        type            empty;
    }
    minY
    {
        type            zeroGradient;
    }
    maxY
    {
        type            prghTotalPressure;
        U               U.gas;
        p0              nonuniform List<scalar> 0();
        value           nonuniform List<scalar> 0();
    }
    maxX
    {
        type            fixedFluxPressure;
        gradient        uniform 0;
        value           nonuniform List<scalar> 
37
(
102211.611018
102199.563442
102190.887386
102191.370172
102197.263851
102203.651386
102209.431684
102214.928681
102220.369665
102225.616989
102230.775616
102236.011541
102241.106157
102245.641558
102249.299991
102252.149355
102254.312054
102255.636326
102256.018406
102255.37759
102253.78337
102251.62772
102249.136648
102246.426268
102243.844669
102241.809901
102240.565809
102240.227595
102240.838876
102242.367781
102244.771061
102248.005755
102251.995608
102256.529734
102261.153352
102265.363978
102268.784194
)
;
    }
    water_to_heater
    {
        type            fixedFluxPressure;
        gradient        uniform 0;
        value           nonuniform List<scalar> 
60
(
101678.081854
101678.081854
101669.227257
101669.227257
101520.333072
101520.333072
101378.399246
101292.778879
101285.930863
101285.930863
101287.065385
101287.065385
101292.875722
101292.875722
101294.482525
101296.220819
101298.197843
101298.197843
101300.048205
101300.048205
101303.248865
101303.248865
101325.992551
101356.408744
101370.008427
101370.008427
101370.75566
101370.75566
101371.581139
101371.581139
101372.075526
101380.459357
101438.812139
101438.812139
101529.114172
101529.114172
101529.240336
101529.240336
101396.602488
101231.636569
101101.948485
101101.948485
101071.649522
101071.649522
101071.126257
101071.126257
101090.724098
101152.967913
101231.163283
101231.163283
101277.345218
101277.345218
101282.605002
101282.605002
101285.245957
101281.963034
101280.447863
101280.447863
101283.576883
101283.576883
)
;
    }
    procBoundary1to0
    {
        type            processor;
        value           nonuniform List<scalar> 
41
(
101291.372339
101294.564671
101278.928918
101265.744983
101270.248404
101300.821384
101365.10034
101462.287563
101587.744657
101732.035184
101880.249554
102012.580595
102092.720663
102094.227697
102074.51896
101967.152244
101859.202612
101863.211473
101902.966215
101975.793181
102121.850289
101910.16288
101588.455578
101539.812993
101525.624559
101517.817405
101519.149852
101584.860068
101789.25764
102007.116898
102152.534946
102230.443667
102264.408705
102270.970235
102271.049989
102271.041119
102046.451089
102096.700732
102129.095446
102121.850289
102148.890417
)
;
    }
    procBoundary1to3
    {
        type            processor;
        value           nonuniform List<scalar> 
41
(
102087.203074
102084.082612
102082.489054
102077.956967
102071.578923
102056.869752
102051.863564
102055.026798
102059.335127
102057.981778
102043.346923
101963.651682
101854.712156
101585.029589
102022.054075
102065.527482
102093.724392
102095.793879
102091.321994
102089.392055
102089.392055
101849.804131
101846.024833
101846.845186
101844.130502
101845.566059
101873.978502
101996.995868
102121.49375
102187.312388
102213.099956
102221.961023
102223.491988
102223.113545
102222.788579
102222.595553
102222.411426
102222.186616
102221.997806
102221.881329
102221.741239
)
;
    }
}


// ************************************************************************* //
