/*--------------------------------*- C++ -*----------------------------------*\
| =========                 |                                                 |
| \\      /  F ield         | OpenFOAM: The Open Source CFD Toolbox           |
|  \\    /   O peration     | Version:  2312                                  |
|   \\  /    A nd           | Website:  www.openfoam.com                      |
|    \\/     M anipulation  |                                                 |
\*---------------------------------------------------------------------------*/
FoamFile
{
    version     2.0;
    format      ascii;
    arch        "LSB;label=32;scalar=64";
    class       volScalarField;
    location    "0.745/water";
    object      alpha.gas;
}
// * * * * * * * * * * * * * * * * * * * * * * * * * * * * * * * * * * * * * //

dimensions      [0 0 0 0 0 0 0];

internalField   nonuniform List<scalar> 
1496
(
0.516957998457
0.531567879959
0.540336265904
0.619789815987
0.588642573871
0.502566562323
0.381143535575
0.254326883196
0.16397523199
0.135737109593
0.134084231046
0.134030389049
0.134055886133
0.134417241643
0.180844690667
0.281180172543
0.344964148173
0.387321759795
0.415249468136
0.419134084253
0.531567879959
0.517702471286
0.547246831607
0.589124304104
0.540266846667
0.443722400992
0.322875561698
0.208186300465
0.145379447211
0.134190558934
0.133990885194
0.13393008706
0.134011711437
0.13853306143
0.194665108947
0.276449536387
0.303676387265
0.33542184515
0.389588404592
0.41699399599
0.519480629696
0.533033012647
0.57006384501
0.557960041147
0.485124754666
0.381354353346
0.263960016393
0.169411887353
0.136561330369
0.133912997673
0.133878042655
0.133871341126
0.1339158579
0.142408318491
0.202155545017
0.263634955307
0.271692387654
0.288013878999
0.348301026497
0.405425887288
0.591098103124
0.611839364378
0.5834148089
0.523325080516
0.434411239195
0.326152518246
0.214673543346
0.147006958194
0.13417007318
0.133709919249
0.133767325848
0.133780027777
0.133870067727
0.145252464763
0.204393535473
0.247063375409
0.248617276005
0.257540291642
0.308374633734
0.381201068019
0.786957150443
0.688678914529
0.576502494077
0.487657981557
0.388316827652
0.276195894198
0.176237303266
0.136419237476
0.133545139315
0.133572287744
0.133673391228
0.133767325848
0.133738205755
0.147997025317
0.204508701499
0.230956513115
0.231649915354
0.239471697843
0.278826491866
0.347134457089
0.889179939338
0.687946257187
0.554337216091
0.44408669974
0.333963812419
0.22127376439
0.147133305618
0.13357411023
0.133513198154
0.133293918548
0.133547070179
0.133657162949
0.133767325848
0.15221761808
0.203585180659
0.217148584612
0.218695208355
0.227671336125
0.257460411058
0.306945687653
0.897108529623
0.667243310597
0.509936434903
0.379947135711
0.260507967997
0.164190999901
0.134386347968
0.133359394127
0.13323938757
0.133513198154
0.133110898417
0.133542465907
0.133728738098
0.161177339244
0.201498081854
0.205920580481
0.208292934809
0.218442390356
0.239066057026
0.26366593385
0.896454231925
0.608051784217
0.433538063755
0.287321724175
0.176555773904
0.13528251491
0.133185242037
0.133023053664
0.133359394127
0.132906187638
0.133513198154
0.133051039301
0.137839149084
0.175962267927
0.196460901414
0.196467774708
0.199567233527
0.209768710688
0.220087417921
0.224489426325
0.897108529623
0.511438346418
0.320454969852
0.178675680103
0.134809696717
0.133185242037
0.13263920553
0.133185242037
0.132470194247
0.133359394127
0.132728932976
0.133513198154
0.15606669815
0.184486229008
0.188503376911
0.187973085932
0.191747175314
0.200083791979
0.201131915098
0.206376304506
0.86509908255
0.371747963041
0.186764858121
0.133252863568
0.133185242037
0.132114360067
0.133170808803
0.13142909912
0.133185242037
0.132151524507
0.133359394127
0.146713018642
0.178517289569
0.183869372065
0.180953933254
0.180522309508
0.183821441009
0.187753925894
0.191412428632
0.210589927703
0.760006426911
0.207091554422
0.133254670877
0.133185242037
0.131151225509
0.133161321375
0.130067789077
0.133170808803
0.130904559619
0.133185242037
0.146754673509
0.178765521094
0.179084842043
0.179037112756
0.174325021532
0.174132492671
0.176055487408
0.178785269402
0.195239822042
0.254301265444
0.62664856736
0.133306190213
0.133185242037
0.130337532197
0.133161321375
0.129156088458
0.133133217994
0.129439942136
0.133170808803
0.153235428952
0.179314222657
0.179579059687
0.178983828338
0.173806178038
0.171695224339
0.171702937341
0.171781396299
0.179661801314
0.228007808419
0.359467419302
0.515810492777
0.163162554017
0.145491253246
0.138933296101
0.13629163411
0.1393780062
0.141115869976
0.14863729724
0.164406541918
0.183024141186
0.181321744999
0.178992635805
0.174807477805
0.171825678879
0.171702937341
0.171638182507
0.171702937341
0.190850353404
0.301974507737
0.450956869332
0.513531329139
0.365696623008
0.333336144223
0.313096118278
0.299466506556
0.283797627806
0.256806780921
0.222614435089
0.200702098829
0.185936851059
0.17705576826
0.173855135853
0.171968036012
0.171702937341
0.171612084272
0.171702937341
0.171704177869
0.215635244272
0.370575283936
0.487849650683
0.619988199441
0.673285028411
0.658642306435
0.645832036683
0.630322332457
0.606231760392
0.549799673499
0.442941827601
0.306499607376
0.211638153142
0.178154097171
0.17158216011
0.171702937341
0.171466906453
0.171702937341
0.171498280798
0.172497064119
0.24115150493
0.403508268266
0.496864494136
0.766146246273
0.802941037777
0.798273457762
0.800050636425
0.801493155633
0.797870688243
0.779335506098
0.727319399977
0.604182742944
0.399560139625
0.233434371258
0.175845958666
0.171149120847
0.171702937341
0.171227719333
0.171702937341
0.17399694695
0.261395398773
0.419854621199
0.496781730195
0.82275024089
0.822051396895
0.821188837829
0.825028884583
0.826740452567
0.827646906783
0.826740452567
0.823986603311
0.798576543814
0.687332288082
0.459482382813
0.244963845884
0.174111549178
0.171098687016
0.171702937341
0.171399446418
0.175865423067
0.279344667552
0.428434252422
0.486904353577
0.827666127853
0.824086912303
0.825644378307
0.826740452567
0.827892921122
0.826740452567
0.828315320506
0.826740452567
0.827339912581
0.799970367821
0.685476980703
0.439772202434
0.231249145516
0.171702937341
0.171098687016
0.171702937341
0.178203454538
0.29588451865
0.422868992895
0.455912037154
0.826750867535
0.82139461296
0.823843677788
0.826954590003
0.826740452567
0.82842402674
0.826740452567
0.828309638036
0.826740452567
0.820340895386
0.766342958973
0.611200224351
0.371310971676
0.203808054395
0.171702937341
0.171353291654
0.181331276728
0.31698142713
0.409388920421
0.408780939791
0.827789740841
0.807963538585
0.811853510326
0.823822476919
0.827476254457
0.826740452567
0.828428029834
0.826740452567
0.827783401584
0.825783940926
0.788004906662
0.683701833233
0.501338339126
0.293700923382
0.176555773019
0.171702937341
0.185513797048
0.341835547054
0.39776820259
0.365831148127
0.826750867535
0.78107665469
0.785638528714
0.809366305226
0.826740452567
0.827793332258
0.826740452567
0.828097487908
0.826740452567
0.827020853584
0.79516940399
0.711836712193
0.568933310281
0.388752991562
0.217101717492
0.171356597144
0.196550198226
0.347169074721
0.386468704138
0.34181473818
0.827034502251
0.746661228656
0.752214232622
0.78336463921
0.821279835762
0.826740452567
0.827669493501
0.826740452567
0.827401559469
0.826740452567
0.797267555821
0.723085242058
0.601676693629
0.443818992163
0.277248465005
0.1782001186
0.219275665218
0.342805299149
0.370957070524
0.327660605736
0.820224283521
0.713308746511
0.723423762933
0.754635554902
0.802097900409
0.824864334992
0.826740452567
0.827109247681
0.826740452567
0.825545385078
0.795254393616
0.725251858233
0.616881824271
0.471876827239
0.316177827288
0.209657323216
0.236082810838
0.330243169855
0.349404765459
0.313530022686
0.792131471156
0.687532218431
0.706007598496
0.727827436966
0.769927410863
0.805784212092
0.819162060819
0.822635234131
0.822496647645
0.814979840532
0.784107636683
0.720903642855
0.618687576499
0.482076085555
0.332171671932
0.229259053374
0.237251324415
0.309241985536
0.322578599935
0.295476497143
0.734530846449
0.672971289611
0.695076673296
0.702123879668
0.724918735457
0.758714847085
0.783452597043
0.795391028151
0.795864265059
0.784784444306
0.755308599441
0.700136302488
0.60827651194
0.47899687137
0.332944883827
0.229438042678
0.231766769114
0.28029426031
0.288082716876
0.270343916219
0.659665633144
0.658974767584
0.685552665018
0.676733054506
0.667736205234
0.682108514729
0.708413913431
0.72855958943
0.733074756483
0.724329165588
0.698895944459
0.649250692308
0.567143906223
0.451376988097
0.317640037172
0.219740680653
0.211622278636
0.23635813437
0.241563571743
0.238154863847
0.60438918217
0.637640155352
0.673014635032
0.659419425275
0.608770163793
0.58710372488
0.59862714755
0.619025357885
0.628914826137
0.624861320047
0.603692170443
0.557310215766
0.482345567172
0.380820357245
0.268633841052
0.201295435682
0.197740894083
0.197878930688
0.197895387421
0.226210976909
0.604484443673
0.609613692617
0.658998740404
0.656988405739
0.580633317661
0.511471964181
0.488177059094
0.491872313142
0.497957985512
0.49418283564
0.473803164213
0.431018335718
0.366484900236
0.287822014745
0.216967053124
0.197686080143
0.197878930688
0.197670514491
0.197945167269
0.277690510746
0.602228356889
0.604484443673
0.659906435352
0.661336033556
0.58748506611
0.508238576422
0.454892302233
0.424821918608
0.408299622687
0.394456821718
0.375025049568
0.346352033838
0.30807115176
0.261914798933
0.216247080074
0.202873888266
0.205160748922
0.226373699931
0.315418358997
0.518991059213
0.604484443673
0.644257811501
0.696560559057
0.688753284468
0.631198752347
0.55191227901
0.485536641445
0.441469379179
0.413821787281
0.394640214658
0.376297878211
0.354396661895
0.327444653753
0.29795466072
0.281454530822
0.29472858061
0.344347545942
0.455627237971
0.626378795569
0.77175596626
0.665457868355
0.759853791328
0.772176939089
0.75510828041
0.718199816984
0.664803820369
0.602725983461
0.546276453299
0.50418871853
0.478889851902
0.467060080636
0.464057482715
0.468613605916
0.483975073828
0.516324143667
0.566898852826
0.648139291292
0.746240952211
0.821205126682
0.847376576052
0.821401186868
0.861022706036
0.842554882536
0.823182035449
0.802472911833
0.776889337085
0.744042861623
0.708776717602
0.680492815231
0.66615044852
0.666528598487
0.678907312621
0.701504690087
0.730032562951
0.760356245922
0.792429934414
0.825827513929
0.849301668026
0.85385020298
0.854146254056
0.896079896598
0.893052977452
0.873235006983
0.859525203398
0.84829001055
0.836364600146
0.822214682221
0.807885494087
0.797474008658
0.793236790337
0.795245243367
0.803125397505
0.814864437745
0.827576108865
0.839652529803
0.850270785455
0.856798543047
0.857140504094
0.854795095546
0.839978889396
0.911332638492
0.897271878542
0.881754800179
0.871682461203
0.864319075028
0.856674728222
0.847656043848
0.837925079318
0.829114041134
0.823570007272
0.821875986546
0.823915865831
0.829356500684
0.836549893867
0.844062794193
0.85052347366
0.85344391328
0.849471732583
0.83093982855
0.785857834336
0.91476229387
0.898082491718
0.883766991212
0.874560097214
0.868408377509
0.862350219724
0.854776192645
0.844952982273
0.833657570197
0.823728820102
0.817865552491
0.815940507886
0.817599799119
0.8210895123
0.824448812946
0.82595294646
0.82230734705
0.804715354105
0.759551626172
0.696011965937
0.915231049022
0.898061925272
0.883887920787
0.874800853817
0.869131639335
0.863868340264
0.856977958379
0.8467420294
0.832873509657
0.816695138457
0.799291276579
0.783047237643
0.76965850175
0.759964039865
0.752370487191
0.744672178492
0.731002210488
0.698683413392
0.649242889944
0.621298817599
0.915231049022
0.897898976162
0.883766295243
0.874758321025
0.869306189026
0.864338545926
0.857742273083
0.847238321815
0.831255592545
0.809107503488
0.781914233896
0.750201515766
0.712536048562
0.676528787851
0.650796555366
0.628716608203
0.601070241683
0.568547287987
0.560981409986
0.596642604872
0.253000298464
0.271359807859
0.272173187097
0.238865054426
0.18781787211
0.175840124489
0.21568595701
0.286044468487
0.319487165634
0.197930351839
0.105231886341
0.105591092239
0.105088565576
0.185109508107
0.0582009297837
4.34810800988e-05
0.395991523028
0.317618403686
0.248605953193
0.221031722442
0.229712369778
0.270083364425
0.296803944507
0.275588670127
0.203046607705
0.137849577619
0.112141468981
0.17219748096
0.254039396225
0.188089132524
0.105591092239
0.104903540084
0.133599781168
0.229900131708
0.0208711842055
4.36119164669e-05
0.403048883217
0.35182070401
0.270614892735
0.218429560949
0.218085017815
0.26954508866
0.333092125234
0.320950700382
0.238902394463
0.149034052887
0.0917483965972
0.093931790053
0.215812690307
0.216733743056
0.104853991925
0.105496358445
0.249856122012
0.254459618685
0.00110309044276
4.31967236104e-05
0.3998352952
0.359054805268
0.284862912078
0.218087384516
0.218072197544
0.284044406568
0.36900457721
0.333955785431
0.241999558075
0.151986488508
0.086409061443
0.0559454008612
0.18534196488
0.251461976709
0.157551083919
0.178481178256
0.33091602589
0.255390128299
6.18851195976e-05
4.34043044881e-05
0.388501498693
0.354012760716
0.282458702904
0.218076962712
0.231980640853
0.331041463467
0.381080870392
0.325995000923
0.222282638583
0.133227447794
0.0720480785983
0.0354972379902
0.164465851452
0.274601119584
0.220252949198
0.267990944499
0.332398643334
0.233806926298
5.38588703631e-05
4.30394890656e-05
0.36365816931
0.33296993283
0.26954278656
0.224300569758
0.273087868031
0.388259865015
0.383375746927
0.294241040817
0.178731912565
0.096346069663
0.0457398103861
0.0244563722698
0.156176744629
0.289056516553
0.276231521681
0.315277645357
0.333032395565
0.189310466947
4.86453711658e-05
4.32713516506e-05
0.321044630153
0.292802971817
0.258672151753
0.249119331585
0.33680593852
0.419567368778
0.370795155706
0.246356027177
0.134445032942
0.0653871045625
0.0248440504108
0.024172858238
0.161495238288
0.310563086667
0.333844577066
0.354995144432
0.333629424401
0.137052958433
4.3625358121e-05
4.29107266491e-05
0.266811599745
0.252751702168
0.254071266124
0.313332330325
0.421079996323
0.427111002527
0.339393052761
0.205827147409
0.107336423395
0.0503404020432
0.0203807020693
0.0258497841438
0.206335079976
0.358304687356
0.383422099586
0.385476667951
0.308607148658
0.0849239481111
4.29271920763e-05
4.31053602347e-05
0.228008939535
0.242331244134
0.295766755871
0.432277675007
0.486428776304
0.433183579462
0.319994298899
0.190035456644
0.097238171803
0.0454190528504
0.0202451339131
0.0434838062922
0.292790396104
0.435195545248
0.415335649817
0.38647688463
0.255790366576
0.0389496093215
4.3054996843e-05
4.2791306114e-05
0.227203621685
0.282636340553
0.423953622709
0.507647816447
0.510237708378
0.440851846385
0.32141228167
0.189989530482
0.0956465549042
0.0446897144537
0.0207910115898
0.0502327472425
0.316069935952
0.520813927649
0.444653328829
0.366338845933
0.177010489431
0.0111294327838
4.27091684118e-05
4.30111265045e-05
0.268374950832
0.40825699725
0.508466977982
0.511150081014
0.510013916722
0.451338559561
0.329810057575
0.193717983893
0.0968525770607
0.0457410045054
0.0206135410593
0.0405869383432
0.274834174301
0.551829921867
0.513906920606
0.349057521271
0.0956629074011
0.00168141280343
4.29247825787e-05
4.27978154955e-05
0.382929746549
0.503684519554
0.511379414897
0.510013916722
0.510835995864
0.461209918638
0.340326355767
0.201644289439
0.101260230526
0.0495491804439
0.0204936226645
0.02511434072
0.163885486687
0.550507048704
0.642002922975
0.371178607357
0.0492655092515
0.000208947746632
4.27047481165e-05
4.2973251575e-05
0.481624924999
0.510921756126
0.510013916722
0.511479818252
0.510013916722
0.463944080228
0.342236644019
0.207940510531
0.106928783515
0.0539285919177
0.0228942288635
0.0127657218036
0.0685489559941
0.545465294713
0.676553820389
0.475265662915
0.0673462005157
0.000166898431049
4.29297096388e-05
4.28161230059e-05
0.509384816235
0.510013916722
0.511479818252
0.510013916722
0.510852999891
0.461394576254
0.33803529521
0.207468801904
0.110236041404
0.0558097422209
0.0238275362303
0.00891027286325
0.0269340270024
0.501762375464
0.680861556276
0.592045051644
0.138280790034
0.000431435998608
4.27464177695e-05
4.30041025189e-05
0.510013916722
0.510873812471
0.510013916722
0.51124681934
0.510013916722
0.449781081574
0.324001866159
0.20290417108
0.109785682599
0.055409748848
0.0230856594982
0.0081971203406
0.0173870928068
0.45095003552
0.676755489025
0.652561432958
0.215741909211
0.00178416911237
4.29965315472e-05
4.29115463417e-05
0.510288786237
0.510013916722
0.51112128614
0.510013916722
0.510241969235
0.42590750052
0.300958625172
0.191375859738
0.105869754888
0.052899796563
0.0211951194603
0.00777016136138
0.0207426067486
0.493628204489
0.682485017711
0.675240852714
0.23238454304
0.00197863008807
4.29388932254e-05
4.31591284124e-05
0.510013916722
0.510300896724
0.510013916722
0.510302394525
0.49403346052
0.391098035911
0.272490423031
0.172271582352
0.0948573652869
0.0460300558164
0.0176775189531
0.00774852162451
0.0808276299525
0.665531484193
0.676755489025
0.67737296921
0.262248831925
0.00104035617145
4.41488667372e-05
4.31071514611e-05
0.502177885897
0.507996079232
0.510228133307
0.504994741766
0.453679530481
0.349148831253
0.238744117605
0.145267924754
0.0759904684488
0.0341421604811
0.0152911210415
0.0147554275317
0.417806748377
0.676755489025
0.681994391468
0.667616420314
0.12055317003
0.00119892621331
4.84399136989e-05
4.33579792299e-05
0.463548956637
0.477719641018
0.485867190773
0.470175867468
0.403738972705
0.302776084092
0.197910029714
0.110593335812
0.0510572426533
0.0227417851866
0.0153029397941
0.191452233193
0.676755489025
0.681469229216
0.676755489025
0.641200486669
0.0505593280361
0.00231488861478
5.89065371492e-05
4.33111123526e-05
0.396580363206
0.412150952175
0.429640832776
0.415664740389
0.352652204974
0.251844060481
0.149479915289
0.0710366088282
0.0301804902055
0.0226658927426
0.120496615663
0.616186934282
0.678122128334
0.676755489025
0.680042532726
0.645596950429
0.140290085594
0.0325764675863
0.00135671696539
4.35656222983e-05
0.334352314834
0.353617295184
0.383367151181
0.37115250894
0.301641809758
0.196100945518
0.097836059576
0.0412204636126
0.0301118317195
0.0812013303627
0.469673467676
0.645586014788
0.66823276835
0.677892524426
0.676755489025
0.634801102402
0.185408420078
0.106726827895
0.0211593149851
7.22785001911e-05
0.307410064811
0.33429626198
0.365426145384
0.337850387876
0.249398938348
0.140340114837
0.0586998945757
0.0411286022327
0.0526008114006
0.308929711456
0.538914456694
0.556593073736
0.591632859315
0.658311299378
0.670981332401
0.502139258156
0.131116369013
0.130612490312
0.0526158360416
0.000294180248588
0.30385790283
0.33210333423
0.354089877371
0.302639649243
0.194585965775
0.0923420551029
0.0480030874218
0.0412877944221
0.168946531443
0.485644501842
0.520835507604
0.468552684356
0.470072997117
0.515882486482
0.516181256171
0.270469736911
0.0877836557651
0.109513844305
0.057299960179
0.000229825846804
0.303630421693
0.331139348332
0.335265755772
0.255018077708
0.13763047502
0.0607818628984
0.0480091410049
0.0758094795084
0.326806691219
0.513394978201
0.520314836972
0.467766537374
0.398472690179
0.336581398664
0.251410915786
0.0883189187457
0.0878116119197
0.12146923761
0.0681003058002
7.74713119633e-05
0.299758949791
0.330919127808
0.304014249013
0.192425794657
0.0879941604237
0.0531626683201
0.0544727819563
0.157259659974
0.406222420787
0.515077355792
0.519862725257
0.484861274425
0.388364304479
0.249335333134
0.117867836926
0.0878116119197
0.0877836557651
0.175623710195
0.053378610661
5.46172375145e-05
0.288065906753
0.328499883851
0.260568239973
0.131134263069
0.0651493242196
0.053152364269
0.0730608908341
0.195142688908
0.398153652413
0.49820375736
0.497529713357
0.453251397253
0.340181317345
0.238322651809
0.13980573722
0.105335665427
0.216038127198
0.217299943171
0.00950752345518
5.48402681479e-05
0.281995237363
0.329119434985
0.212951929027
0.0938345404615
0.0629755717124
0.0558813437832
0.0781589375669
0.175629203683
0.321428368278
0.402330536986
0.389368348796
0.37565583223
0.362348213019
0.373688113432
0.383703013901
0.391263810126
0.412775846123
0.178126875417
0.00303235780529
8.92473587173e-05
0.308370452474
0.351778540423
0.184420832622
0.0817865384562
0.0638849083578
0.0596324163437
0.072559829752
0.122001552734
0.177112205807
0.288899067929
0.521743821184
0.620551622519
0.638019779236
0.662674404325
0.634603546307
0.566094281258
0.451781202222
0.288205667491
0.0269334910885
0.000166106728882
0.451746068542
0.452295086364
0.213081968903
0.0820319077443
0.0615646931459
0.05976122148
0.0598900271123
0.0880224530815
0.32233647597
0.693351161889
0.7775387979
0.77732923065
0.774075360528
0.74568657343
0.664363230136
0.559318316466
0.473547014642
0.417635230284
0.154677406849
0.000811245733195
0.694722980679
0.65851485395
0.403146211722
0.117018416833
0.0600188332405
0.0598900271123
0.061298003144
0.182567449823
0.581882220742
0.778147621857
0.777498405713
0.778042414071
0.757551692311
0.691385274243
0.610450788056
0.551360435765
0.528582000753
0.534432873426
0.36275325147
0.00695083443336
0.823299556425
0.78943532121
0.627159658152
0.278406536812
0.0806731008407
0.0600188332405
0.0621845190216
0.175215084428
0.491462827361
0.695097165269
0.734679936805
0.726462274325
0.669250981064
0.598296799051
0.566440724857
0.567153123767
0.56531339611
0.565496568077
0.526381556528
0.019528474497
0.84626770869
0.803635700042
0.681706997526
0.484931693958
0.24748886862
0.0997010935195
0.0698337588164
0.113462760529
0.252346270545
0.436832712605
0.524507158825
0.534544146531
0.50059798045
0.471591928103
0.504011786693
0.56531339611
0.565496568077
0.56401033961
0.563695616598
0.0272248413101
0.83823698638
0.784809913265
0.67480672951
0.556795213283
0.474159494606
0.35562355572
0.214091703294
0.133502599565
0.15624480894
0.185803609007
0.251223381931
0.285430397863
0.276552993886
0.272333927374
0.325315660722
0.497316254449
0.56401033961
0.565105891397
0.562881356074
0.0285949035317
0.797838293527
0.729724577701
0.64963239833
0.590855980328
0.599937807798
0.626683927222
0.567508167151
0.392770604764
0.234057871129
0.180625442394
0.154329601555
0.132939032085
0.127622804826
0.123188225941
0.130356597792
0.246351523071
0.528836662398
0.562881356074
0.545647913481
0.0237990935628
0.722724258982
0.666854220472
0.642215125975
0.63955670278
0.69302629909
0.753797248858
0.750033530587
0.67799158636
0.499508306032
0.328795825808
0.21856277046
0.151310173908
0.118945437278
0.0934210858462
0.0911758176775
0.0919967583347
0.275472870808
0.56247071004
0.489213348204
0.0220072232031
0.652254731406
0.651594211408
0.652098589324
0.705910057059
0.766823209313
0.786777072104
0.781971400101
0.740850308908
0.634620589494
0.489216950893
0.342625423702
0.222160785051
0.137843271348
0.0928756507166
0.0911596129755
0.0911433625901
0.13675982481
0.444871570954
0.413598542105
0.0203763771387
0.633571587164
0.661452909351
0.713317700387
0.769329719805
0.787068589735
0.787068589735
0.783105101162
0.737660397864
0.634893781824
0.508705077366
0.372599285751
0.241151233626
0.139702447449
0.0913750979262
0.0911433625901
0.0911271154084
0.109078111281
0.308884588008
0.327749401381
0.020055196715
0.652378681186
0.714519011099
0.768556419553
0.78691983525
0.787068589735
0.787068589735
0.781643842387
0.72876740707
0.621186684971
0.495009152114
0.358292716583
0.223489291008
0.12229846183
0.091150701533
0.0911344529728
0.0911194815042
0.0979989977845
0.216191741419
0.262354976831
0.0202941840871
)
;

boundaryField
{
    emptyPatch
    {
        type            empty;
    }
    minY
    {
        type            fixedValue;
        value           nonuniform List<scalar> 0();
    }
    maxY
    {
        type            inletOutlet;
        phi             phi.gas;
        inletValue      uniform 1;
        value           nonuniform List<scalar> 
40
(
0.915231049022
0.897898976162
0.883766295243
0.874758321025
0.869306189026
0.864338545926
0.857742273083
0.847238321815
0.831255592545
0.809107503488
0.781914233896
0.750201515766
0.712536048562
0.676528787851
0.650796555366
0.628716608203
0.601070241683
0.568547287987
0.560981409986
0.596642604872
0.652378681186
0.714519011099
0.768556419553
0.78691983525
0.787068589735
0.787068589735
0.781643842387
0.72876740707
0.621186684971
0.495009152114
0.358292716583
0.223489291008
0.12229846183
0.091150701533
0.0911344529728
0.0911194815042
0.0979989977845
0.216191741419
0.262354976831
0.0202941840871
)
;
    }
    maxX
    {
        type            zeroGradient;
    }
    water_to_heater
    {
        type            zeroGradient;
    }
    procBoundary0to1
    {
        type            processor;
        value           nonuniform List<scalar> 
41
(
0.530574292121
0.51832693708
0.561732997188
0.65351406403
0.629266592393
0.549619160746
0.428982182257
0.295569906027
0.187744760311
0.139796078196
0.134154136379
0.134137438275
0.134298985955
0.13382701069
0.164259808543
0.280069849535
0.387175104277
0.41702699344
0.420657450202
0.419088766492
0.270223615643
0.272753319341
0.265968785876
0.259237309265
0.281930681101
0.334031305264
0.390033285395
0.431022295161
0.439572744965
0.308000653978
0.119519294509
0.105222551118
0.105685209386
0.153936392262
0.0879276125211
5.21547285797e-05
0.361812134343
0.278868159483
0.241616558504
0.233062601245
0.233062601245
)
;
    }
}


// ************************************************************************* //
