/*--------------------------------*- C++ -*----------------------------------*\
| =========                 |                                                 |
| \\      /  F ield         | OpenFOAM: The Open Source CFD Toolbox           |
|  \\    /   O peration     | Version:  2312                                  |
|   \\  /    A nd           | Website:  www.openfoam.com                      |
|    \\/     M anipulation  |                                                 |
\*---------------------------------------------------------------------------*/
FoamFile
{
    version     2.0;
    format      ascii;
    arch        "LSB;label=32;scalar=64";
    class       volVectorField;
    location    "39";
    object      Ur;
}
// * * * * * * * * * * * * * * * * * * * * * * * * * * * * * * * * * * * * * //

dimensions      [0 1 -1 0 0 0 0];

internalField   nonuniform List<vector> 
1875
(
(0.0232128 0.309002 0)
(0.0811634 0.299509 0)
(0.114278 0.282816 0)
(0.116451 0.270111 0)
(0.106446 0.260712 0)
(0.0941735 0.255021 0)
(0.072717 0.252892 0)
(0.0525798 0.252789 0)
(0.0188805 0.264883 0)
(-0.0114423 0.266663 0)
(-0.0518806 0.262982 0)
(-0.0858429 0.261957 0)
(-0.111928 0.253142 0)
(-0.130446 0.249845 0)
(-0.141962 0.241814 0)
(-0.142549 0.236728 0)
(-0.138713 0.225512 0)
(-0.121972 0.212471 0)
(-0.0967935 0.211734 0)
(-0.0733275 0.208222 0)
(-0.0562979 0.211164 0)
(-0.0422596 0.21367 0)
(-0.0449495 0.206385 0)
(-0.0407475 0.197337 0)
(-0.0116097 0.217682 0)
(0.0428529 0.363828 0)
(0.111505 0.342785 0)
(0.153375 0.310761 0)
(0.16955 0.291786 0)
(0.179673 0.278784 0)
(0.187247 0.267683 0)
(0.182331 0.258215 0)
(0.178715 0.250421 0)
(0.171303 0.237832 0)
(0.132269 0.237547 0)
(0.0751991 0.240348 0)
(0.0249454 0.242263 0)
(-0.0183474 0.239444 0)
(-0.0526319 0.23829 0)
(-0.0768874 0.232354 0)
(-0.0853768 0.229562 0)
(-0.0828946 0.227428 0)
(-0.0681162 0.238581 0)
(-0.0512898 0.246885 0)
(-0.0334488 0.25687 0)
(-0.0177969 0.261957 0)
(-0.00873455 0.262499 0)
(-0.0143415 0.267696 0)
(-0.0153163 0.266955 0)
(-0.0100891 0.253922 0)
(0.0311286 0.253197 0)
(0.0903321 0.227376 0)
(0.113968 0.216382 0)
(0.0999753 0.223773 0)
(0.110769 0.215714 0)
(0.121446 0.210909 0)
(0.13431 0.204772 0)
(0.142508 0.199408 0)
(0.133778 0.203452 0)
(0.134129 0.208352 0)
(0.0979358 0.227676 0)
(0.069318 0.237485 0)
(0.0385413 0.241306 0)
(0.00634199 0.241325 0)
(-0.018073 0.240853 0)
(-0.0310472 0.242204 0)
(-0.0275288 0.249321 0)
(-0.00929618 0.263358 0)
(0.00451676 0.272613 0)
(0.00821649 0.27407 0)
(0.0080296 0.2725 0)
(0.00761922 0.274872 0)
(-0.00263966 0.271626 0)
(-0.0113601 0.261058 0)
(-0.0065602 0.259164 0)
(0.0544743 0.189428 0)
(0.113466 0.165497 0)
(0.10693 0.182655 0)
(0.105987 0.195487 0)
(0.112639 0.197303 0)
(0.107709 0.201991 0)
(0.1034 0.200122 0)
(0.0956625 0.198752 0)
(0.0865729 0.196328 0)
(0.0474722 0.204191 0)
(0.0178802 0.213177 0)
(-0.00157078 0.225244 0)
(-0.0211415 0.234164 0)
(-0.0320581 0.242661 0)
(-0.0405458 0.252155 0)
(-0.0357419 0.263293 0)
(-0.020593 0.275609 0)
(-0.00590171 0.276066 0)
(0.0061988 0.275398 0)
(0.00715826 0.274671 0)
(0.0069072 0.272091 0)
(0.00638216 0.264878 0)
(-0.000928269 0.258442 0)
(-0.00759432 0.258097 0)
(-0.00373795 0.260435 0)
(0.00688604 0.231041 0)
(0.0537646 0.20418 0)
(0.0914317 0.203986 0)
(0.0796423 0.222777 0)
(0.0660386 0.228609 0)
(0.0528435 0.229437 0)
(0.0415058 0.227659 0)
(0.0275237 0.229805 0)
(0.0151766 0.231937 0)
(0.00225937 0.238007 0)
(-0.00771002 0.245913 0)
(-0.0189254 0.252144 0)
(-0.0236708 0.258913 0)
(-0.0271604 0.269196 0)
(-0.023123 0.282058 0)
(-0.0124032 0.280904 0)
(0.00625758 0.275061 0)
(0.0253873 0.270414 0)
(0.0332078 0.266953 0)
(0.0265146 0.265506 0)
(0.0203128 0.262173 0)
(0.00170812 0.25944 0)
(-0.0152802 0.261915 0)
(-0.0145758 0.26756 0)
(-0.00376989 0.271517 0)
(0.0103668 0.246563 0)
(0.0199983 0.238873 0)
(0.034366 0.225833 0)
(0.0400576 0.22459 0)
(0.0340905 0.224691 0)
(0.0185219 0.22429 0)
(0.0151504 0.227889 0)
(0.00797376 0.229833 0)
(0.00567262 0.234731 0)
(0.00157574 0.239679 0)
(0.00158096 0.24804 0)
(0.00292557 0.260308 0)
(0.0115557 0.269648 0)
(0.0178779 0.273063 0)
(0.0249614 0.274487 0)
(0.0240973 0.280683 0)
(0.0127646 0.285645 0)
(-0.00701224 0.288145 0)
(-0.0222299 0.288847 0)
(-0.0320388 0.290817 0)
(-0.0401813 0.2925 0)
(-0.0425932 0.293493 0)
(-0.0348917 0.299553 0)
(-0.0118484 0.30061 0)
(0.00594909 0.292746 0)
(-0.00198853 0.256661 0)
(0.00369178 0.254483 0)
(0.0237649 0.238886 0)
(0.0330045 0.240666 0)
(0.025364 0.246372 0)
(0.0227526 0.247239 0)
(0.0155776 0.248344 0)
(0.0120481 0.250639 0)
(0.010923 0.253398 0)
(0.0114206 0.256395 0)
(0.0122921 0.260433 0)
(0.012096 0.264456 0)
(0.0104673 0.269932 0)
(0.00913719 0.2782 0)
(0.0051168 0.286097 0)
(-0.00652726 0.29211 0)
(-0.0240293 0.297713 0)
(-0.0424838 0.302698 0)
(-0.0567118 0.307605 0)
(-0.0655948 0.310758 0)
(-0.0680084 0.315801 0)
(-0.0595472 0.322064 0)
(-0.0454261 0.326999 0)
(-0.0152401 0.32994 0)
(0.00316881 0.329466 0)
(-0.000916854 0.270743 0)
(-0.00436921 0.274352 0)
(0.00955627 0.260277 0)
(0.0283641 0.249034 0)
(0.0340311 0.249996 0)
(0.0169088 0.256905 0)
(0.0103784 0.266881 0)
(0.0123477 0.268745 0)
(0.0123253 0.269018 0)
(0.00921889 0.271171 0)
(0.00614842 0.273655 0)
(0.00343783 0.275662 0)
(-0.0026512 0.276949 0)
(-0.0130422 0.279357 0)
(-0.0285349 0.282196 0)
(-0.0461642 0.284589 0)
(-0.059754 0.286895 0)
(-0.0679711 0.289325 0)
(-0.0744213 0.29253 0)
(-0.0803602 0.297112 0)
(-0.0834254 0.303054 0)
(-0.0796283 0.311792 0)
(-0.0656224 0.31994 0)
(-0.0390568 0.32664 0)
(-0.0112813 0.325153 0)
(0.000900286 0.271183 0)
(-0.0046083 0.286991 0)
(0.00446079 0.284776 0)
(0.0194391 0.265669 0)
(0.0263735 0.25426 0)
(0.0322818 0.252382 0)
(0.023012 0.254199 0)
(0.00854811 0.265931 0)
(0.00345452 0.274273 0)
(0.00460907 0.276048 0)
(0.00606633 0.276026 0)
(0.00562854 0.275615 0)
(0.0017715 0.273964 0)
(-0.00560994 0.272061 0)
(-0.015115 0.270044 0)
(-0.0241731 0.267985 0)
(-0.0307767 0.265909 0)
(-0.037801 0.26353 0)
(-0.047776 0.260426 0)
(-0.061549 0.257599 0)
(-0.0758614 0.256966 0)
(-0.0812427 0.262961 0)
(-0.0677833 0.274653 0)
(-0.0413505 0.284163 0)
(-0.0224132 0.285885 0)
(0.00217898 0.278369 0)
(-0.00700838 0.280536 0)
(-0.00165619 0.299165 0)
(0.0233529 0.294101 0)
(0.0306854 0.269946 0)
(0.0292756 0.268185 0)
(0.0217392 0.260604 0)
(0.0166791 0.249486 0)
(0.00909273 0.253771 0)
(0.00156983 0.265836 0)
(-0.00319279 0.271179 0)
(-0.0031706 0.272826 0)
(-0.00327016 0.272097 0)
(-0.0047079 0.269553 0)
(-0.00758179 0.265994 0)
(-0.0113241 0.262135 0)
(-0.014717 0.258211 0)
(-0.019692 0.254034 0)
(-0.0256308 0.249937 0)
(-0.0301702 0.246299 0)
(-0.0330944 0.242887 0)
(-0.0446083 0.239816 0)
(-0.0533526 0.241151 0)
(-0.0447198 0.252645 0)
(-0.020667 0.254017 0)
(-0.00549776 0.285751 0)
(-0.00770286 0.283836 0)
(-0.00859118 0.291437 0)
(0.0151891 0.303533 0)
(0.0386622 0.306535 0)
(0.0430249 0.278878 0)
(0.0433338 0.268597 0)
(0.0244528 0.273281 0)
(0.0155978 0.263585 0)
(-0.00345999 0.245724 0)
(-0.0123237 0.249151 0)
(-0.0182254 0.256021 0)
(-0.0189632 0.259685 0)
(-0.0198488 0.259621 0)
(-0.021581 0.25742 0)
(-0.0238557 0.254084 0)
(-0.0263226 0.250499 0)
(-0.0290067 0.246813 0)
(-0.0303327 0.243345 0)
(-0.0325474 0.239419 0)
(-0.0338426 0.235428 0)
(-0.0354382 0.23166 0)
(-0.030309 0.22991 0)
(-0.0415195 0.231293 0)
(-0.031502 0.232247 0)
(-0.0124625 0.291311 0)
(-0.0102785 0.290168 0)
(-0.00164814 0.293556 0)
(-0.000196644 0.298285 0)
(0.0184175 0.301 0)
(0.0437098 0.305848 0)
(0.0521968 0.300155 0)
(0.0491219 0.272376 0)
(0.0387397 0.271782 0)
(0.0266566 0.272654 0)
(0.0118351 0.260166 0)
(-0.0142373 0.24193 0)
(-0.0331033 0.235803 0)
(-0.0439766 0.235605 0)
(-0.0481853 0.233973 0)
(-0.0508899 0.231674 0)
(-0.0523624 0.229824 0)
(-0.0496413 0.228767 0)
(-0.0457464 0.227318 0)
(-0.0448803 0.224777 0)
(-0.0424872 0.222562 0)
(-0.0396099 0.221214 0)
(-0.0230234 0.221399 0)
(-0.0297134 0.22256 0)
(-0.0258611 0.22577 0)
(-0.0105095 0.293375 0)
(-0.00479934 0.295135 0)
(0.010478 0.29615 0)
(0.0115459 0.298063 0)
(0.016969 0.301658 0)
(0.0260231 0.302035 0)
(0.0411081 0.300972 0)
(0.0524679 0.302375 0)
(0.0448722 0.291833 0)
(0.0314596 0.278458 0)
(0.0156827 0.271192 0)
(0.00480713 0.264597 0)
(-0.0141291 0.249697 0)
(-0.0269874 0.23572 0)
(-0.0412627 0.228121 0)
(-0.0498483 0.222765 0)
(-0.0534833 0.220002 0)
(-0.0523985 0.21958 0)
(-0.0473378 0.220031 0)
(-0.0419668 0.220708 0)
(-0.0341216 0.221981 0)
(-0.0279391 0.223338 0)
(-0.00836656 0.225492 0)
(-0.0139239 0.225765 0)
(-0.0178356 0.229224 0)
(0.00246601 0.287404 0)
(0.0111058 0.290803 0)
(0.0234802 0.29031 0)
(0.0275059 0.291653 0)
(0.0307206 0.293363 0)
(0.0321566 0.295082 0)
(0.0347754 0.296324 0)
(0.0387189 0.294366 0)
(0.0410992 0.293109 0)
(0.037361 0.290967 0)
(0.0165176 0.279992 0)
(-0.00108083 0.27132 0)
(-0.0108555 0.263499 0)
(-0.0229585 0.247039 0)
(-0.0318198 0.237167 0)
(-0.0372706 0.231172 0)
(-0.0377849 0.227135 0)
(-0.0357665 0.226337 0)
(-0.0306643 0.227209 0)
(-0.0239215 0.228522 0)
(-0.0146204 0.230506 0)
(-0.00634587 0.23304 0)
(0.00951538 0.235948 0)
(0.00166084 0.235847 0)
(-0.00743841 0.239619 0)
(0.0127726 0.268672 0)
(0.0241346 0.271934 0)
(0.0346991 0.270848 0)
(0.0427706 0.271976 0)
(0.0461676 0.273658 0)
(0.0458558 0.275838 0)
(0.0422911 0.277817 0)
(0.0364057 0.278879 0)
(0.0286986 0.278819 0)
(0.0205477 0.277089 0)
(0.0130219 0.275749 0)
(-0.00150462 0.269823 0)
(-0.00864041 0.264506 0)
(-0.0187213 0.26149 0)
(-0.0239262 0.251407 0)
(-0.0253834 0.243749 0)
(-0.0222523 0.24071 0)
(-0.0153987 0.239958 0)
(-0.00664437 0.240985 0)
(0.0016743 0.243257 0)
(0.0100891 0.246233 0)
(0.0157004 0.248912 0)
(0.0200596 0.25062 0)
(0.00984424 0.250012 0)
(0.000417264 0.252875 0)
(0.0239016 0.245945 0)
(0.036269 0.245454 0)
(0.0430011 0.243076 0)
(0.057953 0.242164 0)
(0.0616152 0.242888 0)
(0.0593062 0.24502 0)
(0.0501919 0.247991 0)
(0.0354621 0.251836 0)
(0.0204805 0.25533 0)
(0.00634713 0.258554 0)
(-0.00415596 0.261284 0)
(-0.0124427 0.262229 0)
(-0.0157577 0.260687 0)
(-0.0162717 0.259307 0)
(-0.012117 0.259222 0)
(-0.00718097 0.258294 0)
(5.49165e-05 0.258116 0)
(0.00785061 0.258806 0)
(0.0142331 0.260338 0)
(0.0181759 0.262382 0)
(0.0210378 0.264117 0)
(0.0208438 0.264369 0)
(0.0164978 0.264248 0)
(0.00661419 0.263091 0)
(0.00254344 0.264844 0)
(0.0237326 0.22856 0)
(0.0327593 0.226561 0)
(0.0395172 0.223685 0)
(0.057921 0.221007 0)
(0.057983 0.221214 0)
(0.0513938 0.223323 0)
(0.0379473 0.226649 0)
(0.0217032 0.231159 0)
(0.00580331 0.236916 0)
(-0.00657287 0.243346 0)
(-0.0141738 0.249522 0)
(-0.0182314 0.254656 0)
(-0.0187217 0.259512 0)
(-0.0163736 0.264338 0)
(-0.0115249 0.2678 0)
(-0.00566684 0.27046 0)
(0.000442253 0.272703 0)
(0.00615705 0.274248 0)
(0.0109871 0.274993 0)
(0.0144717 0.274818 0)
(0.0159425 0.274012 0)
(0.0154474 0.272531 0)
(0.0102268 0.271389 0)
(0.0109808 0.269734 0)
(0.00989768 0.270115 0)
(0.017767 0.229629 0)
(0.0189013 0.227328 0)
(0.0201534 0.225608 0)
(0.0351324 0.223719 0)
(0.031158 0.224813 0)
(0.0239734 0.226951 0)
(0.0124389 0.230559 0)
(0.00263425 0.236456 0)
(-0.00732798 0.241338 0)
(-0.014833 0.246209 0)
(-0.0197381 0.251786 0)
(-0.0218224 0.257465 0)
(-0.02133 0.262836 0)
(-0.019679 0.270104 0)
(-0.0153675 0.274298 0)
(-0.0106727 0.277522 0)
(-0.00566663 0.279577 0)
(-0.00144392 0.280691 0)
(0.00127575 0.2812 0)
(0.00274896 0.280857 0)
(0.00316876 0.279955 0)
(0.00386127 0.278766 0)
(0.00201009 0.277646 0)
(0.0106759 0.27738 0)
(0.0122431 0.27635 0)
(0.012814 0.238779 0)
(0.00826967 0.237123 0)
(0.003027 0.23686 0)
(0.0130558 0.236229 0)
(0.00831252 0.237639 0)
(0.00278898 0.239704 0)
(-0.00465825 0.242187 0)
(-0.0102437 0.245311 0)
(-0.0155383 0.249891 0)
(-0.0195939 0.254572 0)
(-0.022187 0.259867 0)
(-0.0231192 0.265411 0)
(-0.0229578 0.270309 0)
(-0.0204233 0.271406 0)
(-0.0171444 0.275006 0)
(-0.0143922 0.277599 0)
(-0.0126494 0.279454 0)
(-0.0124197 0.280864 0)
(-0.0130256 0.281836 0)
(-0.0132351 0.282112 0)
(-0.0126711 0.281966 0)
(-0.0101109 0.28169 0)
(-0.00801673 0.2811 0)
(0.00219752 0.280856 0)
(0.00629386 0.278075 0)
(0.00972188 0.247132 0)
(0.00423897 0.245676 0)
(-0.00357525 0.246569 0)
(0.00338342 0.246762 0)
(-0.000721627 0.248065 0)
(-0.00569774 0.250309 0)
(-0.014662 0.25252 0)
(-0.0210924 0.253661 0)
(-0.0247565 0.256245 0)
(-0.0263751 0.259971 0)
(-0.0261745 0.262495 0)
(-0.0244603 0.26467 0)
(-0.0220744 0.266675 0)
(-0.0186196 0.268705 0)
(-0.0178838 0.270558 0)
(-0.0181131 0.272415 0)
(-0.0201521 0.274279 0)
(-0.0229997 0.275651 0)
(-0.0245093 0.276272 0)
(-0.0242963 0.277026 0)
(-0.0227368 0.277866 0)
(-0.0190522 0.278541 0)
(-0.0148303 0.278922 0)
(-0.00877886 0.2803 0)
(-0.00295997 0.278483 0)
(0.00671343 0.252458 0)
(0.00294871 0.25067 0)
(-0.0036795 0.251616 0)
(0.00123725 0.25184 0)
(-0.00175471 0.252872 0)
(-0.00644229 0.254785 0)
(-0.0129078 0.257174 0)
(-0.0170911 0.26026 0)
(-0.0202194 0.262008 0)
(-0.0211048 0.26253 0)
(-0.0205491 0.263809 0)
(-0.0191169 0.264419 0)
(-0.0173799 0.264729 0)
(-0.0159766 0.265055 0)
(-0.0159301 0.265066 0)
(-0.0166176 0.264946 0)
(-0.0178626 0.264851 0)
(-0.0200033 0.264912 0)
(-0.0237691 0.265875 0)
(-0.025883 0.267226 0)
(-0.0245335 0.268598 0)
(-0.0211199 0.269884 0)
(-0.015792 0.27079 0)
(-0.0135184 0.272021 0)
(-0.00820476 0.271838 0)
(0.00381243 0.253312 0)
(0.00247872 0.252417 0)
(-0.00165779 0.253779 0)
(0.00126658 0.254261 0)
(-0.00110946 0.255677 0)
(-0.00485876 0.256189 0)
(-0.0096296 0.258251 0)
(-0.0132771 0.260246 0)
(-0.0153862 0.262409 0)
(-0.015998 0.264181 0)
(-0.0154309 0.264925 0)
(-0.0140229 0.264963 0)
(-0.0124387 0.264429 0)
(-0.0112305 0.263471 0)
(-0.0107304 0.262356 0)
(-0.0106528 0.26127 0)
(-0.0112922 0.260197 0)
(-0.0123293 0.259115 0)
(-0.0147884 0.258027 0)
(-0.0180996 0.25813 0)
(-0.0193908 0.258981 0)
(-0.0177067 0.260251 0)
(-0.0117454 0.261222 0)
(-0.0105572 0.262059 0)
(-0.00767013 0.262393 0)
(0.000377075 0.256874 0)
(0.00175968 0.2547 0)
(0.00048138 0.255089 0)
(0.00216942 0.256753 0)
(0.00065635 0.259132 0)
(-0.00367724 0.255148 0)
(-0.00883264 0.257979 0)
(-0.0126092 0.260411 0)
(-0.0144538 0.262466 0)
(-0.014192 0.26395 0)
(-0.0129549 0.265007 0)
(-0.0106092 0.265472 0)
(-0.00802457 0.26499 0)
(-0.00605837 0.263868 0)
(-0.00475862 0.262255 0)
(-0.00434824 0.260532 0)
(-0.00456081 0.258721 0)
(-0.00521092 0.256959 0)
(-0.00561574 0.255131 0)
(-0.00745452 0.253625 0)
(-0.0105048 0.253045 0)
(-0.0117446 0.253505 0)
(-0.00763576 0.254022 0)
(-0.0111189 0.254205 0)
(-0.0102677 0.255078 0)
(-0.00309413 0.258611 0)
(0.000186183 0.256321 0)
(0.00206577 0.255953 0)
(0.0034848 0.258398 0)
(0.00330453 0.2613 0)
(-0.000733845 0.252973 0)
(-0.00927756 0.252274 0)
(-0.0160967 0.256179 0)
(-0.0193315 0.259725 0)
(-0.0200475 0.262407 0)
(-0.0186643 0.263692 0)
(-0.0150791 0.264293 0)
(-0.010646 0.264125 0)
(-0.00649409 0.263455 0)
(-0.00348852 0.262541 0)
(-0.00194103 0.260745 0)
(-0.00158518 0.258766 0)
(-0.0019059 0.256796 0)
(-0.00219327 0.254793 0)
(-0.00295502 0.252525 0)
(-0.00427523 0.250904 0)
(-0.00681453 0.250398 0)
(-0.00515732 0.250491 0)
(-0.009026 0.250466 0)
(-0.0084803 0.250966 0)
(-0.00727921 0.260067 0)
(-0.00216628 0.259453 0)
(0.00687733 0.257861 0)
(0.00720367 0.259407 0)
(0.00960766 0.264894 0)
(0.00623223 0.262233 0)
(-0.000705027 0.252386 0)
(-0.0125639 0.247201 0)
(-0.0246279 0.249468 0)
(-0.0320413 0.252939 0)
(-0.0310252 0.257048 0)
(-0.0267827 0.259876 0)
(-0.0213632 0.261361 0)
(-0.0162268 0.261316 0)
(-0.0113709 0.26059 0)
(-0.00694826 0.259389 0)
(-0.00444382 0.257822 0)
(-0.0032323 0.255501 0)
(-0.00285526 0.253603 0)
(-0.00302552 0.252394 0)
(-0.00291172 0.250823 0)
(-0.00465821 0.249683 0)
(-0.0034465 0.24942 0)
(-0.00746167 0.249394 0)
(-0.00760347 0.249411 0)
(-0.00964152 0.260843 0)
(-0.00411145 0.261846 0)
(0.00997675 0.261958 0)
(0.0118962 0.261917 0)
(0.0160943 0.264304 0)
(0.0166705 0.262861 0)
(0.0131967 0.259204 0)
(0.0054496 0.254665 0)
(-0.00792407 0.2457 0)
(-0.0236765 0.243364 0)
(-0.0374776 0.24516 0)
(-0.0431391 0.247451 0)
(-0.0405281 0.251049 0)
(-0.0322705 0.254686 0)
(-0.0226038 0.256247 0)
(-0.0150676 0.256858 0)
(-0.00856479 0.255839 0)
(-0.00553687 0.255075 0)
(-0.00488232 0.253958 0)
(-0.00501522 0.251928 0)
(-0.0040448 0.250541 0)
(-0.00446291 0.249393 0)
(-0.00218932 0.248917 0)
(-0.00692896 0.248692 0)
(-0.00798839 0.248204 0)
(-0.00978191 0.264551 0)
(-0.00611376 0.266507 0)
(0.0083749 0.26672 0)
(0.0131283 0.266287 0)
(0.0187003 0.266679 0)
(0.0221207 0.266502 0)
(0.0223296 0.263837 0)
(0.0204204 0.259222 0)
(0.0116698 0.256705 0)
(0.00235084 0.247546 0)
(-0.012733 0.239574 0)
(-0.0277519 0.241485 0)
(-0.0365006 0.243398 0)
(-0.0371361 0.245658 0)
(-0.0319763 0.248598 0)
(-0.0244328 0.25101 0)
(-0.0165824 0.253845 0)
(-0.0105931 0.254911 0)
(-0.00650659 0.253709 0)
(-0.0046681 0.252043 0)
(-0.00341991 0.250248 0)
(-0.00327182 0.249494 0)
(-0.000353372 0.249085 0)
(-0.00635436 0.248762 0)
(-0.00828895 0.248354 0)
(-0.0103329 0.269131 0)
(-0.00911759 0.271172 0)
(0.00356218 0.271977 0)
(0.00982685 0.271959 0)
(0.0171424 0.271138 0)
(0.0227642 0.270173 0)
(0.0252345 0.268501 0)
(0.0261251 0.264818 0)
(0.0203811 0.257649 0)
(0.013904 0.25877 0)
(0.0072861 0.258245 0)
(-0.00370902 0.248707 0)
(-0.0162127 0.245008 0)
(-0.0242319 0.245178 0)
(-0.0254744 0.246331 0)
(-0.0213834 0.248073 0)
(-0.0156781 0.249335 0)
(-0.00966248 0.250375 0)
(-0.00446485 0.25102 0)
(-0.00173916 0.251652 0)
(-0.000125963 0.25187 0)
(-0.000197365 0.251179 0)
(0.00245234 0.250849 0)
(-0.00475863 0.250425 0)
(-0.00757072 0.25042 0)
(-0.00964372 0.2747 0)
(-0.00928533 0.276582 0)
(0.000878539 0.277566 0)
(0.00616958 0.277957 0)
(0.0134198 0.277465 0)
(0.0201132 0.276108 0)
(0.0253493 0.273953 0)
(0.0271097 0.270524 0)
(0.0279804 0.270172 0)
(0.0210615 0.263913 0)
(0.0141307 0.26047 0)
(0.00751712 0.259063 0)
(-0.000777952 0.25293 0)
(-0.00762059 0.249302 0)
(-0.0120623 0.248874 0)
(-0.0112831 0.249895 0)
(-0.00761856 0.251464 0)
(-0.00420064 0.252907 0)
(-0.000687581 0.254009 0)
(0.00198823 0.254386 0)
(0.00343653 0.254417 0)
(0.00314142 0.254248 0)
(0.00506993 0.253948 0)
(-0.00251903 0.2534 0)
(-0.00589178 0.253775 0)
(-0.00368569 0.279513 0)
(-0.00226631 0.281023 0)
(0.00635855 0.280767 0)
(0.0095007 0.28119 0)
(0.0138543 0.281029 0)
(0.0182014 0.280203 0)
(0.0223209 0.278511 0)
(0.0243934 0.27615 0)
(0.0260647 0.272279 0)
(0.0250813 0.268865 0)
(0.0209575 0.263592 0)
(0.0150308 0.260787 0)
(0.00877559 0.257903 0)
(0.00306173 0.253349 0)
(0.000462553 0.25305 0)
(0.000238801 0.253781 0)
(0.00236155 0.254884 0)
(0.00398703 0.255974 0)
(0.00495821 0.257168 0)
(0.00604358 0.257913 0)
(0.00664531 0.258103 0)
(0.00592794 0.258023 0)
(0.00685726 0.257704 0)
(-0.000147025 0.257186 0)
(-0.00368593 0.257614 0)
(0.00462686 0.279235 0)
(0.00977331 0.280034 0)
(0.0136879 0.279108 0)
(0.0165484 0.278746 0)
(0.0192761 0.278391 0)
(0.0211694 0.2779 0)
(0.0223711 0.276988 0)
(0.0224717 0.275491 0)
(0.0211521 0.272988 0)
(0.0182402 0.269847 0)
(0.0138554 0.266077 0)
(0.00954268 0.262074 0)
(0.00638884 0.261255 0)
(0.00527659 0.260911 0)
(0.00625707 0.259036 0)
(0.00797517 0.259196 0)
(0.00969829 0.259902 0)
(0.0102496 0.260495 0)
(0.00955758 0.261249 0)
(0.00867176 0.261815 0)
(0.00817375 0.26202 0)
(0.0073153 0.261934 0)
(0.00728218 0.261612 0)
(0.00185649 0.259623 0)
(-0.0014052 0.26163 0)
(0.00950565 0.270548 0)
(0.0149912 0.271975 0)
(0.0155306 0.271242 0)
(0.0195997 0.270563 0)
(0.023119 0.269846 0)
(0.0253813 0.269116 0)
(0.0255833 0.268273 0)
(0.0229845 0.267043 0)
(0.0173691 0.265611 0)
(0.0101819 0.263659 0)
(0.00407472 0.261555 0)
(0.000981026 0.262923 0)
(0.000524976 0.263721 0)
(0.00271875 0.26346 0)
(0.00676704 0.264581 0)
(0.0105724 0.265024 0)
(0.0120518 0.265205 0)
(0.0118501 0.265262 0)
(0.0106069 0.265456 0)
(0.00895062 0.265704 0)
(0.00829888 0.26584 0)
(0.00790035 0.265658 0)
(0.00705608 0.265282 0)
(0.00278189 0.264497 0)
(0.000584929 0.264363 0)
(0.0148924 0.260772 0)
(0.0182783 0.26183 0)
(0.0152571 0.259706 0)
(0.0217111 0.259121 0)
(0.0260203 0.258204 0)
(0.0284663 0.257184 0)
(0.0264179 0.256247 0)
(0.0187798 0.256096 0)
(0.00865286 0.255986 0)
(-0.000251026 0.257352 0)
(-0.00503565 0.263419 0)
(-0.00599096 0.266194 0)
(-0.0044754 0.266329 0)
(-0.00046029 0.268971 0)
(0.00532987 0.27009 0)
(0.00909047 0.270195 0)
(0.00996362 0.269869 0)
(0.0095804 0.2696 0)
(0.00867991 0.269407 0)
(0.00789328 0.269366 0)
(0.00808095 0.269275 0)
(0.00814389 0.268843 0)
(0.00608593 0.268276 0)
(0.00622912 0.268429 0)
(0.00489895 0.268004 0)
(0.0195138 0.251291 0)
(0.0215567 0.251935 0)
(0.0145523 0.250674 0)
(0.0243911 0.24966 0)
(0.0277692 0.248463 0)
(0.0267334 0.247921 0)
(0.0189422 0.248706 0)
(0.00849258 0.249326 0)
(-0.00211514 0.253871 0)
(-0.00841434 0.261968 0)
(-0.0103036 0.265792 0)
(-0.010361 0.267175 0)
(-0.0075387 0.27177 0)
(-0.00203023 0.273668 0)
(0.00276082 0.274342 0)
(0.0051419 0.274037 0)
(0.00564152 0.273514 0)
(0.00563043 0.273106 0)
(0.00549453 0.272749 0)
(0.00552771 0.272493 0)
(0.00569933 0.272147 0)
(0.00550509 0.271544 0)
(0.0031554 0.271038 0)
(0.00795638 0.27081 0)
(0.00806251 0.271373 0)
(0.0210656 0.247851 0)
(0.0211769 0.248386 0)
(0.0119462 0.248278 0)
(0.0228649 0.246947 0)
(0.0227386 0.246134 0)
(0.0175949 0.24685 0)
(0.00940715 0.248533 0)
(-0.00162292 0.258345 0)
(-0.00760803 0.265044 0)
(-0.0104631 0.266486 0)
(-0.012476 0.267297 0)
(-0.0113781 0.273524 0)
(-0.00744134 0.275693 0)
(-0.00350079 0.276911 0)
(-0.000895377 0.277027 0)
(0.000115052 0.276642 0)
(0.000467776 0.276222 0)
(0.000592767 0.275868 0)
(0.000569081 0.275537 0)
(0.000458799 0.275242 0)
(0.000105863 0.274938 0)
(0.000167516 0.274584 0)
(-0.000697603 0.274314 0)
(0.00667165 0.27309 0)
(0.00823771 0.272464 0)
(0.0208491 0.251248 0)
(0.0195214 0.251241 0)
(0.00837672 0.251015 0)
(0.0174764 0.25015 0)
(0.0148518 0.250399 0)
(0.0113501 0.252999 0)
(0.00256261 0.261036 0)
(-0.00454381 0.264659 0)
(-0.00725252 0.266506 0)
(-0.0109773 0.271501 0)
(-0.0120139 0.275462 0)
(-0.0095424 0.276462 0)
(-0.0074424 0.278049 0)
(-0.0059529 0.278489 0)
(-0.00537517 0.278445 0)
(-0.00528559 0.278251 0)
(-0.00534643 0.278064 0)
(-0.00557371 0.277886 0)
(-0.00583745 0.277759 0)
(-0.00580818 0.277688 0)
(-0.0054448 0.277668 0)
(-0.00380669 0.277677 0)
(-0.00231265 0.277568 0)
(0.00555483 0.276958 0)
(0.00681174 0.274466 0)
(0.0207947 0.25649 0)
(0.0182877 0.256175 0)
(0.00467376 0.256402 0)
(0.0117666 0.256192 0)
(0.00941623 0.25727 0)
(0.00654687 0.261373 0)
(0.000502329 0.263964 0)
(-0.00365648 0.266866 0)
(-0.00826782 0.272555 0)
(-0.0103212 0.274612 0)
(-0.00894386 0.276645 0)
(-0.00865533 0.278336 0)
(-0.00874829 0.278836 0)
(-0.00910707 0.279032 0)
(-0.00964194 0.279105 0)
(-0.0101386 0.279152 0)
(-0.0105767 0.279208 0)
(-0.0108459 0.279294 0)
(-0.010636 0.279464 0)
(-0.0096634 0.279686 0)
(-0.00783647 0.279884 0)
(-0.0047248 0.279971 0)
(-0.00204909 0.279561 0)
(0.00420999 0.27891 0)
(0.00453238 0.276691 0)
(0.0198269 0.261755 0)
(0.0174999 0.261105 0)
(0.00270638 0.261766 0)
(0.00817319 0.261927 0)
(0.00674154 0.263896 0)
(0.00476535 0.266817 0)
(0.00132058 0.269468 0)
(-0.00264326 0.272529 0)
(-0.00550605 0.273991 0)
(-0.00661849 0.276297 0)
(-0.00757882 0.277921 0)
(-0.00888774 0.278486 0)
(-0.0100058 0.278833 0)
(-0.0109121 0.279124 0)
(-0.0115885 0.279383 0)
(-0.0120364 0.279629 0)
(-0.0121703 0.279886 0)
(-0.0118375 0.2802 0)
(-0.0107617 0.280561 0)
(-0.00877713 0.280865 0)
(-0.00604036 0.281017 0)
(-0.00289454 0.280904 0)
(-0.000697183 0.280465 0)
(0.00245174 0.280063 0)
(0.00224168 0.278727 0)
(0.0185927 0.265692 0)
(0.0165269 0.264754 0)
(0.00173579 0.265602 0)
(0.00646314 0.266323 0)
(0.00522138 0.268136 0)
(0.00502614 0.270255 0)
(0.00220718 0.272552 0)
(-0.000434029 0.274539 0)
(-0.00267377 0.275971 0)
(-0.00468661 0.276945 0)
(-0.00671806 0.277583 0)
(-0.00833892 0.278112 0)
(-0.00937816 0.278611 0)
(-0.00993207 0.279089 0)
(-0.0100446 0.27952 0)
(-0.00974042 0.279923 0)
(-0.00901342 0.280273 0)
(-0.00795448 0.280589 0)
(-0.00668872 0.28087 0)
(-0.00501556 0.281018 0)
(-0.00294935 0.281016 0)
(-0.000873104 0.280876 0)
(0.000310627 0.280702 0)
(0.00123809 0.280643 0)
(0.000961308 0.280516 0)
(0.0162177 0.268403 0)
(0.0148535 0.267117 0)
(0.00160157 0.267904 0)
(0.00577663 0.269132 0)
(0.00527773 0.270614 0)
(0.00518214 0.271917 0)
(0.00328525 0.273623 0)
(0.00131986 0.274942 0)
(-0.001085 0.2758 0)
(-0.00361907 0.276407 0)
(-0.00568887 0.277032 0)
(-0.00696585 0.277729 0)
(-0.0074237 0.278444 0)
(-0.00708605 0.279123 0)
(-0.00610131 0.279696 0)
(-0.00482755 0.280201 0)
(-0.00345482 0.28062 0)
(-0.00205727 0.280921 0)
(-0.000981269 0.281084 0)
(-0.00018004 0.281171 0)
(0.000769439 0.281158 0)
(0.00184767 0.281121 0)
(0.000917183 0.281242 0)
(4.13881e-05 0.281613 0)
(0.000573063 0.282517 0)
(0.0136949 0.269744 0)
(0.0129593 0.26818 0)
(0.00153199 0.269058 0)
(0.00531719 0.269651 0)
(0.0056191 0.270856 0)
(0.00563669 0.272331 0)
(0.00406519 0.273613 0)
(0.00200959 0.274539 0)
(-0.000754387 0.275188 0)
(-0.00331898 0.275833 0)
(-0.00501869 0.276584 0)
(-0.00564436 0.277386 0)
(-0.00523341 0.278181 0)
(-0.00405266 0.278928 0)
(-0.00207393 0.279678 0)
(0.000293489 0.280035 0)
(0.00215032 0.280206 0)
(0.00353885 0.280271 0)
(0.00450092 0.280131 0)
(0.00501741 0.279997 0)
(0.00493524 0.279688 0)
(0.00440731 0.278844 0)
(-0.000244591 0.278759 0)
(-0.0030459 0.280764 0)
(-0.000947128 0.282343 0)
(0.00991681 0.270604 0)
(0.0101262 0.268814 0)
(0.00187894 0.269359 0)
(0.00528238 0.269901 0)
(0.00583078 0.27064 0)
(0.00604482 0.271689 0)
(0.00442522 0.272589 0)
(0.00189901 0.273311 0)
(-0.00121195 0.273933 0)
(-0.00380678 0.274615 0)
(-0.00529997 0.275341 0)
(-0.00546777 0.276033 0)
(-0.00447372 0.27659 0)
(-0.00246577 0.27699 0)
(-0.000204036 0.277336 0)
(0.00174581 0.277426 0)
(0.00270447 0.277047 0)
(0.00319235 0.276509 0)
(0.00375452 0.276078 0)
(0.00409748 0.275354 0)
(0.00337687 0.274432 0)
(0.000835832 0.274448 0)
(-0.0020133 0.274098 0)
(-0.00429925 0.274893 0)
(-0.00264825 0.276111 0)
(0.00639608 0.267709 0)
(0.00730754 0.26577 0)
(0.00308183 0.26868 0)
(0.00595264 0.268989 0)
(0.00675094 0.269358 0)
(0.00672811 0.269823 0)
(0.00478821 0.270473 0)
(0.0017398 0.270836 0)
(-0.00194949 0.271237 0)
(-0.00500808 0.271691 0)
(-0.00682237 0.27215 0)
(-0.00729934 0.272532 0)
(-0.00647474 0.272758 0)
(-0.0047434 0.272542 0)
(-0.00366248 0.271624 0)
(-0.00410304 0.271237 0)
(-0.00420076 0.271433 0)
(-0.00381649 0.271353 0)
(-0.00336378 0.270884 0)
(-0.00283113 0.270315 0)
(-0.00288752 0.269784 0)
(-0.00419893 0.269249 0)
(-0.00340117 0.269455 0)
(-0.00337316 0.270152 0)
(-0.00297272 0.270419 0)
(0.00170595 0.269361 0)
(0.0045766 0.267118 0)
(0.00354122 0.267739 0)
(0.00670212 0.267559 0)
(0.0078315 0.267065 0)
(0.0081839 0.266675 0)
(0.00584652 0.2668 0)
(0.00179437 0.266853 0)
(-0.00262935 0.266788 0)
(-0.00640276 0.26682 0)
(-0.00886028 0.266907 0)
(-0.00992401 0.26695 0)
(-0.0100878 0.266972 0)
(-0.0103015 0.267212 0)
(-0.0106711 0.267273 0)
(-0.0106992 0.267173 0)
(-0.0105873 0.26719 0)
(-0.00999685 0.267456 0)
(-0.00921363 0.267667 0)
(-0.00811627 0.267741 0)
(-0.00678219 0.267739 0)
(-0.00556052 0.267869 0)
(-0.00369624 0.268186 0)
(-0.00370248 0.267967 0)
(-0.00279211 0.26771 0)
(-0.0017652 0.270406 0)
(0.00146185 0.268805 0)
(0.0047063 0.266483 0)
(0.00707459 0.26595 0)
(0.00887203 0.26598 0)
(0.00995027 0.265167 0)
(0.00837876 0.263253 0)
(0.00340078 0.261856 0)
(-0.00201116 0.261054 0)
(-0.00656459 0.260567 0)
(-0.00975876 0.260345 0)
(-0.0114625 0.260255 0)
(-0.0124279 0.260221 0)
(-0.0149534 0.260533 0)
(-0.0163698 0.261695 0)
(-0.0150152 0.262786 0)
(-0.013522 0.263475 0)
(-0.01251 0.264332 0)
(-0.0114294 0.265153 0)
(-0.0100075 0.265772 0)
(-0.00763797 0.266347 0)
(-0.0050988 0.266559 0)
(-0.00320921 0.266725 0)
(-0.0039801 0.266854 0)
(-0.00314167 0.266909 0)
(-0.00642795 0.267905 0)
(-0.00167709 0.266514 0)
(0.00689853 0.266095 0)
(0.00804591 0.265283 0)
(0.0102715 0.26402 0)
(0.0113499 0.261863 0)
(0.0110591 0.25916 0)
(0.00711199 0.257997 0)
(0.00137591 0.256188 0)
(-0.00413951 0.255067 0)
(-0.00810415 0.254604 0)
(-0.0104571 0.254615 0)
(-0.0114554 0.254923 0)
(-0.0127346 0.255353 0)
(-0.0136941 0.256589 0)
(-0.0132106 0.258336 0)
(-0.0125113 0.260199 0)
(-0.0117041 0.261625 0)
(-0.010558 0.262966 0)
(-0.00927037 0.26398 0)
(-0.00678975 0.264718 0)
(-0.00408511 0.265396 0)
(-0.00235943 0.265535 0)
(-0.00336015 0.265406 0)
(-0.00262534 0.265674 0)
(-0.00964569 0.267368 0)
(-0.00419296 0.266809 0)
(0.00844521 0.266812 0)
(0.00884522 0.265788 0)
(0.0109454 0.264091 0)
(0.0118477 0.263423 0)
(0.0122471 0.26102 0)
(0.0107259 0.254219 0)
(0.00606185 0.253941 0)
(0.000876415 0.252517 0)
(-0.00382303 0.251842 0)
(-0.00669708 0.251917 0)
(-0.00783765 0.252596 0)
(-0.00794059 0.253569 0)
(-0.00809171 0.255007 0)
(-0.00871509 0.256669 0)
(-0.00895973 0.258314 0)
(-0.00846677 0.259924 0)
(-0.0075029 0.261369 0)
(-0.00651356 0.262757 0)
(-0.00521703 0.263728 0)
(-0.00304529 0.26411 0)
(-0.0014275 0.264337 0)
(-0.00224611 0.264316 0)
(-0.00175808 0.264557 0)
(-0.00918503 0.267766 0)
(-0.00470901 0.268666 0)
(0.00858494 0.26766 0)
(0.00891819 0.26664 0)
(0.0108586 0.265117 0)
(0.0117131 0.262313 0)
(0.0118269 0.260013 0)
(0.0113214 0.258727 0)
(0.00916521 0.25465 0)
(0.00540944 0.252823 0)
(0.0013026 0.251825 0)
(-0.00176583 0.251837 0)
(-0.00305243 0.25256 0)
(-0.00322232 0.25366 0)
(-0.00311376 0.254913 0)
(-0.00389333 0.256356 0)
(-0.00458 0.257873 0)
(-0.00435514 0.25937 0)
(-0.00396186 0.260594 0)
(-0.00360132 0.261597 0)
(-0.00310019 0.26252 0)
(-0.00209909 0.263084 0)
(-0.000806156 0.263357 0)
(-0.00157889 0.263552 0)
(-0.00137864 0.263682 0)
(-0.00703523 0.267676 0)
(-0.00426439 0.269051 0)
(0.00679325 0.268019 0)
(0.00808457 0.267091 0)
(0.00980303 0.265774 0)
(0.0106607 0.263746 0)
(0.0107815 0.263372 0)
(0.0101696 0.263283 0)
(0.0097493 0.257511 0)
(0.00825814 0.25456 0)
(0.00567127 0.253536 0)
(0.00307775 0.253462 0)
(0.00153111 0.254064 0)
(0.000959309 0.25503 0)
(0.00090596 0.256146 0)
(1.5196e-06 0.2573 0)
(-0.000775885 0.258518 0)
(-0.000936149 0.259633 0)
(-0.00121834 0.260487 0)
(-0.00133982 0.261204 0)
(-0.00165274 0.261932 0)