/*--------------------------------*- C++ -*----------------------------------*\
| =========                 |                                                 |
| \\      /  F ield         | OpenFOAM: The Open Source CFD Toolbox           |
|  \\    /   O peration     | Version:  2312                                  |
|   \\  /    A nd           | Website:  www.openfoam.com                      |
|    \\/     M anipulation  |                                                 |
\*---------------------------------------------------------------------------*/
FoamFile
{
    version     2.0;
    format      ascii;
    arch        "LSB;label=32;scalar=64";
    class       volScalarField;
    location    "0.075/water";
    object      nut.gas;
}
// * * * * * * * * * * * * * * * * * * * * * * * * * * * * * * * * * * * * * //

dimensions      [0 2 -1 0 0 0 0];

internalField   nonuniform List<scalar> 
1496
(
5.18296916139e-06
4.57402440122e-06
3.90266112285e-06
3.37195637093e-06
2.8548492775e-06
2.35901486526e-06
2.01162834619e-06
1.84608789687e-06
1.7407598268e-06
1.52806346477e-06
1.17250335726e-06
8.15630016307e-07
5.54190221154e-07
3.66638561161e-07
2.33034354689e-07
1.27330054452e-07
5.0826055897e-08
1.35490865144e-08
2.66821101021e-09
3.64551362192e-10
5.20189246124e-06
4.61309037026e-06
3.93777319628e-06
3.38242290617e-06
2.83658444779e-06
2.31949538126e-06
1.9679629452e-06
1.804575527e-06
1.70574618052e-06
1.50245173114e-06
1.16074532864e-06
8.17620965515e-07
5.56819790869e-07
3.67428157969e-07
2.3423491578e-07
1.29409259353e-07
5.25281413247e-08
1.4269590936e-08
2.73099307163e-09
3.98707101401e-10
5.24039309596e-06
4.68877968182e-06
4.00570980194e-06
3.39685443734e-06
2.79432714305e-06
2.25778278433e-06
1.91479796563e-06
1.75949053326e-06
1.66108360636e-06
1.45406732564e-06
1.12047897876e-06
7.93781950565e-07
5.41621402389e-07
3.58081462e-07
2.29220293025e-07
1.26518217989e-07
5.11818233169e-08
1.38449045566e-08
2.61958179439e-09
3.88647832111e-10
5.32383585403e-06
4.80791056532e-06
4.10304319795e-06
3.41558928436e-06
2.74016535912e-06
2.19277364382e-06
1.8636092577e-06
1.7147553559e-06
1.60730772554e-06
1.3840206173e-06
1.0544613507e-06
7.47808385074e-07
5.11539796259e-07
3.40888178327e-07
2.19298223136e-07
1.19549742397e-07
4.72897312727e-08
1.24624715548e-08
2.32583354488e-09
3.4055460717e-10
5.44684939573e-06
4.94614114055e-06
4.20726588012e-06
3.43427373124e-06
2.69457459363e-06
2.14498279499e-06
1.82315475546e-06
1.67164269611e-06
1.5429462271e-06
1.29370116794e-06
9.68958645291e-07
6.87350799909e-07
4.72929585546e-07
3.19871466697e-07
2.06251001077e-07
1.09667862339e-07
4.16770600058e-08
1.04895999186e-08
1.97190680036e-09
2.74511709982e-10
5.6322567687e-06
5.1057158544e-06
4.31809945858e-06
3.4638032841e-06
2.67795896307e-06
2.12430594671e-06
1.79409380964e-06
1.62739889317e-06
1.46645830927e-06
1.18860803049e-06
8.73589123297e-07
6.2131419603e-07
4.33028996682e-07
2.98348937435e-07
1.91420607825e-07
9.79995069481e-08
3.52518775646e-08
8.33026599473e-09
1.57641194365e-09
2.09744521748e-10
5.85479266194e-06
5.28924116513e-06
4.45327862653e-06
3.52963932485e-06
2.7056479994e-06
2.12989590928e-06
1.77100121721e-06
1.57744834452e-06
1.37955766908e-06
1.07969893284e-06
7.79350515159e-07
5.57650305797e-07
3.96636322859e-07
2.7779717053e-07
1.75632173007e-07
8.55978716305e-08
2.88213339415e-08
6.31838109271e-09
1.1534740449e-09
1.57163978892e-10
6.08726454527e-06
5.50138085012e-06
4.63158544002e-06
3.64512680602e-06
2.77737049034e-06
2.15594051881e-06
1.74771607916e-06
1.51876504152e-06
1.28919754163e-06
9.80217105752e-07
6.96161191632e-07
5.02075675394e-07
3.65443968249e-07
2.58652479619e-07
1.59569571776e-07
7.34216657284e-08
2.29719075307e-08
4.73705055221e-09
7.92994369337e-10
1.19526831995e-10
6.33823997449e-06
5.76066290054e-06
4.88265883014e-06
3.82853517007e-06
2.88823321923e-06
2.19692181659e-06
1.7210410283e-06
1.45246972711e-06
1.20519640484e-06
8.98898965877e-07
6.2994790749e-07
4.56606324678e-07
3.39422726767e-07
2.4102356303e-07
1.4388157162e-07
6.22029733885e-08
1.8018345477e-08
3.65683708197e-09
5.3327734535e-10
9.4662138928e-11
6.57601893019e-06
6.10209211162e-06
5.22729252472e-06
4.08381391503e-06
3.0420920505e-06
2.25456206756e-06
1.69816298686e-06
1.3881508259e-06
1.1373983751e-06
8.37174379703e-07
5.78812825355e-07
4.20488995515e-07
3.17732172173e-07
2.24695493852e-07
1.28992529008e-07
5.23135599105e-08
1.40155767116e-08
2.82841638173e-09
3.61046947025e-10
7.89253066127e-11
7.00218191675e-06
6.65000991442e-06
5.69850127618e-06
4.40439386824e-06
3.23096858119e-06
2.33044829154e-06
1.68900398823e-06
1.33538863889e-06
1.08703552456e-06
7.93229910257e-07
5.38873507204e-07
3.92211247475e-07
2.99104511663e-07
2.09174404154e-07
1.1503844433e-07
4.37733853868e-08
1.08489225224e-08
2.12380640463e-09
2.5017153285e-10
6.91325317781e-11
7.74356130113e-06
7.48256036141e-06
6.25359923576e-06
4.75765161539e-06
3.42929088941e-06
2.41127532561e-06
1.69161581581e-06
1.29462658164e-06
1.0485822228e-06
7.61349843446e-07
5.08080461809e-07
3.69409287144e-07
2.82223318481e-07
1.93996997192e-07
1.01956827442e-07
3.64115743936e-08
8.38048232327e-09
1.54741709533e-09
1.78733391934e-10
6.30754368997e-11
8.62349306158e-06
8.12084519047e-06
6.62899830673e-06
5.03326639952e-06
3.59115998812e-06
2.48335249837e-06
1.70137186037e-06
1.26225989535e-06
1.01341368353e-06
7.32334252476e-07
4.82281234606e-07
3.50187710258e-07
2.66193408698e-07
1.79007101199e-07
8.968424043e-08
3.00454177859e-08
6.59129481543e-09
1.10247752964e-09
1.32187418966e-10
5.93887170088e-11
8.57965180235e-06
8.11546824697e-06
6.72228016311e-06
5.13411579415e-06
3.67536620478e-06
2.53483319553e-06
1.71232094529e-06
1.23391265035e-06
9.74339501006e-07
6.98752669521e-07
4.5786720193e-07
3.32468045179e-07
2.50752147941e-07
1.64403400457e-07
7.83065998111e-08
2.45744187331e-08
5.3914319244e-09
7.75344058136e-10
1.01735688367e-10
5.72815862678e-11
8.35178386806e-06
8.02408372542e-06
6.72074757731e-06
5.17122581924e-06
3.73035311375e-06
2.57572631997e-06
1.72164068204e-06
1.20752902804e-06
9.29646491273e-07
6.59001827495e-07
4.33030080512e-07
3.1514917296e-07
2.36175432811e-07
1.50650227953e-07
6.80717426248e-08
1.99855399322e-08
4.44075465346e-09
5.46778161324e-10
8.20961217265e-11
5.63118353037e-11
8.53734003697e-06
8.17395078205e-06
6.82488860974e-06
5.25808551347e-06
3.81112747687e-06
2.62787853857e-06
1.73420649242e-06
1.18345680062e-06
8.83085881149e-07
6.14647715587e-07
4.0644014984e-07
2.98418080544e-07
2.22992366923e-07
1.38395518649e-07
5.93411967119e-08
1.63128093148e-08
3.56351185985e-09
3.96209593733e-10
6.99313044132e-11
5.62253056434e-11
9.06064352386e-06
8.68142484234e-06
7.18031727108e-06
5.50039221082e-06
3.97705572642e-06
2.71964977621e-06
1.76064443037e-06
1.16351059189e-06
8.36665659577e-07
5.6863893789e-07
3.79140726587e-07
2.82599409239e-07
2.11563888476e-07
1.28155137527e-07
5.23550515775e-08
1.36124517359e-08
2.8355528924e-09
3.03017929708e-10
6.2966650162e-11
5.68467250539e-11
9.47049021973e-06
9.24437641329e-06
7.68666097392e-06
5.87594022241e-06
4.22488367132e-06
2.8512724625e-06
1.80235936651e-06
1.14882632137e-06
7.91072191609e-07
5.21900472746e-07
3.51573968755e-07
2.67720644698e-07
2.01815374638e-07
1.19936222004e-07
4.69923843532e-08
1.1973749306e-08
2.30860230441e-09
2.48658420288e-10
5.95669504072e-11
5.80225770365e-11
9.6496445133e-06
9.58067209424e-06
8.08107902625e-06
6.20737542754e-06
4.44893746367e-06
2.96542697693e-06
1.83434746296e-06
1.13230842404e-06
7.44185882054e-07
4.73870679112e-07
3.23799289003e-07
2.53647375256e-07
1.93323746108e-07
1.13202175503e-07
4.27981526605e-08
1.11374752502e-08
1.94885319275e-09
2.18656280747e-10
5.85512058831e-11
5.96203157178e-11
9.50650553817e-06
9.56629983094e-06
8.17853940351e-06
6.31489709275e-06
4.51463556418e-06
2.97901684271e-06
1.81723017094e-06
1.09984654341e-06
6.90200266129e-07
4.23238536726e-07
2.95999702731e-07
2.40411289549e-07
1.85520614848e-07
1.07141718825e-07
3.91944065009e-08
1.0587594388e-08
1.69691016623e-09
2.03093780788e-10
5.91148753723e-11
6.15683886732e-11
9.08890465515e-06
9.20030398841e-06
7.91625996648e-06
6.10933548378e-06
4.34306369588e-06
2.84433977635e-06
1.73113349153e-06
1.04243151139e-06
6.23732887529e-07
3.70142089209e-07
2.69318536613e-07
2.28252610714e-07
1.77874272788e-07
1.01030605746e-07
3.57216957647e-08
9.98851019583e-09
1.50786684e-09
1.9624470078e-10
6.08220175867e-11
6.39066575763e-11
8.49815810282e-06
8.56551018977e-06
7.31194115254e-06
5.6014440662e-06
3.94976650778e-06
2.58260995742e-06
1.59386781102e-06
9.63936223694e-07
5.44495709378e-07
3.17928076406e-07
2.45787651291e-07
2.17308702832e-07
1.70040010489e-07
9.44980245548e-08
3.2215490445e-08
9.2013848734e-09
1.36361832487e-09
1.95976199719e-10
6.36274633235e-11
6.68339410868e-11
7.81815489315e-06
7.76917989243e-06
6.46650916617e-06
4.8744123694e-06
3.41786439934e-06
2.26984048659e-06
1.45211369755e-06
8.79221625319e-07
4.60508236312e-07
2.72441292645e-07
2.27074017775e-07
2.07536765667e-07
1.61973426931e-07
8.76372243509e-08
3.02880948584e-08
8.29230143984e-09
1.26852589058e-09
2.02890864183e-10
6.79001482846e-11
7.0771460745e-11
6.8132778087e-06
6.59321723384e-06
5.35875787036e-06
4.01478167459e-06
2.87277877167e-06
2.0115040896e-06
1.3595275987e-06
8.09040442921e-07
3.86579274584e-07
2.38783454926e-07
2.13545723839e-07
1.98873990436e-07
1.53919001545e-07
8.08925930286e-08
3.33888108412e-08
7.52867016318e-09
1.23749438959e-09
2.19516380912e-10
7.45052133201e-11
7.64718612376e-11
5.54381409847e-06
5.01319219441e-06
4.15394169123e-06
3.24415819641e-06
2.4941793564e-06
1.90003863569e-06
1.3807449896e-06
7.72842776978e-07
3.35808161971e-07
2.18482010404e-07
2.0439566502e-07
1.91191393197e-07
1.46161212935e-07
7.68839825e-08
3.25333466525e-08
7.15383977923e-09
1.28837224001e-09
2.50452817816e-10
8.50807813522e-11
8.51823651107e-11
4.33665188585e-06
3.85450982264e-06
3.33687924922e-06
2.82553610048e-06
2.38062898369e-06
1.96563307728e-06
1.48580839751e-06
7.65733530761e-07
3.12741404713e-07
2.10405124507e-07
1.98622429967e-07
1.84179375607e-07
1.38662372261e-07
9.37242217262e-08
3.13282520893e-08
7.27544250854e-09
1.44622085765e-09
3.04428490144e-10
1.02662471878e-10
9.87668953478e-11
3.75215402796e-06
3.33830223233e-06
3.03059309928e-06
2.75252878291e-06
2.47570485664e-06
2.20782858359e-06
1.6129244021e-06
7.95385926883e-07
3.17574943121e-07
2.14281952545e-07
1.95770701802e-07
1.77595910802e-07
1.32031893745e-07
9.32315589782e-08
3.1718467457e-08
8.001553608e-09
1.76174175508e-09
3.98996631037e-10
1.32746463095e-10
1.19454344827e-10
3.55716737444e-06
3.21907359206e-06
3.02392493841e-06
2.85253104381e-06
2.78015446614e-06
2.42949374518e-06
1.76847176302e-06
8.77027060451e-07
3.54170679285e-07
2.32128981296e-07
1.96766280354e-07
1.71579116563e-07
1.52376252474e-07
9.31058346179e-08
3.40966984942e-08
9.56484307265e-09
2.34232186524e-09
5.69110479786e-10
1.8509426807e-10
1.48912916355e-10
3.52134826494e-06
3.25314112144e-06
3.09456703131e-06
3.13401904135e-06
3.03053708546e-06
2.68502150384e-06
1.93177694345e-06
1.00170266088e-06
4.32072653634e-07
2.67261484504e-07
2.05058476195e-07
1.67882497218e-07
1.67292360945e-07
9.66273375982e-08
3.91412895406e-08
1.23675008453e-08
3.36666614053e-09
8.69812838339e-10
2.72540287413e-10
1.85972830621e-10
3.72475688806e-06
3.34769961628e-06
3.25539788556e-06
3.32713893267e-06
3.33927699537e-06
2.95193676682e-06
2.15757805302e-06
1.1639641232e-06
5.89273145397e-07
3.24076620689e-07
2.25349347319e-07
1.84434438095e-07
1.7315380278e-07
1.04948806938e-07
4.72152276125e-08
1.67317542966e-08
5.00122101506e-09
1.35820025485e-09
4.05699804658e-10
2.27174042361e-10
3.91739912852e-06
3.40533035492e-06
3.42020407296e-06
3.62044177743e-06
3.68800174651e-06
3.34352834549e-06
2.37699151694e-06
1.42328494004e-06
7.52011759667e-07
4.4502553318e-07
2.7880437008e-07
2.50277960502e-07
1.87790247601e-07
1.19348948586e-07
5.93100016438e-08
2.32376865809e-08
7.48440610506e-09
2.10730978133e-09
5.96030574571e-10
2.70768935319e-10
3.95708497804e-06
3.41152061404e-06
3.59371685241e-06
3.96525698687e-06
4.24355574343e-06
3.6794291869e-06
2.79773397942e-06
1.70057234594e-06
1.016212042e-06
5.69126371135e-07
4.19204349422e-07
3.01937238084e-07
2.13328515046e-07
1.41001371683e-07
7.67321802188e-08
3.27064228579e-08
1.11648079742e-08
3.21826156131e-09
8.64950738472e-10
3.20618781164e-10
3.94951251861e-06
3.48974314968e-06
3.60065146737e-06
4.14807014922e-06
4.50134396727e-06
4.13271236743e-06
3.07419007908e-06
2.02922821309e-06
1.25732229743e-06
7.68121282452e-07
6.2035503459e-07
3.88953112337e-07
2.50652649153e-07
1.69724350397e-07
1.01158114259e-07
4.69767590245e-08
1.67582406751e-08
4.8490523476e-09
1.23303841461e-09
3.75645576844e-10
4.2740995266e-06
3.77229443865e-06
3.77743440919e-06
4.33884892977e-06
4.77526696316e-06
4.50900735015e-06
3.63835317371e-06
2.60273547986e-06
1.76256938917e-06
1.15359976327e-06
7.01083511443e-07
5.38072852927e-07
3.07483437154e-07
2.0249143844e-07
1.3204245253e-07
6.77234504291e-08
2.49619323269e-08
7.01302078718e-09
1.6564899888e-09
4.19371402599e-10
4.54693438502e-06
3.84049520095e-06
3.68051170754e-06
4.19456166266e-06
4.72842829054e-06
4.70495786555e-06
4.06923949149e-06
3.16145463376e-06
2.35062258806e-06
1.66596620557e-06
1.06749824543e-06
5.95565015603e-07
2.86789571408e-07
2.25471016104e-07
1.58413505442e-07
9.47303988057e-08
3.80626598208e-08
1.03146103866e-08
2.20079068191e-09
4.56389681956e-10
4.26003892885e-06
3.58027259731e-06
3.4424247659e-06
3.9274353945e-06
4.45577995972e-06
4.56313085301e-06
4.16649870875e-06
3.48450313687e-06
2.77441056698e-06
2.1024441162e-06
1.45381999544e-06
8.387822639e-07
3.78942923334e-07
1.85866662e-07
1.56129167655e-07
1.18615868846e-07
5.77042595417e-08
1.62133365786e-08
3.12343582226e-09
5.23519809209e-10
3.9624770506e-06
3.45116991046e-06
3.37245460767e-06
3.8356011707e-06
4.27980985897e-06
4.38387958814e-06
4.10848328325e-06
3.58070176815e-06
2.95394028586e-06
2.30213492677e-06
1.66498416777e-06
1.03561246342e-06
4.67012816648e-07
1.98280584014e-07
1.30039658824e-07
9.72721658664e-08
7.69460902587e-08
2.60106770852e-08
4.83603940444e-09
6.61932672399e-10
3.51908034326e-09
6.10605229329e-09
8.32502770921e-09
1.08380670723e-08
1.34878351061e-08
1.3878694977e-08
1.50359872862e-08
2.71691066337e-08
3.97846378044e-08
1.53231069517e-07
1.35552213648e-06
3.01106620618e-06
4.07978909218e-06
4.66665375646e-06
5.0358141596e-06
5.60634987514e-06
1.04802207694e-10
1.40862883236e-10
3.66811401295e-10
1.21159860748e-09
3.34880519014e-09
5.99176718728e-09
8.22213918216e-09
1.058435317e-08
1.29827301039e-08
1.36125998325e-08
1.47631390992e-08
2.65445940777e-08
3.9441132664e-08
1.61962044807e-07
1.3863217832e-06
3.03441879958e-06
4.09752266914e-06
4.67653720958e-06
5.04448789429e-06
5.62268910443e-06
1.08660680629e-10
1.3981754199e-10
3.5327584019e-10
1.13850006704e-09
3.21815375058e-09
5.91563584243e-09
8.16130342575e-09
1.0410196511e-08
1.25648863196e-08
1.33258047199e-08
1.45795148452e-08
2.61717147555e-08
3.91437632832e-08
1.7251097977e-07
1.42289042575e-06
3.06317753479e-06
4.11867480433e-06
4.68816303813e-06
5.05479568382e-06
5.63791084187e-06
1.08332700181e-10
1.40547796985e-10
3.51152085697e-10
1.10923940971e-09
3.15293279423e-09
5.89753177842e-09
8.15536850006e-09
1.03260976293e-08
1.22785432074e-08
1.30714148297e-08
1.44940256439e-08
2.60918793902e-08
3.88844675283e-08
1.85236247462e-07
1.4658969354e-06
3.09789647544e-06
4.14347208327e-06
4.70079595685e-06
5.06262117588e-06
5.65131971516e-06
1.04019080978e-10
1.42549189728e-10
3.58396951283e-10
1.12160196893e-09
3.17191274929e-09
5.94960764801e-09
8.20865330398e-09
1.03299033163e-08
1.21374419217e-08
1.28945827454e-08
1.45163264783e-08
2.63200976844e-08
3.86257359863e-08
2.0044595745e-07
1.51543102432e-06
3.13844569228e-06
4.17166349753e-06
4.71413796125e-06
5.06874597118e-06
5.66291773194e-06
9.78205642219e-11
1.45632709459e-10
3.72394254263e-10
1.16546916535e-09
3.26601569303e-09
6.06570706712e-09
8.30844692924e-09
1.03984973045e-08
1.21174336279e-08
1.28165798035e-08
1.46577149402e-08
2.68466824467e-08
3.83093576156e-08
2.18380595849e-07
1.57104122503e-06
3.18413584035e-06
4.20269144832e-06
4.72792204855e-06
5.07349772673e-06
5.67284148012e-06
9.20249631169e-11
1.50500908562e-10
3.93063359175e-10
1.23396252432e-09
3.4136261054e-09
6.22794150245e-09
8.44013276381e-09
1.04992418988e-08
1.21480998935e-08
1.27973187205e-08
1.49231186119e-08
2.76389298364e-08
3.78822081202e-08
2.39200104877e-07
1.63185311343e-06
3.23392252814e-06
4.2358383806e-06
4.74182686464e-06
5.07692433964e-06
5.68121560741e-06
8.77952991055e-11
1.57368826117e-10
4.21878236116e-10
1.3366836509e-09
3.63046115123e-09
6.44315872506e-09
8.61148079824e-09
1.06526496539e-08
1.22620850201e-08
1.28500811373e-08
1.53109651691e-08
2.8643745358e-08
3.73332142452e-08
2.62974304947e-07
1.69672959847e-06
3.28662500406e-06
4.27036335539e-06
4.75551397623e-06
5.07893134064e-06
5.68809363424e-06
8.54363659141e-11
1.65880120417e-10
4.57437375049e-10
1.46844923426e-09
3.89666905209e-09
6.68865941624e-09
8.80685804035e-09
1.08512416251e-08
1.24710434804e-08
1.30059350394e-08
1.58332002816e-08
2.97904845539e-08
3.67237620641e-08
2.89677837487e-07
1.76443888959e-06
3.34111244841e-06
4.30560909705e-06
4.76868347831e-06
5.07935601838e-06
5.69343081283e-06
8.48307871714e-11
1.75705071795e-10
4.97777250735e-10
1.6171190701e-09
4.17657747854e-09
6.93689730545e-09
9.00750220549e-09
1.10683049791e-08
1.27203802202e-08
1.32096248334e-08
1.64699196856e-08
3.09978759537e-08
3.61901131842e-08
3.19192293571e-07
1.83380320043e-06
3.39643149667e-06
4.3410658029e-06
4.7811136525e-06
5.07801529625e-06
5.69708171832e-06
8.5662809257e-11
1.86674010521e-10
5.42167535011e-10
1.77689654738e-09
4.45473563732e-09
7.17801013369e-09
9.20686382232e-09
1.12932185194e-08
1.2980316457e-08
1.34243854762e-08
1.72026986772e-08
3.21861337955e-08
3.59118986048e-08
3.51317695443e-07
1.9038083616e-06
3.45186714219e-06
4.37639084073e-06
4.79267864481e-06
5.07474316632e-06
5.69882080039e-06
8.75738766375e-11
1.98711102743e-10
5.90791761886e-10
1.94721810659e-09
4.72913070238e-09
7.41152867158e-09
9.404961923e-09
1.15271948831e-08
1.32504897597e-08
1.36505822486e-08
1.80276759651e-08
3.32830604579e-08
3.60657770757e-08
3.85791638778e-07
1.97365767165e-06
3.50693865204e-06
4.41138931195e-06
4.80334447914e-06
5.06941750315e-06
5.69837675681e-06
9.02617367301e-11
2.11835282555e-10
6.44321483987e-10
2.12894432414e-09
5.00034824172e-09
7.63907168275e-09
9.60385116107e-09
1.17746694902e-08
1.35371221261e-08
1.38974693331e-08
1.89461779218e-08
3.42244576639e-08
3.67916471871e-08
4.22313293023e-07
2.04277367327e-06
3.56135321617e-06
4.44597510736e-06
4.81315530236e-06
5.06197990216e-06
5.69547395702e-06
9.35209047601e-11
2.26187392743e-10
7.03800526151e-10
2.32300699267e-09
5.26896698593e-09
7.86270885422e-09
9.80659701321e-09
1.20411761441e-08
1.38461601279e-08
1.41739986523e-08
1.9959847981e-08
3.49535331411e-08
3.81839524184e-08
4.60570768981e-07
2.1107713383e-06
3.61494918127e-06
4.48013288604e-06
4.82222016566e-06
5.05244906893e-06
5.68987045529e-06
9.72466244738e-11
2.4201840191e-10
7.70448778651e-10
2.52965841542e-09
5.53512230837e-09
8.08438104329e-09
1.0016638664e-08
1.23327530247e-08
1.41831907436e-08
1.44900004765e-08
2.10685412693e-08
3.5421643124e-08
4.03023638846e-08
5.00271558766e-07
2.17743210441e-06
3.66765805009e-06
4.51389872661e-06
4.83071108706e-06
5.04093417523e-06
5.68138983692e-06
1.01415188956e-10
2.59620082091e-10
8.45243900665e-10
2.74749556693e-09
5.79792415866e-09
8.30519312559e-09
1.0236976559e-08
1.26549596722e-08
1.45529442288e-08
1.48572670057e-08
2.22677025394e-08
3.55918733619e-08
4.31899466419e-08
5.41175424885e-07
2.24269435021e-06
3.71949213144e-06
4.54735826956e-06
4.83886912004e-06
5.02764542092e-06
5.66993993629e-06
1.06041661761e-10
2.79218388636e-10
9.28472820867e-10
2.97302425773e-09
6.05539116228e-09
8.52519186347e-09
1.04699394449e-08
1.30127273242e-08
1.49595172212e-08
1.52900905665e-08
2.35458077988e-08
3.54451343876e-08
4.68914642846e-08
5.83128808398e-07
2.30665667067e-06
3.7705469044e-06
4.58065143529e-06
4.84701176711e-06
5.01290183405e-06
5.65551931361e-06
1.11134365583e-10
3.00921582908e-10
1.01969684018e-09
3.20161551114e-09
6.30534826256e-09
8.74403103004e-09
1.07180843672e-08
1.34121222896e-08
1.54089628299e-08
1.58062850121e-08
2.48823640609e-08
3.49862384716e-08
5.14718222229e-08
6.26097545668e-07
2.36956848762e-06
3.82098783501e-06
4.61395935666e-06
4.85552526529e-06
4.99712798836e-06
5.63820922291e-06
1.16693572876e-10
3.24866175622e-10
1.11853736285e-09
3.42964164295e-09
6.54673902465e-09
8.96218717641e-09
1.09860856273e-08
1.38636697945e-08
1.59132174084e-08
1.64279429806e-08
2.6244799302e-08
3.42476412889e-08
5.70378486877e-08
6.70187447523e-07
2.4317807706e-06
3.87100077269e-06
4.64746221087e-06
4.86483707207e-06
4.98084172698e-06
5.61815902738e-06
1.22785077165e-10
3.51590734817e-10
1.22601975561e-09
3.65631879309e-09
6.78050921733e-09
9.18211533271e-09
1.12830369708e-08
1.43860654635e-08
1.64930600042e-08
1.71796972444e-08
2.75818180614e-08
3.32933901483e-08
6.37613465635e-08
7.15630857253e-07
2.49364311893e-06
3.92070460336e-06
4.68127383569e-06
4.87537413747e-06
4.96463686519e-06
5.59557150104e-06
1.29653409285e-10
3.82457970087e-10
1.34545150939e-09
3.88360983601e-09
7.00960734057e-09
9.40915376416e-09
1.16249308039e-08
1.50093625457e-08
1.71782071005e-08
1.80811244007e-08
2.88141662515e-08
3.22286854326e-08
7.18918999889e-08
7.62712995526e-07
2.55536139959e-06
3.9700547733e-06
4.71538363709e-06
4.88752880076e-06
4.94917489202e-06
5.57070040299e-06
1.37817499323e-10
4.1993808297e-10
1.48187020709e-09
4.11378721765e-09
7.23800400765e-09
9.6523729009e-09
1.20375933216e-08
1.57765636822e-08
1.8002445441e-08
1.91297095725e-08
2.98316034721e-08
3.12114764302e-08
8.17464455252e-08
8.11635423505e-07
2.61683671966e-06
4.01875715766e-06
4.7496181423e-06
4.9016347968e-06
4.93518019766e-06
5.54385484666e-06
1.48161045851e-10
4.67721360784e-10
1.63953370086e-09
4.34574425445e-09
7.46896366411e-09
9.92554015165e-09
1.25598357972e-08
1.67398149931e-08
1.89892848929e-08
2.02765188139e-08
3.05097532084e-08
3.04518022107e-08
9.36740518522e-08
8.62349564468e-07
2.67751189205e-06
4.06620328896e-06
4.78362077894e-06
4.91794583357e-06
4.92343078071e-06
5.5154060945e-06
1.62068549971e-10
5.30414604937e-10
1.81717243346e-09
4.57225285923e-09
7.70329117636e-09
1.02483146603e-08
1.32441654295e-08
1.79420975576e-08
2.01237682557e-08
2.14084499655e-08
3.07517384247e-08
3.01913933622e-08
1.08012539714e-07
9.14414929062e-07
2.73624771445e-06
4.11142458628e-06
4.81683433936e-06
4.9366015155e-06
4.91473461437e-06
5.48579307344e-06
1.81570093118e-10
6.11773972313e-10
2.00254879974e-09
4.78041133157e-09
7.93878299146e-09
1.06467622817e-08
1.41465423501e-08
1.93727128803e-08
2.13180972929e-08
2.23679737687e-08
3.05371320875e-08
3.06734377986e-08
1.25038532075e-07
9.66906988136e-07
2.79128442078e-06
4.15310258302e-06
4.84850925038e-06
4.95759408792e-06
4.90990436512e-06
5.45554498054e-06
2.0911538742e-10
7.09803418113e-10
2.17251977255e-09
4.95523105333e-09
8.17129748971e-09
1.11492815796e-08
1.52900987978e-08
2.09052602413e-08
2.24071514254e-08
2.30229074898e-08
2.99485771496e-08
3.21181451992e-08
1.44885308528e-07
1.01837404049e-06
2.84033288403e-06
4.18967249346e-06
4.8777683173e-06
4.98075182111e-06
4.90973055897e-06
5.4253282798e-06
2.45932526657e-10
8.10740751546e-10
2.30357152296e-09
5.08262496405e-09
8.395159558e-09
1.17684726835e-08
1.65996746299e-08
2.22878664708e-08
2.32168883094e-08
2.33392108228e-08
2.91624873018e-08
3.46886429689e-08
1.67350664167e-07
1.06680504856e-06
2.88086392795e-06
4.21958712192e-06
4.9037982053e-06
5.0058028716e-06
4.91497198072e-06
5.39605078479e-06
2.88472841601e-10
8.9257402053e-10
2.38245660597e-09
5.14922029726e-09
8.59729173993e-09
1.24620295209e-08
1.78631836155e-08
2.32641999378e-08
2.36721486247e-08
2.33868463967e-08
2.84034468234e-08
3.84233239747e-08
1.91625361992e-07
1.10964250838e-06
2.91050713656e-06
4.2416092699e-06
4.92607550811e-06
5.03248570077e-06
4.92632110055e-06
5.3689920541e-06
3.27418782307e-10
9.3952410113e-10
2.40366210925e-09
5.1402089968e-09
8.74427451378e-09
1.31024640851e-08
1.88273919791e-08
2.37670077692e-08
2.38635022443e-08
2.33011284553e-08
2.78828766249e-08
4.28608787605e-08
2.14793382409e-07
1.14315987413e-06
2.928932465e-06
4.25649584151e-06
4.94552404944e-06
5.06113556227e-06
4.94442553847e-06
5.34591647725e-06
3.53196567237e-10
9.46530231945e-10
2.36253564078e-09
5.04852811919e-09
8.79358232795e-09
1.35422022727e-08
1.94123283834e-08
2.40179344178e-08
2.40284549717e-08
2.32378847287e-08
2.76629584459e-08
4.6797452811e-08
2.32067382179e-07
1.16289576549e-06
2.93773885399e-06
4.26683379432e-06
4.96496856591e-06
5.0940805672e-06
4.9709750418e-06
5.32939150007e-06
3.6204912847e-10
9.14820639856e-10
2.25702613529e-09
4.86299791871e-09
8.6794194292e-09
1.36473723781e-08
1.96133730128e-08
2.41561043981e-08
2.42676586922e-08
2.32351969472e-08
2.75841712168e-08
4.92747293475e-08
2.40779193692e-07
1.1660945136e-06
2.93652873821e-06
4.27296073066e-06
4.9850202011e-06
5.1318621018e-06
5.00664271367e-06
5.32141090101e-06
3.54636109843e-10
8.47562868708e-10
2.08762863614e-09
4.57282530785e-09
8.37363216302e-09
1.34481865625e-08
1.95546365672e-08
2.42630269724e-08
2.46075004702e-08
2.3300473087e-08
2.7449121741e-08
4.96380870498e-08
2.39374519592e-07
1.15104576812e-06
2.92488729026e-06
4.27486181202e-06
5.00562417376e-06
5.17399269776e-06
5.05093277393e-06
5.32321885727e-06
3.36428689743e-10
7.54151118948e-10
1.86483289515e-09
4.19010914752e-09
7.90688632535e-09
1.28902939701e-08
1.90426918932e-08
2.41701099629e-08
2.5009529409e-08
2.3445552496e-08
2.71156325267e-08
4.76881930749e-08
2.27411981948e-07
1.11715062824e-06
2.90297938163e-06
4.27266930246e-06
5.0265311288e-06
5.21946663172e-06
5.10249043007e-06
5.33528215311e-06
3.08779147107e-10
6.43331382285e-10
1.60763063012e-09
3.73315982836e-09
7.23969021194e-09
1.18617472743e-08
1.78810588665e-08
2.36890698148e-08
2.54073179147e-08
2.36985788568e-08
2.65390145232e-08
4.37959393359e-08
2.0572225311e-07
1.06518098945e-06
2.87183261509e-06
4.26685573127e-06
5.04745523427e-06
5.26689601188e-06
5.15912681328e-06
5.35702882836e-06
2.68546820951e-10
5.19344952693e-10
1.32719153907e-09
3.22091103954e-09
6.49619073356e-09
1.06724927749e-08
1.62201930211e-08
2.26252872044e-08
2.56380572738e-08
2.40788027847e-08
2.57830998645e-08
3.88760401153e-08
1.76418978886e-07
9.97524548821e-07
2.83346220546e-06
4.25831694174e-06
5.06817228293e-06
5.31464761307e-06
5.21793769339e-06
5.3866929486e-06
2.21809585818e-10
3.93332291514e-10
1.0440536033e-09
2.69517400092e-09
5.76419726843e-09
9.59061781752e-09
1.43623070065e-08
2.08024210508e-08
2.53700905004e-08
2.45271529982e-08
2.50154597664e-08
3.41753708569e-08
1.42659283412e-07
9.18371058771e-07
2.79078569924e-06
4.24831002258e-06
5.08852528475e-06
5.3609751313e-06
5.27555540395e-06
5.4214012e-06
1.83898609288e-10
2.83957550758e-10
7.84026964694e-10
2.19219591114e-09
5.06356666671e-09
8.72489992801e-09
1.27875989119e-08
1.85861772409e-08
2.43954391862e-08
2.48993703537e-08
2.44491510766e-08
3.08523834267e-08
1.08240291937e-07
8.34034766422e-07
2.74730674513e-06
4.23817829622e-06
5.10820127379e-06
5.40393192793e-06
5.32834949829e-06
5.45750500623e-06
1.57308862148e-10
1.84162814494e-10
5.04486996797e-10
1.60645964312e-09
4.25017764586e-09
7.86242273414e-09
1.1403569252e-08
1.57487763481e-08
2.12648489614e-08
2.38981002061e-08
2.38637903041e-08
2.92779486224e-08
7.74670724809e-08
7.54498107923e-07
2.7078884449e-06
4.23002498338e-06
5.12690571693e-06
5.44105050369e-06
5.37157151562e-06
5.48986063573e-06
)
;

boundaryField
{
    emptyPatch
    {
        type            empty;
    }
    minY
    {
        type            calculated;
        value           nonuniform List<scalar> 0();
    }
    maxY
    {
        type            calculated;
        value           nonuniform List<scalar> 
40
(
3.9625270805e-06
3.45117915172e-06
3.37243495698e-06
3.83556707643e-06
4.27977270302e-06
4.38384209714e-06
4.10844864643e-06
3.5806720883e-06
2.95391626314e-06
2.30211659049e-06
1.66497134498e-06
1.03560492838e-06
4.67011111733e-07
1.98282169586e-07
1.30038660142e-07
9.72662958757e-08
7.69373357448e-08
2.6006748632e-08
4.83519244775e-09
6.61806370474e-10
1.57277270916e-10
1.8412471972e-10
5.04381017576e-10
1.60612005816e-09
4.24927855624e-09
7.86076322788e-09
1.14011713414e-08
1.57454787265e-08
2.12604148174e-08
2.38931373631e-08
2.38588542269e-08
2.92719146687e-08
7.7451157604e-08
7.54343467036e-07
2.70733405208e-06
4.22915931977e-06
5.12585657427e-06
5.43993688968e-06
5.37047179305e-06
5.48873759898e-06
)
;
    }
    maxX
    {
        type            nutkWallFunction;
        blending        stepwise;
        value           uniform 0;
    }
    water_to_heater
    {
        type            nutkWallFunction;
        blending        stepwise;
        value           uniform 0;
    }
    procBoundary0to1
    {
        type            processor;
        value           nonuniform List<scalar> 
41
(
5.18774397793e-06
4.57623807361e-06
3.89594349345e-06
3.35554874931e-06
2.84181248605e-06
2.36783130155e-06
2.03893380828e-06
1.87906817969e-06
1.7613037787e-06
1.52748117557e-06
1.15552702638e-06
7.90748572235e-07
5.3536015232e-07
3.561109989e-07
2.25498174833e-07
1.2012400405e-07
4.62123747961e-08
1.18053569598e-08
2.39931861548e-09
2.9931906317e-10
3.70188159262e-09
6.23592903251e-09
8.45225577137e-09
1.11426297143e-08
1.40057929199e-08
1.40827055386e-08
1.53869917363e-08
2.79779292951e-08
4.01581560005e-08
1.45918335743e-07
1.32926576548e-06
2.99188675311e-06
4.06442778955e-06
4.65705412281e-06
5.02668791288e-06
5.58246453292e-06
9.83678048417e-11
1.44310802257e-10
3.92849708431e-10
1.32189667219e-09
1.32189667219e-09
)
;
    }
}


// ************************************************************************* //
