/*--------------------------------*- C++ -*----------------------------------*\
| =========                 |                                                 |
| \\      /  F ield         | OpenFOAM: The Open Source CFD Toolbox           |
|  \\    /   O peration     | Version:  2312                                  |
|   \\  /    A nd           | Website:  www.openfoam.com                      |
|    \\/     M anipulation  |                                                 |
\*---------------------------------------------------------------------------*/
FoamFile
{
    version     2.0;
    format      ascii;
    arch        "LSB;label=32;scalar=64";
    class       surfaceScalarField;
    location    "0.375/water";
    object      phi;
}
// * * * * * * * * * * * * * * * * * * * * * * * * * * * * * * * * * * * * * //

dimensions      [0 3 -1 0 0 0 0];

oriented        oriented;

internalField   nonuniform List<scalar> 
2916
(
1.03588098018e-07
6.51437236262e-07
9.5436353688e-08
6.67860226544e-07
8.87672085015e-08
6.77980314313e-07
8.52666091983e-08
6.81354196331e-07
8.62470058277e-08
6.80595743271e-07
9.21882002164e-08
6.77807212483e-07
1.02135326118e-07
6.75071349887e-07
1.14988626382e-07
6.7282112199e-07
1.2950944991e-07
6.7121844996e-07
1.46070094293e-07
6.68857132564e-07
1.64836412287e-07
6.65201019565e-07
1.85675440818e-07
6.60175649347e-07
6.54479113338e-07
2.08820110074e-07
1.67920217265e-07
6.67497163221e-07
1.27501331645e-07
6.13376671801e-07
1.04731777454e-07
6.21291812076e-07
8.75053352983e-08
6.21688660801e-07
7.26751973794e-08
6.19326214051e-07
5.91069398092e-08
6.26266199206e-07
4.63042158518e-08
6.43116642365e-07
3.47887110841e-08
6.62922533907e-07
2.34423231818e-08
6.79174533783e-07
1.43373127301e-08
6.87038757007e-07
1.12977607266e-08
6.84340801049e-07
1.7420003663e-08
6.74407565626e-07
3.21752231853e-08
6.62973290356e-07
5.32726962235e-08
6.53879022469e-07
7.75426925654e-08
6.48440736673e-07
1.03401574756e-07
6.45229220459e-07
1.29702413028e-07
6.42401272943e-07
1.56863393785e-07
6.37860291369e-07
1.85133089563e-07
6.3170285997e-07
6.24376407441e-07
2.15009908017e-07
1.95367791392e-07
6.48098434095e-07
1.73469187849e-07
6.25803375231e-07
1.58584969397e-07
6.29679848274e-07
1.399925352e-07
6.35665872816e-07
1.17880972293e-07
6.38716845244e-07
9.48263703255e-08
6.4799490765e-07
7.25684244072e-08
6.64807461348e-07
5.04703599551e-08
6.84794377451e-07
2.82578066307e-08
7.01288453073e-07
9.60430734804e-09
7.056322683e-07
1.92377034116e-09
6.91964289711e-07
6.76437915028e-09
6.69501995731e-07
2.21311308412e-08
6.47532287312e-07
4.5162598221e-08
6.30765440634e-07
7.31541553937e-08
6.2035911479e-07
1.03109667802e-07
6.15172586928e-07
1.3347020729e-07
6.11922871554e-07
1.6406905967e-07
6.07124741115e-07
1.95508588364e-07
6.00108831877e-07
5.91231488113e-07
2.28483380498e-07
3.43356609538e-07
4.64701046819e-07
3.26945139702e-07
6.02878741409e-07
3.05568320773e-07
6.25911740142e-07
2.84324251949e-07
6.43078177583e-07
2.53664109399e-07
6.62350771624e-07
2.16123503262e-07
6.82306180443e-07
1.75949863157e-07
7.03671649457e-07
1.37470975424e-07
7.22813706131e-07
1.05241600665e-07
7.33376368046e-07
8.15577534644e-08
7.29268777623e-07
7.04408040122e-08
7.03050603599e-07
6.96168011805e-08
6.70287707057e-07
7.66089286645e-08
6.40489842392e-07
9.02264251533e-08
6.1708769824e-07
1.09797085688e-07
6.00723371527e-07
1.33353287053e-07
5.91547548716e-07
1.58972201599e-07
5.86225991422e-07
1.85836486664e-07
5.80169368679e-07
2.14461797366e-07
5.71379914283e-07
5.60294300635e-07
2.45284977476e-07
1.47655306958e-07
3.84018377591e-07
1.71343425718e-07
5.46783385864e-07
1.86228685567e-07
5.90842739165e-07
1.9358102553e-07
6.24801069395e-07
1.92495943837e-07
6.57940572544e-07
1.8171613567e-07
6.90508409934e-07
1.62490153112e-07
7.21794164556e-07
1.39795299848e-07
7.45076270361e-07
1.23058081774e-07
7.49951492454e-07
1.19695138849e-07
7.32563104398e-07
1.27354248154e-07
6.95353063055e-07
1.34624313054e-07
6.62983433221e-07
1.41642856889e-07
6.33434048806e-07
1.5001703253e-07
6.08671592574e-07
1.60794390374e-07
5.89902134325e-07
1.74681334424e-07
5.7761742843e-07
1.913477893e-07
5.69513785753e-07
2.10541559342e-07
5.60922951085e-07
2.32568098776e-07
5.49294181214e-07
5.35133782384e-07
2.57664389752e-07
5.81333955846e-08
3.49537387143e-07
7.0115656102e-08
5.15244674182e-07
8.47568051635e-08
5.6358457671e-07
9.98719958471e-08
6.02908211507e-07
1.10868538586e-07
6.43517281663e-07
1.17241753774e-07
6.82488368675e-07
1.20308256028e-07
7.17978430865e-07
1.2389220052e-07
7.41164551102e-07
1.3149063658e-07
7.42210268657e-07
1.44928007027e-07
7.19054372604e-07
1.61991566007e-07
6.78244695919e-07
1.73899384133e-07
6.51039617662e-07
1.82355962858e-07
6.24945033422e-07
1.89130152064e-07
6.01866614735e-07
1.95647970289e-07
5.8335610383e-07
2.03316781586e-07
5.69923649536e-07
2.13017595628e-07
5.59789306344e-07
2.25472128817e-07
5.48443617459e-07
2.40921052057e-07
5.3381964564e-07
5.16487036086e-07
2.5954226008e-07
2.15689483607e-08
3.53758301451e-07
1.50810403058e-08
5.11800774238e-07
2.14460441764e-08
5.51215214686e-07
3.4151225944e-08
5.86816014038e-07
4.74120586287e-08
6.28475757467e-07
5.91566427544e-08
6.69855285873e-07
7.2405997222e-08
7.04299407125e-07
9.04406461386e-08
7.22919342558e-07
1.14845042723e-07
7.17701915349e-07
1.59218007439e-07
6.74616650606e-07
1.7887950223e-07
6.58538269697e-07
1.9131586042e-07
6.38568528233e-07
1.99355345373e-07
6.16878134451e-07
2.04721681386e-07
5.96478854165e-07
2.08694405252e-07
5.79367880481e-07
2.1264978512e-07
5.65957706654e-07
2.17696186952e-07
5.54736150504e-07
2.25397595369e-07
5.40738667311e-07
2.35639432897e-07
5.23577867134e-07
5.03478385253e-07
2.48651986349e-07
-1.9953710539e-08
4.09629549505e-07
-5.2389706172e-08
5.45361903664e-07
-5.65798997868e-08
5.57434981989e-07
-4.22064878472e-08
5.72337633311e-07
-2.35441356732e-08
6.09305758192e-07
-4.40073402801e-09
6.50360410131e-07
2.23380859832e-08
6.77356934683e-07
7.13863189653e-08
6.73749645774e-07
1.31626311636e-07
6.5738318364e-07
1.57344418412e-07
6.4884500059e-07
1.75757686073e-07
6.40086816528e-07
1.88247328021e-07
6.26050623504e-07
1.9625580721e-07
6.08850590456e-07
2.01006698237e-07
5.91717184039e-07
2.03380418984e-07
5.76990306691e-07
2.04210844993e-07
5.65128545093e-07
2.06157959828e-07
5.52796139405e-07
2.10315945783e-07
5.36594368531e-07
2.16335497934e-07
5.17578427873e-07
4.95252576409e-07
2.24587585098e-07
-1.06630976762e-07
5.77407574625e-07
-1.8853295224e-07
6.54446856894e-07
-1.99046119128e-07
5.79433996499e-07
-1.36950808244e-07
5.12822080539e-07
-7.87452413941e-08
5.51281565821e-07
-1.95186918171e-08
5.91017168628e-07
4.32274552612e-08
6.1450486415e-07
9.28702403691e-08
6.24026911773e-07
1.21575564828e-07
6.2862718569e-07
1.42881460102e-07
6.27503575589e-07
1.5934151772e-07
6.23601942444e-07
1.71263482271e-07
6.1411249188e-07
1.78933355624e-07
6.01173483348e-07
1.82606435221e-07
5.88044419032e-07
1.82534392201e-07
5.77067915243e-07
1.80920969784e-07
5.66753436812e-07
1.80857938521e-07
5.52878931518e-07
1.82100006529e-07
5.35380312485e-07
1.84437917594e-07
5.15276533393e-07
4.91597216492e-07
1.88136530012e-07
-1.21249047057e-07
7.47642154297e-07
-2.12362486759e-07
7.7199739145e-07
-9.9660985464e-08
4.78798165273e-07
-6.50269232225e-08
4.79454989378e-07
-2.86760756366e-08
5.14962191963e-07
1.15247758587e-08
5.5073324006e-07
4.94882949622e-08
5.76479177482e-07
8.04450203767e-08
5.93028853502e-07
1.05443877178e-07
6.03601815205e-07
1.2389770773e-07
6.09032193354e-07
1.38213547708e-07
6.09276536847e-07
1.48218528498e-07
6.04105324593e-07
1.53466917776e-07
5.95929718535e-07
1.53676254087e-07
5.87844139497e-07
1.50586286775e-07
5.80172294911e-07
1.47619767934e-07
5.69742531263e-07
1.45674755351e-07
5.548555528e-07
1.4398725668e-07
5.37108551809e-07
1.4221371504e-07
5.17099628698e-07
4.92066110149e-07
1.41804629299e-07
-7.01207735526e-08
8.76173096969e-07
-3.09796156506e-08
7.53321032847e-07
-3.5832417231e-08
4.88262123092e-07
-1.86274452616e-08
4.63332417732e-07
4.85183007388e-09
4.91572191343e-07
3.17941215915e-08
5.23765166122e-07
5.77751344936e-08
5.50477181533e-07
7.94862754436e-08
5.71304396924e-07
9.65968541558e-08
5.86484631476e-07
1.09512807149e-07
5.96115190552e-07
1.18571658131e-07
6.002222106e-07
1.23068120406e-07
5.99617773421e-07
1.22550296318e-07
5.96460336833e-07
1.18368286336e-07
5.92043587244e-07
1.13342493871e-07
5.85223013282e-07
1.08984678854e-07
5.74133911186e-07
1.04421990246e-07
5.59461190339e-07
9.85955423724e-08
5.4298796213e-07
9.2449234698e-08
5.23311743466e-07
4.96407619139e-07
8.81823121194e-08
1.98252398569e-08
9.14776248671e-07
5.73317991111e-08
7.0901251667e-07
2.99489465788e-08
5.14872754495e-07
2.76669858443e-08
4.66143640838e-07
3.92919857128e-08
4.80106967687e-07
5.56078859684e-08
5.0746924441e-07
7.13936078058e-08
5.34693123666e-07
8.40055234759e-08
5.58694444935e-07
9.25825294819e-08
5.77912622083e-07
9.70833858971e-08
5.91622372437e-07
9.76248875378e-08
5.99692005626e-07
9.44445240075e-08
6.02812702329e-07
8.8461944978e-08
6.02463082019e-07
8.15674098854e-08
5.98964159393e-07
7.50415769611e-08
5.91783340642e-07
6.81078661041e-08
5.81111321407e-07
5.89919442787e-08
5.68631683426e-07
4.83739264597e-08
5.536760205e-07
3.81398939551e-08
5.33627906521e-07
5.05406534227e-07
2.9226689704e-08
1.39516953963e-07
8.70305005083e-07
1.29435744419e-07
6.95197062319e-07
9.61486588404e-08
5.41692028326e-07
8.02761231231e-08
4.81048004513e-07
7.98588017918e-08
4.80503032902e-07
8.52216985803e-08
5.02126334988e-07
8.99226457218e-08
5.30000303782e-07
9.07523688012e-08
5.5787133665e-07
8.79173781601e-08
5.80755461122e-07
8.23442021884e-08
5.972065808e-07
7.47063194501e-08
6.07343883331e-07
6.55916595604e-08
6.11949950392e-07
5.62508578088e-08
6.11830114208e-07
4.71786050873e-08
6.08071952318e-07
3.79988688435e-08
6.01007317555e-07
2.59370712976e-08
5.93226396546e-07
1.1423067804e-08
5.83217321462e-07
-3.54871933673e-09
5.68734595804e-07
-1.89548216497e-08
5.49127932104e-07
5.21358677315e-07
-3.48117558504e-08
2.01199990872e-07
7.90872357122e-07
1.91917690422e-07
6.70264556747e-07
1.59443164495e-07
5.6216657139e-07
1.3438490339e-07
5.02944915663e-07
1.21337229464e-07
4.92948855131e-07
1.13824840453e-07
5.09556995242e-07
1.05558931533e-07
5.38261372221e-07
9.44059696484e-08
5.69030008776e-07
8.15613739507e-08
5.9361291864e-07
6.79744832266e-08
6.10808172099e-07
5.43175765635e-08
6.21024561978e-07
4.1201156043e-08
6.25092642977e-07
2.84557513473e-08
6.24610618366e-07
1.59296081927e-08
6.20640452487e-07
1.39755053186e-09
6.15586976472e-07
-1.66703413605e-08
6.11364569529e-07
-3.5251482056e-08
6.01886522944e-07
-5.51862747967e-08
5.88767446194e-07
-7.77664827368e-08
5.71812720709e-07
5.46828818306e-07
-1.03129089198e-07
2.03873867684e-07
7.25615831139e-07
2.13878300659e-07
6.27042099103e-07
1.94451484316e-07
5.67809627188e-07
1.68402543002e-07
5.24526281457e-07
1.46609876797e-07
5.13622444795e-07
1.28253329508e-07
5.27700494875e-07
1.09765659065e-07
5.56722121146e-07
9.06413914943e-08
5.88162446498e-07
7.17210093418e-08
6.12547240877e-07
5.3186661979e-08
6.29366037251e-07
3.53566840439e-08
6.38880359449e-07
1.81430326522e-08
6.42338773214e-07
1.52293343705e-09
6.4127029899e-07
-1.54518454614e-08
6.37658136435e-07
-3.71283872276e-08
6.37332087953e-07
-5.85748373445e-08
6.3289551502e-07
-8.03161572783e-08
6.2372470038e-07
-1.05646519376e-07
6.14205309334e-07
-1.35773837641e-07
6.02057705886e-07
5.80995872929e-07
-1.69817130075e-07
1.93589167473e-07
6.80340833473e-07
2.1146243256e-07
5.81537289623e-07
2.00782926635e-07
5.65972347944e-07
1.75727653415e-07
5.45091758496e-07
1.49459107942e-07
5.38621481815e-07
1.24550305435e-07
5.5233315485e-07
1.00063319923e-07
5.81169986562e-07
7.62056192637e-08
6.12026024291e-07
5.29803734725e-08
6.35795589298e-07
3.06052507289e-08
6.51766025003e-07
9.11261878055e-09
6.60404451223e-07
-1.14080634754e-08
6.62898521757e-07
-3.13197456133e-08
6.61224698475e-07
-5.4823777974e-08
6.61228077288e-07
-7.8991307085e-08
6.61575768381e-07
-1.0136189556e-07
6.55356730706e-07
-1.2481307616e-07
6.47277181805e-07
-1.52933969071e-07
6.42442343957e-07
-1.86485761774e-07
6.35741066386e-07
6.18854141681e-07
-2.24204598639e-07
1.80900354571e-07
6.53829828815e-07
1.8279660717e-07
5.58219265233e-07
1.69617657206e-07
5.69283135443e-07
1.44093549443e-07
5.66977379859e-07
1.17164150406e-07
5.64502788918e-07
9.06325286266e-08
5.78640698079e-07
6.43577679149e-08
6.07419868062e-07
3.88491679286e-08
6.37554585415e-07
1.39784183377e-08
6.60690238638e-07
-1.019081835e-08
6.75967493003e-07
-3.32530010223e-08
6.83505772758e-07
-5.5220313805e-08
6.84908430361e-07
-7.95225578173e-08
6.85587385164e-07
-1.06380656864e-07
6.88145640572e-07
-1.27730536235e-07
6.83008278213e-07
-1.47900431427e-07
6.75618063206e-07
-1.68977066924e-07
6.68455063052e-07
-1.94010287829e-07
6.67597113229e-07
-2.23933806354e-07
6.65805768391e-07
6.53500243478e-07
-2.5843043033e-07
1.62592883309e-07
6.49156497359e-07
1.35859091769e-07
5.69934698743e-07
1.05791399601e-07
5.92918035886e-07
7.38067936186e-08
5.96711362471e-07
4.66080875454e-08
5.9113119196e-07
2.17152749348e-08
6.03447998171e-07
-2.10203971716e-09
6.312562378e-07
-2.54945434767e-08
6.60979573624e-07
-4.92101507341e-08
6.84445462956e-07
-7.33240691978e-08
7.00127635421e-07
-9.76150025993e-08
7.07839015427e-07
-1.23172060153e-07
7.10528103413e-07
-1.49337649852e-07
7.11812405515e-07
-1.68553925674e-07
7.07443871018e-07
-1.82630013045e-07
6.97168365773e-07
-1.9577049892e-07
6.88847679884e-07
-2.09721568757e-07
6.82504700667e-07
-2.26043652113e-07
6.84039108032e-07
-2.45703270298e-07
6.85606608975e-07
6.7805839003e-07
-2.70108989298e-07
1.53890440895e-07
6.53848449396e-07
9.90178088233e-08
6.12479443368e-07
4.61051517237e-08
6.42051091956e-07
6.40957004619e-10
6.41314824053e-07
-3.24516859537e-08
6.24152085976e-07
-5.81725914439e-08
6.29238937448e-07
-8.0477402238e-08
6.53627246387e-07
-1.03343107597e-07
6.8389781865e-07
-1.29616851527e-07
7.10775756493e-07
-1.57931186627e-07
7.28495265937e-07
-1.86706726821e-07
7.3668340239e-07
-2.13042488394e-07
7.36934066901e-07
-2.28413822197e-07
7.27269496912e-07
-2.32586040002e-07
7.11699139444e-07
-2.34802198275e-07
6.99464424249e-07
-2.36826414187e-07
6.90954469904e-07
-2.39625427499e-07
6.85395046055e-07
-2.43516503318e-07
6.88043200713e-07
-2.50038706149e-07
6.92264214718e-07
6.89829212738e-07
-2.61659716863e-07
1.6491664247e-07
6.54367157803e-07
1.03805969765e-07
6.63769066526e-07
5.37955883461e-08
6.89316858543e-07
6.75960673276e-09
6.87590324321e-07
-3.73459916429e-08
6.68117786247e-07
-7.59635803577e-08
6.67930521797e-07
-1.11171867231e-07
6.88933403165e-07
-1.49593854591e-07
7.22402664911e-07
-1.94212113867e-07
7.55459162511e-07
-2.37054733919e-07
7.71415948591e-07
-2.67745503557e-07
7.67460181318e-07
-2.81027080329e-07
7.50311263893e-07
-2.78435862345e-07
7.24767422518e-07
-2.69470230747e-07
7.02811199523e-07
-2.59695896838e-07
6.89763809631e-07
-2.51277747288e-07
6.82611404484e-07
-2.4438762351e-07
6.78586853471e-07
-2.36881887056e-07
6.80638757152e-07
-2.3169079911e-07
6.87198754218e-07
6.90965056917e-07
-2.32682321049e-07
2.14732055561e-07
6.08465974476e-07
1.95260255318e-07
6.58756214107e-07
1.7754873859e-07
6.92744116547e-07
1.4424895221e-07
7.13460792478e-07
8.89233180263e-08
7.20008409043e-07
2.48165704476e-08
7.3077268282e-07
-4.26829997217e-08
7.56172769671e-07
-1.14927400641e-07
7.94752620058e-07
-1.88459195178e-07
8.2918952556e-07
-2.41549859393e-07
8.24685431336e-07
-2.60160237817e-07
7.86229189309e-07
-2.58523959681e-07
7.48809144133e-07
-2.49487100385e-07
7.15837836011e-07
-2.38792291632e-07
6.92203082843e-07
-2.26792214323e-07
6.77839803948e-07
-2.15571596976e-07
6.71463350351e-07
-2.06526027552e-07
6.69615732296e-07
-1.96325908378e-07
6.70525174835e-07
-1.85849684952e-07
6.76833187371e-07
6.86072281796e-07
-1.80821384864e-07
2.59110813919e-07
4.7868477286e-07
2.62463937489e-07
6.18563893029e-07
2.79061159507e-07
6.55597637152e-07
2.84463683175e-07
6.97122136151e-07
2.54120887798e-07
7.44919653228e-07
1.90301621552e-07
7.92221629291e-07
1.10288910259e-07
8.35405441573e-07
2.37202846325e-08
8.81247746759e-07
-6.19321619466e-08
9.14987160472e-07
-1.31224308463e-07
8.94164703454e-07
-1.41726160415e-07
7.96901874837e-07
-1.40696443146e-07
7.4792741488e-07
-1.38318358023e-07
7.1358392459e-07
-1.35899201933e-07
6.89885869614e-07
-1.32480765917e-07
6.74504095772e-07
-1.28083815786e-07
6.67136543532e-07
-1.24815204464e-07
6.66414664436e-07
-1.21424639045e-07
6.67207101066e-07
-1.14317239661e-07
6.69815990114e-07
6.80339180716e-07
-1.08464241273e-07
1.48024866197e-07
4.34508476201e-07
1.63485223623e-07
5.72643886182e-07
1.82987447623e-07
6.19883399267e-07
1.97175223373e-07
6.74826577416e-07
1.93663806707e-07
7.44419690331e-07
1.72551929583e-07
8.11476592128e-07
1.4242908272e-07
8.6483428712e-07
1.09112219922e-07
9.14441078047e-07
7.88046532701e-08
9.45398476487e-07
3.89559262431e-08
9.34173808305e-07
2.29864042606e-08
8.13022094004e-07
1.54014591273e-08
7.55649301284e-07
8.26121356866e-09
7.20846021431e-07
9.7783061866e-10
6.97274195803e-07
-5.93711839494e-09
6.81504689768e-07
-1.18884243846e-08
6.73154786854e-07
-1.75328522022e-08
6.7211849003e-07
-2.34609737835e-08
6.73196963435e-07
-2.5162147094e-08
6.71587549173e-07
6.79172887612e-07
-2.38991916002e-08
1.0841809413e-07
4.31871338467e-07
1.00947118616e-07
5.59857805973e-07
1.08287153948e-07
6.0442926332e-07
1.15072488073e-07
6.63927285853e-07
1.14326704951e-07
7.42953890503e-07
1.09110410887e-07
8.15626362435e-07
1.0536316138e-07
8.68202889587e-07
1.10447217952e-07
9.09324655985e-07
1.27167646977e-07
9.28792306074e-07
1.5658985863e-07
9.04899061149e-07
1.57821562203e-07
8.11924887066e-07
1.50300915029e-07
7.6329402591e-07
1.40064911796e-07
7.31194357161e-07
1.28616410701e-07
7.08820554188e-07
1.1669563495e-07
6.93505480041e-07
1.04755892584e-07
6.85155668217e-07
9.27995545685e-08
6.84126536104e-07
8.09305271806e-08
6.85119440167e-07
7.14979323469e-08
6.8107771923e-07
6.86324058043e-07
6.44231106199e-08
6.6733587473e-08
4.80611597728e-07
3.4192470445e-08
5.9146578405e-07
2.76601911804e-08
6.11507235109e-07
2.48149958506e-08
6.6591819292e-07
1.58929851021e-08
7.51069038815e-07
7.76181560427e-09
8.2335939374e-07
1.37200466725e-08
8.62167669754e-07
6.65595206108e-08
8.56567566408e-07
1.51691559783e-07
8.43777476627e-07
2.28401922539e-07
8.28313046301e-07
2.45750328956e-07
7.9469809331e-07
2.46175910538e-07
7.62982431406e-07
2.39682303133e-07
7.37790983388e-07
2.30004037844e-07
7.1858745468e-07
2.18745435414e-07
7.04834930319e-07
2.06156960441e-07
6.97796776594e-07
1.91996358931e-07
6.9833119715e-07
1.78641424182e-07
6.98521558218e-07
1.66187870644e-07
6.93579507782e-07
7.02383728421e-07
1.50192812418e-07
-1.69783356483e-08
6.37753337103e-07
-6.22317751608e-08
6.46281412237e-07
-6.11541762072e-08
6.16800493333e-07
-3.64409108359e-08
6.43183639833e-07
-1.07566578093e-08
7.25688069591e-07
2.7127440722e-08
7.85472778307e-07
8.76908744675e-08
8.01604398349e-07
1.50440609032e-07
7.93887337882e-07
2.06012930343e-07
7.88302173062e-07
2.537120029e-07
7.80718501175e-07
2.83190186419e-07
7.65323288092e-07
2.97188003932e-07
7.49082253584e-07
3.01496857898e-07
7.33570372091e-07
3.00042312109e-07
7.20116844871e-07
2.94501710093e-07
7.10433410262e-07
2.84501950293e-07
7.07837974881e-07
2.72901233686e-07
7.0997196213e-07
2.62700690073e-07
7.0876107793e-07
2.49871443919e-07
7.06448329725e-07
7.30821591381e-07
2.21491290787e-07
8.690074661e-08
6.91131035487e-07
6.85558741683e-08
6.48709785561e-07
5.7925365576e-08
6.22207825824e-07
6.56638660322e-08
6.34387542805e-07
9.56918284777e-08
6.95585788103e-07
1.26376082843e-07
7.54799881257e-07
1.54229529432e-07
7.73788371045e-07
1.85385489713e-07
7.6280161648e-07
2.24520084828e-07
7.49252276571e-07
2.64139483878e-07
7.41185522374e-07
2.95176312032e-07
7.34369173184e-07
3.17019531761e-07
7.27314961732e-07
3.30918319086e-07
7.19737691508e-07
3.38336116699e-07
7.12752092919e-07
3.38823718149e-07
7.09983713081e-07
3.34161074953e-07
7.12532720225e-07
3.29988649453e-07
7.14172461873e-07
3.25192581769e-07
7.13586042023e-07
3.04887328783e-07
7.26790194417e-07
7.66932121667e-07
2.68836660009e-07
1.86650421493e-07
6.47164670663e-07
1.82119258205e-07
6.24727833186e-07
1.75980213016e-07
6.16069976031e-07
1.74566977409e-07
6.31450227801e-07
1.85144343501e-07
6.83781690677e-07
2.00998273841e-07
7.38653178919e-07
2.14843855635e-07
7.59903990441e-07
2.28979997416e-07
7.48700368359e-07
2.48953765038e-07
7.2933298548e-07
2.73825806374e-07
7.16370060126e-07
2.98411407634e-07
7.09836409907e-07
3.19682935772e-07
7.06089780599e-07
3.3602037318e-07
7.03438186685e-07
3.47214978543e-07
7.01585554854e-07
3.52888278301e-07
7.04333325356e-07
3.56294773366e-07
7.09146466004e-07
3.57816835698e-07
7.12671536517e-07
3.475573007e-07
7.23870669685e-07
3.1802896053e-07
7.56354774461e-07
7.75616023204e-07
3.09423249803e-07
1.98861958777e-07
5.96079886445e-07
2.10571114181e-07
5.84300438836e-07
2.16009212534e-07
5.96989745059e-07
2.19948026451e-07
6.21879951225e-07
2.29186458034e-07
6.72544501538e-07
2.43211561969e-07
7.24007162305e-07
2.54557513086e-07
7.48397683209e-07
2.62786591889e-07
7.40454471388e-07
2.71954578235e-07
7.20188123961e-07
2.84509178281e-07
7.03846549415e-07
2.99580326728e-07
6.94794905807e-07
3.1503135904e-07
6.90664748566e-07
3.28743987686e-07
6.89746829417e-07
3.39042361781e-07
6.91304046016e-07
3.46863696375e-07
6.96527541326e-07
3.5206427893e-07
7.03961156121e-07
3.47849078387e-07
7.1690192495e-07
3.32047425047e-07
7.3969892892e-07
3.31430949365e-07
7.57030857565e-07
7.45333488396e-07
3.61774563843e-07
1.87518197808e-07
5.60037825083e-07
1.85088943476e-07
5.62556505583e-07
1.89024170457e-07
5.81374576356e-07
1.93390365039e-07
6.12544532325e-07
2.03212607673e-07
6.60842247412e-07
2.21005829615e-07
7.05574862715e-07
2.40236706588e-07
7.28973425975e-07
2.5528841254e-07
7.25356377243e-07
2.66605956167e-07
7.08868763755e-07
2.77002654725e-07
6.93460346945e-07
2.87938681657e-07
6.83872246923e-07
2.98690309882e-07
6.79925668192e-07
3.07823288372e-07
6.80623294819e-07
3.14106631706e-07
6.85027014569e-07
3.17670288141e-07
6.92966964684e-07
3.17192538757e-07
7.0443904124e-07
3.15321037391e-07
7.18795064327e-07
3.27548584729e-07
7.27512116502e-07
3.68459450899e-07
7.16163940563e-07
6.87614745359e-07
4.26212740734e-07
1.62146657986e-07
5.51755849159e-07
1.39491270158e-07
5.65958422618e-07
1.24548764065e-07
5.87120247759e-07
1.1629982602e-07
6.17083770985e-07
1.19628613083e-07
6.56214583324e-07
1.37422352945e-07
6.87367109355e-07
1.63495026202e-07
7.02773464032e-07
1.88553910974e-07
7.00257330691e-07
2.08671885213e-07
6.8873585736e-07
2.24880630168e-07
6.7724453143e-07
2.37750926023e-07
6.70996618368e-07
2.47548042185e-07
6.70122893122e-07
2.54251677922e-07
6.73915307428e-07
2.58776616954e-07
6.80500905391e-07
2.63496153242e-07
6.88252159921e-07
2.73408338476e-07
6.94559297325e-07
2.98732734133e-07
6.93508101959e-07
3.45709567023e-07
6.80567741887e-07
4.08814831773e-07
6.53083960953e-07
6.11502643782e-07
4.84950002637e-07
1.42297768871e-07
5.66244396105e-07
9.77568378617e-08
5.94100220019e-07
4.85155998905e-08
6.29705144429e-07
1.09474500902e-08
6.5249326171e-07
-3.13430823333e-09
6.69798878409e-07
3.07725317387e-09
6.81028120182e-07
2.38900688535e-08
6.81924241826e-07
5.03979882679e-08
6.73735779031e-07
7.61783298875e-08
6.62946743936e-07
9.91308396895e-08
6.54284533802e-07
1.1936428797e-07
6.50756770312e-07
1.37080712886e-07
6.52403602032e-07
1.53862354842e-07
6.57134659712e-07
1.72738673878e-07
6.61630645571e-07
1.98797864078e-07
6.62211528209e-07
2.37108610113e-07
6.56270715696e-07
2.88407420943e-07
6.42218290554e-07
3.51685968447e-07
6.17300898443e-07
4.23732608629e-07
5.81046917519e-07
5.33416729386e-07
5.01825868213e-07
1.35201055329e-07
5.95520658911e-07
3.10516318949e-08
6.88155009694e-07
-6.99664414326e-08
7.30560802464e-07
-1.33552281111e-07
7.16615492876e-07
-1.57772611312e-07
6.9433113983e-07
-1.61833429556e-07
6.85219201372e-07
-1.51032337449e-07
6.71184333884e-07
-1.30014941926e-07
6.52751445338e-07
-1.0290514916e-07
6.3585596199e-07
-7.26209303867e-08
6.24011613927e-07
-3.83910985163e-08
6.16534259734e-07
6.17829307447e-10
6.13400674555e-07
4.47390415596e-08
6.13020691672e-07
9.38893073774e-08
6.12486331842e-07
1.47430939618e-07
6.08673307493e-07
2.05411383319e-07
5.98281158723e-07
2.68371161491e-07
5.79255471679e-07
3.35072545963e-07
5.50597915493e-07
4.04668260404e-07
5.11449989073e-07
4.62471866467e-07
4.75614016662e-07
1.47171518296e-07
6.2226710229e-07
-2.92840149024e-08
8.64038789596e-07
-1.51560946142e-07
8.59581797287e-07
-2.04660673078e-07
7.74855331224e-07
-2.29468882196e-07
7.21116060188e-07
-2.42221388814e-07
6.98663165325e-07
-2.44442412442e-07
6.73645501494e-07
-2.34754661879e-07
6.43161819062e-07
-2.11050332358e-07
6.1220354085e-07
-1.74532884018e-07
5.87527679871e-07
-1.28778265851e-07
5.70804743479e-07
-7.49003356996e-08
5.59541213882e-07
-1.29121885086e-08
5.510480576e-07
5.28515426535e-08
5.46733012699e-07
1.185151667e-07
5.43016462533e-07
1.82390326744e-07
5.34410115513e-07
2.43944236402e-07
5.1770219807e-07
3.0395016106e-07
4.90591158997e-07
3.64064228166e-07
4.51335115839e-07
4.01465660574e-07
4.25071748226e-07
1.50878610809e-07
5.96106737324e-07
1.5805321518e-07
8.42711612427e-07
1.36456434447e-07
8.78950687874e-07
6.47486424082e-08
8.46687648656e-07
-2.26443191652e-08
8.09030252388e-07
-8.6637582521e-08
7.63063576371e-07
-1.31980972891e-07
7.19343587234e-07
-1.56386748116e-07
6.67790040759e-07
-1.54895653659e-07
6.10838998486e-07
-1.32738057234e-07
5.65447922923e-07
-9.42627276972e-08
5.32383941684e-07
-4.57302497855e-08
5.11047764226e-07
8.19367862977e-09
4.97152266502e-07
6.37754788311e-08
4.9116945699e-07
1.19212638954e-07
4.87590433476e-07
1.71750482951e-07
4.81878100035e-07
2.21701731891e-07
4.67753552803e-07
2.71665608379e-07
4.40628841431e-07
3.23528012077e-07
3.99475362527e-07
3.48522372941e-07
3.76477158748e-07
1.39816123362e-07
5.20492324324e-07
1.9345068661e-07
7.65866701114e-07
2.37285379867e-07
8.23420131182e-07
2.57033966958e-07
8.21153133813e-07
2.50966820291e-07
8.12415845812e-07
2.08904906718e-07
8.04110151447e-07
1.39566086722e-07
7.88377554937e-07
5.05024990022e-08
7.56828124907e-07
1.57778536361e-08
6.45618440117e-07
8.70032710969e-09
5.72591850026e-07
2.1350931495e-08
5.19790253324e-07
4.57599338126e-08
4.86682161097e-07
7.5370517596e-08
4.67572408608e-07
1.08219517408e-07
4.58340986046e-07
1.42614962165e-07
4.53208591185e-07
1.78044400765e-07
4.46458364824e-07
2.15276051955e-07
4.30529337593e-07
2.56125631261e-07
3.99786185376e-07
3.00383081757e-07
3.55226216873e-07
3.04539896693e-07
3.44376971469e-07
1.21599012555e-07
4.59519369332e-07
1.69354156842e-07
6.89981600745e-07
2.15498559963e-07
7.61317191698e-07
2.44262046165e-07
7.83844633426e-07
2.55763816821e-07
7.96638550767e-07
2.53048416094e-07
8.04862414828e-07
2.39166145456e-07
8.01424573948e-07
2.19890534553e-07
7.75787541956e-07
1.50540939789e-07
7.14890874909e-07
1.35140783183e-07
5.88009089092e-07
1.32193129971e-07
5.22779923332e-07
1.36689045386e-07
4.82229304039e-07
1.46658903857e-07
4.57637187478e-07
1.60790038122e-07
4.4423408974e-07
1.7803105132e-07
4.35984339236e-07
1.98812664683e-07
4.25689537123e-07
2.24501182843e-07
4.04851803578e-07
2.55925993409e-07
3.6837278647e-07
2.90788430466e-07
3.20377272967e-07
2.71174408697e-07
3.2417037742e-07
1.13111250255e-07
1.37189051375e-07
1.67638594354e-07
1.90301430109e-07
2.03402551883e-07
2.07843542989e-07
2.05636162379e-07
1.98742527362e-07
1.96895536291e-07
1.95899027932e-07
1.95006807383e-07
1.94687046256e-07
1.95839672204e-07
1.99089655351e-07
2.05382740686e-07
2.16321617742e-07
2.33607210416e-07
2.57073107722e-07
2.82667309187e-07
3.0550786344e-07
2.32711970672e-07
6.17571744676e-07
2.56719001035e-07
5.53618295373e-07
2.8191262432e-07
4.94508700076e-07
3.08370415221e-07
4.40207402204e-07
3.35196634022e-07
3.90436941316e-07
3.60599054612e-07
3.44335600904e-07
3.82448863057e-07
3.0071072325e-07
3.99293500777e-07
2.604260611e-07
4.11236119275e-07
2.26111625659e-07
4.18910081993e-07
1.98530488743e-07
4.20840106281e-07
1.73829127481e-07
4.12629440036e-07
1.54455781023e-07
3.8431970916e-07
1.50112659691e-07
2.95954181719e-07
2.08697876825e-07
-1.22692410815e-08
4.81586905688e-07
6.45038014753e-08
9.35539833968e-08
5.37050037296e-08
-5.32658074525e-08
3.30597719947e-08
-6.97359737572e-08
1.55234326645e-08
-6.64587539175e-08
-5.48797496296e-08
2.45201844803e-07
5.87144807333e-07
2.74022649604e-07
5.2457125373e-07
3.02119998832e-07
4.66199635329e-07
3.30544804644e-07
4.11589506955e-07
3.60321260513e-07
3.60490564241e-07
3.91459395819e-07
3.13056158493e-07
4.229997163e-07
2.6906174786e-07
4.54370556296e-07
2.28979610518e-07
4.86300614094e-07
1.94136560195e-07
5.19885436808e-07
1.64927921646e-07
5.52366362564e-07
1.41349466347e-07
5.75863720504e-07
1.30974249959e-07
5.42046882971e-07
1.83972023851e-07
3.50494872479e-07
4.00495096052e-07
-1.88476482343e-07
1.0215272778e-06
-5.34494716003e-08
-4.14588027986e-08
-2.63272701625e-08
-8.03871615875e-08
-1.61592602637e-08
-7.99041664441e-08
-8.43011118155e-09
-7.41880700485e-08
-6.3309855623e-08
2.61847628071e-07
5.53607295078e-07
2.94064035833e-07
4.92193046658e-07
3.25535872356e-07
4.34582736674e-07
3.57084509125e-07
3.79917200845e-07
3.89014629227e-07
3.2846202786e-07
4.21533932733e-07
2.80462919798e-07
4.54528245786e-07
2.36018004638e-07
4.87675955981e-07
1.95805249768e-07
5.20681041125e-07
1.61128047761e-07
5.52156885003e-07
1.33464462624e-07
5.79459930354e-07
1.14081203547e-07
5.85426371533e-07
1.25059875287e-07
3.6575604465e-07
4.03777999579e-07
-1.05478289182e-06
1.82143174241e-06
-6.70942594718e-08
3.47757846403e-08
-2.85751207505e-08
-7.9970881421e-08
-1.98676310802e-08
-8.90946134815e-08
-1.30309485264e-08
-8.67406776352e-08
-6.47832267231e-09
-8.07405391353e-08
-6.97881782246e-08
2.77119366513e-07
5.21658394149e-07
3.08560749195e-07
4.60647217759e-07
3.39887521601e-07
4.03165628287e-07
3.71378854435e-07
3.48353267331e-07
4.02706943966e-07
2.97078177519e-07
4.34085544135e-07