/*--------------------------------*- C++ -*----------------------------------*\
| =========                 |                                                 |
| \\      /  F ield         | OpenFOAM: The Open Source CFD Toolbox           |
|  \\    /   O peration     | Version:  2312                                  |
|   \\  /    A nd           | Website:  www.openfoam.com                      |
|    \\/     M anipulation  |                                                 |
\*---------------------------------------------------------------------------*/
FoamFile
{
    version     2.0;
    format      ascii;
    arch        "LSB;label=32;scalar=64";
    class       volScalarField;
    location    "0.195/water";
    object      d.gas;
}
// * * * * * * * * * * * * * * * * * * * * * * * * * * * * * * * * * * * * * //

dimensions      [0 1 0 0 0 0 0];

internalField   nonuniform List<scalar> 
1504
(
0.00498637352243
0.00498636105488
0.00498635094344
0.00498634712474
0.00498634314106
0.00498634094674
0.00498634007017
0.00498633628584
0.0049863304697
0.00498632631741
0.00498632235941
0.00498631528488
0.00498630680835
0.0049862994247
0.00498629497359
0.00498628562853
0.00498627291614
0.00498625839194
0.00498623968483
0.00498622117202
0.00498645735001
0.00498643518206
0.00498642469178
0.00498642062381
0.00498641462993
0.00498641271561
0.00498641211479
0.00498641000678
0.00498640893679
0.00498641189466
0.00498641356768
0.0049864117524
0.0049864090016
0.00498640726481
0.00498640850794
0.00498640539838
0.00498639600833
0.00498638206479
0.00498636649365
0.00498635170796
0.0049865479301
0.00498651139687
0.0049865018387
0.00498649653558
0.00498649012315
0.00498649046633
0.00498649169677
0.00498649251631
0.00498649708769
0.00498650491888
0.00498650936703
0.00498651098712
0.00498651212635
0.00498651440933
0.00498651994415
0.00498651898875
0.00498651239351
0.00498650297998
0.00498648962698
0.00498647753415
0.00498664791697
0.00498660413826
0.00498659259491
0.00498658326895
0.00498657867419
0.00498658137188
0.00498658408297
0.00498658748952
0.00498659620344
0.00498660532201
0.00498661061846
0.00498661441617
0.00498661794457
0.00498662270043
0.00498663052572
0.00498663256469
0.00498662865469
0.00498662065967
0.00498661066836
0.00498660109583
0.00498668936072
0.00498668889968
0.00498667197846
0.00498666251036
0.00498666344568
0.00498666964218
0.00498667472765
0.00498668200293
0.00498669402277
0.00498670379294
0.00498671067286
0.00498671682166
0.00498672264044
0.00498672967382
0.00498673902746
0.00498674243756
0.00498674116888
0.00498673806845
0.00498673149963
0.00498672316235
0.00498674979237
0.00498675052138
0.00498672350032
0.00498671414138
0.00498672176684
0.00498673389307
0.00498674498553
0.00498675987761
0.00498677702241
0.00498679042001
0.00498680164581
0.00498681181292
0.00498682119689
0.00498683133405
0.00498684252562
0.00498684915005
0.00498685358853
0.00498685605496
0.00498685106751
0.0049868425712
0.00498681013783
0.00498681068418
0.00498677266901
0.00498676187365
0.00498677282921
0.0049867888992
0.00498680600082
0.00498682847813
0.00498685076117
0.00498686890808
0.00498688536281
0.00498690024423
0.00498691386146
0.00498692748026
0.00498694105796
0.00498695248837
0.0049869647047
0.00498696743954
0.00498696315856
0.00498695607278
0.00498686534815
0.00498686592386
0.00498682262751
0.00498681164822
0.00498682473716
0.00498684405755
0.00498686757747
0.00498689679264
0.00498692330128
0.00498694606705
0.0049869674349
0.00498698666982
0.00498700421312
0.00498702100505
0.00498703709098
0.00498705437275
0.00498706954655
0.00498707616923
0.0049870737274
0.00498706635893
0.00498691807849
0.00498691800491
0.00498687612846
0.0049868670097
0.00498688185591
0.0049869047275
0.00498693536796
0.00498696996602
0.00498699987963
0.00498702747893
0.00498705356742
0.00498707692873
0.00498709787832
0.00498711763964
0.00498713767786
0.00498716225835
0.00498718328202
0.00498718492382
0.00498718470767
0.00498718176622
0.00498698489943
0.00498696936044
0.00498693061487
0.00498692543882
0.00498694331864
0.00498697211165
0.00498701185185
0.00498705025024
0.00498708297557
0.00498711719038
0.0049871485592
0.00498717450064
0.0049871978861
0.00498722143384
0.00498724746729
0.00498728072532
0.00498729662009
0.00498730693703
0.00498731246116
0.00498730822802
0.00498705066241
0.00498700712797
0.0049869507469
0.00498695379619
0.00498698479523
0.0049870322404
0.00498708541372
0.00498712741169
0.00498716921261
0.00498721497262
0.00498724840911
0.00498727659395
0.00498730596904
0.00498733696617
0.00498737273699
0.0049874106486
0.00498743939457
0.00498744802871
0.00498745611145
0.00498746202001
0.00498710670716
0.00498704792918
0.00498697821271
0.00498699300622
0.00498704742408
0.00498711642588
0.00498717322828
0.00498722015032
0.0049872743358
0.00498732104513
0.00498735637434
0.00498739348791
0.00498743085206
0.00498747286978
0.00498752220021
0.0049875733048
0.00498758942624
0.00498761113933
0.0049876285517
0.00498763150882
0.00498715551969
0.00498713400425
0.0049870653014
0.00498709881568
0.00498717820361
0.00498724414571
0.00498729669504
0.00498734950498
0.00498740393676
0.00498744942328
0.00498749122009
0.00498753314768
0.00498758187038
0.00498763830789
0.00498770082627
0.00498774699461
0.00498778282584
0.00498780343499
0.00498782289514
0.00498782956924
0.0049871976924
0.00498726453411
0.00498722570146
0.00498728387079
0.00498735325604
0.00498740491253
0.00498744674014
0.00498749687179
0.00498755800752
0.00498760538666
0.00498765139485
0.00498770648609
0.00498777219586
0.00498784154976
0.00498791498149
0.00498797763785
0.0049880091222
0.0049880438218
0.00498807045086
0.0049880813685
0.00498723409961
0.00498737668158
0.00498741079921
0.00498745775301
0.00498750667493
0.00498754982165
0.00498759953618
0.00498766881431
0.004987733428
0.00498779220096
0.00498785886098
0.00498793569055
0.00498801560521
0.0049880957007
0.00498817918096
0.00498824460423
0.00498829544999
0.00498833039886
0.00498836132486
0.00498838598188
0.00498723626264
0.0049874474858
0.00498750471917
0.00498755346101
0.0049876228337
0.00498770609315
0.00498779993991
0.00498789277631
0.00498798829084
0.0049880789209
0.0049881702961
0.00498825935665
0.00498834320168
0.00498842493381
0.00498850811234
0.00498857922296
0.00498862967659
0.0049886640137
0.00498869293444
0.00498871626038
0.00498814170835
0.00498843407194
0.00498837305055
0.00498833481442
0.00498834690394
0.00498838560916
0.0049884311983
0.00498849178569
0.00498855736163
0.00498862663901
0.0049886934957
0.00498875459222
0.0049888106932
0.00498886484774
0.00498892066838
0.00498897103145
0.00498900750731
0.00498902925372
0.00498904774545
0.00498906589375
0.00499035879819
0.00499048971789
0.00499030952588
0.0049901883943
0.00499007613715
0.00498994054452
0.0049897859516
0.00498964486165
0.00498955247994
0.00498949936976
0.00498946482195
0.00498944014223
0.00498942215387
0.00498940930722
0.0049894016789
0.00498939856154
0.00498939927042
0.00498940139456
0.00498940226152
0.0049894019907
0.0049908642391
0.00499086521147
0.00499086560201
0.00499086585176
0.00499086181847
0.00499084453566
0.00499079781379
0.0049906866202
0.00499049860245
0.00499031956746
0.00499018899406
0.00499008707265
0.00499000198314
0.004989928937
0.00498986381898
0.00498980633696
0.00498976854989
0.00498975048326
0.00498973055504
0.00498971647078
0.00499088463867
0.00499088470644
0.00499088483721
0.00499088516052
0.00499088565938
0.00499088610612
0.00499088635998
0.00499088777776
0.00499087109233
0.00499076763554
0.0049906224737
0.0049905009825
0.00499039843264
0.00499030673492
0.0049902220389
0.0049901420388
0.00499007776771
0.00499004229853
0.00499001121021
0.00498998560303
0.00499089716247
0.00499089721784
0.0049908972943
0.00499089738027
0.00499089749246
0.00499089763685
0.0049908978338
0.00499089805347
0.00499089802554
0.00499088582911
0.00499081780652
0.00499072028514
0.00499062859357
0.00499054411182
0.00499046381479
0.00499038626937
0.00499031597832
0.0049902693814
0.00499023712865
0.00499020836662
0.00499090851437
0.00499090852605
0.00499090851923
0.00499090850467
0.00499090850793
0.00499090853312
0.00499090858309
0.0049909086745
0.00499090879523
0.00499090637909
0.00499088134254
0.00499082530282
0.00499075674768
0.00499068851859
0.00499062157056
0.0049905564157
0.00499049439413
0.00499044697445
0.00499041471533
0.00499038858076
0.00499091913411
0.00499091914611
0.00499091911876
0.00499091907012
0.00499091901532
0.00499091895526
0.00499091889263
0.00499091882988
0.00499091878024
0.00499091722803
0.00499090379039
0.00499087117586
0.00499082570698
0.00499077603166
0.00499072531367
0.00499067359851
0.00499062568972
0.00499058409552
0.00499055938125
0.00499053234873
0.00499092950762
0.00499092949893
0.00499092943943
0.00499092934131
0.00499092922224
0.00499092908921
0.00499092894455
0.00499092878732
0.00499092858277
0.00499092722734
0.00499091807138
0.00499089629547
0.00499086594395
0.00499083160166
0.00499079425036
0.00499075686252
0.00499072076734
0.00499069378226
0.00499067437358
0.00499065462215
0.00499094003331
0.00499094001397
0.00499093994056
0.00499093981316
0.00499093966419
0.00499093952132
0.00499093941184
0.00499093934989
0.00499093844728
0.00499093694159
0.00499092994247
0.0049909147854
0.00499089505523
0.00499087181359
0.00499084645512
0.00499081870126
0.00499079497147
0.00499078567421
0.00499077694029
0.00499075458468
0.00499095158392
0.00499095152419
0.00499095136947
0.00499095111716
0.00499095081652
0.00499095050296
0.00499095018038
0.00499094982361
0.00499094728434
0.00499094530719
0.00499093921984
0.00499092933185
0.00499091903174
0.00499090746438
0.00499089030684
0.00499087444767
0.00499086156725
0.00499086385629
0.0049908611135
0.0049908491715
0.00499096577836
0.00499096564778
0.00499096533876
0.00499096489812
0.00499096426134
0.00499096342787
0.00499096302199
0.00499096222049
0.00499096172905
0.00499095875926
0.00499095359204
0.00499095039903
0.00499095068549
0.00499094516895
0.00499093756148
0.0049909273683
0.00499092272947
0.00499094682667
0.00499095392255
0.00499093822934
0.00499098673223
0.00499098651228
0.00499098590548
0.00499098470089
0.00499098397533
0.00499098365958
0.00499098542292
0.00499098566569
0.00499098449822
0.00499098221243
0.00499098206151
0.00499098992451
0.00499099620054
0.00499099722748
0.00499099365246
0.00499099319985
0.00499100990486
0.0049910439346
0.00499104045566
0.00499103366318
0.00499102256487
0.00499102254106
0.00499102266975
0.0049910190366
0.00499101879226
0.00499102109232
0.00499102041435
0.0049910207139
0.00499102003579
0.00499102189672
0.00499103432171
0.00499104980971
0.00499105990674
0.00499106348684
0.00499107136202
0.00499107947265
0.00499110587098
0.00499114203658
0.00499114321317
0.00499113851445
0.00499106788554
0.00499106736346
0.00499106641951
0.00499105058004
0.0049910514861
0.00499105536465
0.00499105855014
0.0049910608521
0.0049910670025
0.00499108448041
0.00499110643853
0.00499112366022
0.00499113228666
0.00499114497457
0.00499115661329
0.00499117365254
0.00499122520751
0.00499125651008
0.00499124917748
0.0049912532205
0.00499113111305
0.00499113147826
0.00499107323448
0.00499106051848
0.004991071361
0.00499108177658
0.00499109132916
0.00499110720785
0.00499113419987
0.00499116236138
0.00499118511837
0.00499119927086
0.00499121804485
0.00499123505492
0.00499125623406
0.00499129729147
0.00499135064059
0.00499136888267
0.00499137522775
0.00499138466671
0.00499118983122
0.00499118973926
0.00499105289213
0.0049910356586
0.00499106245626
0.00499109193152
0.00499112677684
0.00499116887459
0.00499120484624
0.00499123484564
0.00499125694512
0.00499128439623
0.00499130967054
0.00499133961859
0.00499137153451
0.00499141651969
0.00499147861365
0.0049915020382
0.00499150922085
0.00499152789441
0.00499125314125
0.00499123749406
0.00499107201214
0.00499105074432
0.00499109171082
0.00499114469178
0.00499119921315
0.00499124086423
0.00499127650348
0.00499130543374
0.00499134062085
0.00499137260647
0.00499140908509
0.00499144601196
0.00499148685645
0.00499155566863
0.00499161202396
0.00499163569769
0.00499165947848
0.00499168474064
0.00499132297424
0.00499127573904
0.00499111847132
0.00499110210675
0.0049911613587
0.00499123100587
0.00499128078941
0.00499131975372
0.00499135103825
0.00499139070277
0.00499142825421
0.0049914708298
0.00499151396444
0.00499156036237
0.00499161446686
0.00499167975937
0.00499175059266
0.00499178526968
0.00499181179675
0.00499184806524
0.00499138971162
0.00499128396981
0.00499114385838
0.00499115232594
0.00499124102752
0.00499131318811
0.00499135908367
0.00499139287454
0.00499143580391
0.00499147424615
0.00499152115388
0.00499156996929
0.00499161976554
0.00499167316687
0.00499173754639
0.00499183267877
0.00499188738679
0.00499192655742
0.004991968217
0.0049920082796
0.00499145066033
0.00499128916855
0.00499111981404
0.00499118687612
0.00499130909179
0.00499138087014
0.00499142480576
0.00499147651302
0.00499151874589
0.00499156988725
0.00499162280582
0.00499167852589
0.00499173929958
0.00499179826879
0.00499189562674
0.00499196041244
0.0049920167401
0.00499207087266
0.00499211852456
0.00499216267416
0.00499150526805
0.00499139303592
0.00499123246537
0.0049913318879
0.00499143591799
0.00499148723752
0.0049915423935
0.00499158598018
0.00499164056567
0.00499169363398
0.00499175001349
0.00499181545458
0.00499187783564
0.00499196715416
0.00499203463374
0.00499209203855
0.00499215392462
0.00499221796165
0.00499227178439
0.00499231533562
0.00499155286691
0.00499153122608
0.00499144416694
0.00499152179243
0.00499159335239
0.00499165231048
0.00499169906502
0.00498597867721
0.00498596122028
0.00498594645279
0.00498593399484
0.0049859235146
0.00498591471605
0.00498590732117
0.00498590109671
0.00498589588562
0.0049858915941
0.00498588812928
0.00498588540065
0.00498588332173
0.00498588181265
0.00498588078895
0.00498588015523
0.00498587989488
0.00498619914955
0.00498617655018
0.00498615651661
0.00498613926207
0.00498612449591
0.0049861119058
0.0049861012123
0.00498609216808
0.00498608453811
0.0049860781015
0.00498607266688
0.00498606811292
0.00498606436208
0.00498606133506
0.00498605895223
0.00498605713904
0.00498605582556
0.00498605493796
0.00498605438845
0.00498605414166
0.0049863356251
0.0049863185408
0.00498630297812
0.0049862893539
0.00498627757133
0.00498626744684
0.00498625879344
0.00498625143663
0.00498624520131
0.004986239919
0.00498623544374
0.00498623168987
0.00498622860035
0.00498622611077
0.00498622415566
0.00498622267321
0.00498622160544
0.00498622088999
0.00498622044876
0.00498622023287
0.00498646599023
0.0049864535669
0.00498644209202
0.00498643193217
0.00498642309309
0.00498641546879
0.00498640893227
0.00498640336031
0.00498639862372
0.00498639459706
0.00498639117468
0.00498638830376
0.0049863859469
0.00498638405551
0.00498638257894
0.00498638146844
0.00498638067849
0.00498638015909
0.00498637984244
0.00498637966983
0.00498659271347
0.00498658393611
0.0049865760814
0.00498656915459
0.004986563148
0.00498655799305
0.00498655359187
0.00498654985163
0.00498654667472
0.00498654396915
0.00498654166316
0.00498653973295
0.00498653815908
0.00498653690929
0.00498653594776
0.00498653523948
0.00498653475138
0.00498653444647
0.00498653426755
0.00498653415
0.00498671635274
0.00498671052285
0.004986706101
0.00498670239286
0.00498669925902
0.00498669664719
0.00498669447131
0.00498669265777
0.00498669113356
0.00498668983567
0.00498668872388
0.0049866878017
0.00498668706816
0.00498668650863
0.00498668610317
0.00498668583075
0.00498668567169
0.00498668560156
0.00498668557487
0.00498668552498
0.00498683658242
0.00498683361953
0.00498683284453
0.00498683268547
0.00498683272854
0.00498683292894
0.00498683321087
0.00498683352187
0.00498683381697
0.00498683406611
0.00498683426451
0.00498683444626
0.00498683463217
0.00498683482861
0.00498683503313
0.00498683524048
0.00498683544462
0.00498683563589
0.00498683578032
0.00498683581401
0.00498695210881
0.00498695303746
0.00498695690128
0.00498696116925
0.00498696505301
0.00498696857335
0.00498697170561
0.00498697444639
0.00498697679925
0.00498697878267
0.00498698043978
0.0049869818438
0.00498698304513
0.00498698407601
0.00498698495478
0.00498698569367
0.00498698630266
0.00498698678641
0.0049869871248
0.00498698726212
0.0049870644557
0.00498707042313
0.0049870802899
0.0049870901314
0.00498709867768
0.00498710611074
0.00498711252678
0.00498711801722
0.00498712266559
0.00498712656184
0.00498712981366
0.00498713254542
0.00498713484653
0.00498713678089
0.00498713839043
0.00498713970719
0.00498714075748
0.00498714156353
0.00498714211888
0.00498714238303
0.00498718121529
0.00498719204945
0.00498720822845
0.00498722412286
0.0049872377118
0.0049872493366
0.00498725923732
0.00498726761929
0.00498727466163
0.00498728053816
0.00498728543043
0.00498728952144
0.00498729294708
0.00498729580623
0.00498729816577
0.00498730007763
0.00498730158581
0.00498730272848
0.00498730351586
0.0049873039306
0.00498731051335
0.0049873253218
0.00498734711142
0.00498736873948
0.00498738714678
0.00498740277934
0.00498741600797
0.00498742714391
0.00498743645793
0.00498744420554
0.00498745063962
0.00498745600268
0.00498746048006
0.00498746420599
0.00498746727091
0.00498746974526
0.00498747168802
0.00498747315537
0.00498747417404
0.00498747475946
0.00498746249715
0.00498747712308
0.00498750261335
0.00498752905929
0.00498755165894
0.00498757079748
0.00498758692744
0.00498760044554
0.00498761170569
0.0049876210385
0.00498762876179
0.00498763517595
0.00498764051783
0.00498764495635
0.00498764860294
0.00498765154334
0.00498765384978
0.00498765559222
0.00498765681878
0.00498765758918
0.00498763031
0.00498764619056
0.00498767676053
0.00498770843988
0.00498773509746
0.00498775731763
0.00498777581194
0.00498779115663
0.00498780383484
0.00498781427066
0.00498782285009
0.0049878299339
0.00498783581357
0.00498784069206
0.00498784469839
0.00498784792906
0.00498785046328
0.00498785238457
0.00498785376444
0.00498785472383
0.00498783034881
0.00498784808124
0.00498788071752
0.00498791532639
0.00498794417868
0.00498796783036
0.00498798724636
0.00498800317664
0.00498801621733
0.00498802686151
0.00498803553617
0.00498804264365
0.00498804852009
0.00498805339318
0.00498805739905
0.00498806063482
0.00498806317828
0.00498806511541
0.00498806654829
0.00498806768434
0.00498809615392
0.00498810530174
0.00498812878016
0.00498815938223
0.00498818583341
0.00498820746225
0.00498822510035
0.00498823947275
0.00498825115864
0.00498826062276
0.00498826825503
0.00498827444601
0.00498827954525
0.00498828378264
0.00498828728198
0.00498829012373
0.00498829236638
0.00498829408691
0.00498829541774
0.00498829669255
0.00498840157073
0.00498840811002
0.00498842009151
0.00498844038353
0.00498846022813
0.00498847638174
0.0049884893294
0.00498849972954
0.004988508087
0.00498851476535
0.00498852004126
0.00498852423144
0.00498852766092
0.00498853053598
0.00498853294536
0.00498853493279
0.00498853651925
0.00498853774591
0.00498853877309
0.00498854012019
0.00498873157889
0.00498875287901
0.00498875956485
0.00498875999341
0.0049887654552
0.00498877159386
0.00498877643571
0.00498878018567
0.00498878310998
0.00498878534796
0.0049887869555
0.00498878808775
0.00498878898974
0.00498878981015
0.00498879057741
0.00498879127802
0.00498879187296
0.00498879234065
0.00498879284219
0.0049887941616
0.00498908057939
0.00498909585091
0.00498911308018
0.00498910981668
0.00498909377514
0.00498908409462
0.00498907765015
0.00498907245845
0.00498906823668
0.00498906475063
0.00498906172318
0.00498905905259
0.00498905683997
0.00498905514068
0.00498905390131
0.00498905303644
0.00498905243464
0.004989051973
0.0049890517561
0.0049890529146
0.00498940788096
0.00498941499465
0.00498942486684
0.00498943546387
0.00498942398092
0.00498939741977
0.00498937796374
0.00498936320068
0.00498935144356
0.00498934198728
0.00498933418762
0.00498932764589
0.00498932228113
0.00498931803878
0.00498931478202
0.00498931235797
0.00498931058625
0.00498930922359
0.00498930817571
0.00498930893379
0.00498970592459
0.00498970223654
0.00498970134913
0.00498970460136
0.00498970814196
0.00498968974092
0.0049896602929
0.00498963743703
0.00498961949178
0.00498960513871
0.0049895934358
0.00498958373701
0.00498957579095
0.00498956944496
0.00498956450176
0.00498956076615
0.0049895580283
0.00498955598787
0.00498955425027
0.00498955433736
0.00498996750204
0.00498995409558
0.00498994511717
0.00498993846314
0.0049899359148
0.00498993073604
0.00498990921952
0.00498988289777
0.00498986164051
0.00498984455177
0.00498983060146
0.00498981905232
0.0049898095511
0.00498980188597
0.00498979583453
0.00498979118833
0.00498978773525
0.00498978520971
0.00498978320464
0.00498978274078
0.00499018544259
0.00499016819809
0.00499015437802
0.00499014380596
0.00499013382111
0.00499013086418
0.00499011789935
0.00499009528125
0.00499007336729
0.00499005557618
0.00499004105251
0.00499002904786
0.0049900191494
0.00499001111019
0.00499000470884
0.00498999974544
0.004989996025
0.00498999332799
0.00498999141275
0.0049899907838
0.00499036526956
0.00499034702051
0.00499033251943
0.00499031954737
0.00499031045251
0.00499029884023
0.00499028827612
0.00499027176638
0.00499025306463
0.00499023692861
0.00499022362119
0.00499021257996
0.00499020343657
0.0049901959668
0.00499018998645
0.00499018533174
0.00499018184117
0.004990179347
0.00499017769071
0.0049901770455
0.00499051272912
0.00499049565432
0.00499048144437
0.0049904698436
0.00499045630458
0.0049904456822
0.00499043381941
0.00499042076136
0.00499040601592
0.00499039278015
0.00499038169753
0.00499037245878
0.00499036477911
0.00499035848093
0.00499035342646
0.00499034949111
0.00499034654889
0.00499034446744
0.00499034314522
0.00499034251928
0.00499063623505
0.00499062182498
0.00499060932174
0.00499059706658
0.00499058807187
0.00499057356132
0.00499056219912
0.00499055119552
0.00499053975338
0.00499052946689
0.00499052079501
0.00499051358332
0.00499050760117
0.0049905027037
0.00499049878466
0.00499049574969
0.00499049349817
0.00499049192699
0.00499049097758
0.00499049042881
0.00499074225703
0.0049907308361
0.00499072014786
0.00499071158991
0.00499069853916
0.00499068786302
0.00499067720271
0.00499066806692
0.00499065964333
0.0049906522697
0.00499064603575
0.00499064088564
0.00499063665003
0.0049906332158
0.0049906305012
0.00499062843482
0.00499062693824
0.00499062592387
0.00499062536396
0.00499062494462
0.00499083905719
0.00499083038796
0.00499082278951
0.0049908122735
0.0049908056478
0.00499079207919
0.00499078254691
0.00499077567739
0.00499077041597
0.00499076600608
0.00499076227214
0.00499075923095
0.00499075677623
0.00499075483522
0.0049907533515
0.00499075227819
0.0049907515616
0.00499075112675
0.0049907509498
0.00499075069196
0.00499093249984
0.00499092718276
0.00499091918163
0.00499091402779
0.00499089966798
0.00499088887858
0.00499088243636
0.00499087915731
0.00499087741431
0.00499087592681
0.00499087465547
0.00499087369334
0.00499087299704
0.00499087253086
0.00499087225748
0.00499087214318
0.00499087215377
0.00499087224489
0.00499087239786
0.00499087232914
0.00499103089885
0.00499102569998
0.00499102115778
0.0049910078565
0.00499099493371
0.00499098670336
0.00499098413282
0.00499098493095
0.00499098647862
0.00499098762552
0.00499098858941
0.00499098951911
0.00499099043608
0.0049909913359
0.00499099218726
0.00499099295457
0.00499099360889
0.00499099415474
0.00499099458012
0.00499099476525
0.00499113691265
0.00499113509544
0.00499112438623
0.00499111163575
0.00499109739524
0.00499109281221
0.0049910943792
0.00499109891348
0.00499110312244
0.00499110644475
0.00499110925426
0.00499111175115
0.00499111402318
0.00499111609505
0.00499111793596
0.00499111949563
0.00499112074073
0.00499112166625
0.00499112223421
0.00499112272815
0.00499125692202
0.00499125286157
0.00499124535831
0.00499122563601
0.00499121471795
0.00499121413268
0.00499121974465
0.00499122688799
0.00499123273122
0.00499123742151
0.00499124137323
0.00499124483702
0.00499124796693
0.00499125081847
0.0049912533673
0.00499125553965
0.00499125723424
0.00499125838376
0.00499125891462
0.00499125997172
0.0049913907366
0.004991393333
0.00499138153922
0.00499136622991
0.00499135982915
0.00499136168234
0.00499136785677
0.00499137448491
0.00499137998478
0.00499138454734
0.00499138840951
0.00499139176112
0.00499139476604
0.00499139750325
0.00499139995717
0.00499140212638
0.00499140401168
0.00499140547186
0.00499140632457
0.00499140780245
0.00499154253313
0.00499154785287
0.00499154470056
0.00499153405578
0.00499152913027
0.00499152988885
0.00499153482368
0.00499154054944
0.00499154527059
0.00499154907024
0.00499155216924
0.00499155476506
0.00499155702579
0.00499155905657
0.00499156099022
0.00499156292573
0.00499156477547
0.00499156637561
0.00499156755744
0.00499156913481
0.00499170616905
0.00499172244695
0.00499172368108
0.00499172191419
0.00499171954888
0.00499172040928
0.0049917237858
0.0049917277165
0.0049917305569
0.00499173251478
0.00499173393171
0.00499173493815
0.00499173573868
0.00499173667255
0.00499173787872
0.00499173927806
0.00499174078462
0.00499174229114
0.00499174354776
0.00499174510812
0.00499187987362
0.00499190521615
0.00499192199557
0.00499193300172
0.00499194135173
0.00499194668808
0.00499194745483
0.00499194336296
0.00499193776425
0.00499193429336
0.00499193278593
0.0049919313008
0.00499193023001
0.00499192968854
0.00499192957534
0.00499192987608
0.00499193062205
0.00499193168789
0.00499193272426
0.00499193416049
0.0049920496773
0.00499208662727
0.00499211478092
0.00499213823235
0.00499215517633
0.00499216679713
0.00499216836324
0.00499216099557
0.00499215427184
0.00499214957009
0.00499214548596
0.00499214156614
0.00499213787062
0.00499213460395
0.00499213199924
0.00499213023172
0.00499212939125
0.00499212935179
0.00499212969989
0.00499213077185
0.00499220582362
0.00499224439283
0.00499227643691
0.00499230255471
0.0049923240639
0.00499233461318
0.00499233901467
0.00499234247205
0.00499236516225
0.00499238326827
0.00499236893798
0.00499235717714
0.0049923470691
0.00499233874247
0.00499233216944
0.0049923273256
0.00499232415181
0.00499232245254
0.00499232173783
0.00499232216963
0.00499235523054
0.00499238944416
0.00499241843018
0.00499244522425
0.00499246276227
0.00499247838049
0.00499249461477
0.00499252662907
0.00499256626013
0.00499256354842
0.00499255786463
0.0049925432422
0.00499252903608
0.00499251746182
0.00499250857653
0.00499250201666
0.00499249749128
0.00499249472549
0.00499249326716
0.00499249309853
)
;

boundaryField
{
    emptyPatch
    {
        type            empty;
    }
    minY
    {
        type            calculated;
        value           nonuniform List<scalar> 0();
    }
    maxY
    {
        type            calculated;
        value           nonuniform List<scalar> 0();
    }
    water_to_cooler
    {
        type            calculated;
        value           nonuniform List<scalar> 
38
(
0.00498587989488
0.00498605414166
0.00498622023287
0.00498637966983
0.00498653415
0.00498668552498
0.00498683581401
0.00498698726212
0.00498714238303
0.0049873039306
0.00498747475946
0.00498765758918
0.00498785472383
0.00498806768434
0.00498829669255
0.00498854012019
0.0049887941616
0.0049890529146
0.00498930893379
0.00498955433736
0.00498978274078
0.0049899907838
0.0049901770455
0.00499034251928
0.00499049042881
0.00499062494462
0.00499075069196
0.00499087232914
0.00499099476525
0.00499112272815
0.00499125997172
0.00499140780245
0.00499156913481
0.00499174510812
0.00499193416049
0.00499213077185
0.00499232216963
0.00499249309853
)
;
    }
    water_to_heater
    {
        type            calculated;
        value           nonuniform List<scalar> 
60
(
0.00498636284457
0.00498639970425
0.00498645584255
0.00498654637558
0.00498661935172
0.00498665529208
0.0049866725127
0.00498670278211
0.00498674105121
0.00498676910372
0.00498680841125
0.00498686358968
0.00498689494723
0.0049869234218
0.00498696910539
0.00498699707804
0.00498704172547
0.00498707020338
0.00498710486436
0.00498715367544
0.00498717463948
0.0049872028701
0.00498721626813
0.00498724799132
0.0049872228689
0.00498726911397
0.00498814001554
0.00499035690392
0.00499084287158
0.00499086896388
0.00499087677188
0.00499088996364
0.00499089311645
0.00499090510052
0.00499090752339
0.0049909181465
0.00499091940787
0.00499093152173
0.00499093294324
0.00499094495048
0.0049909473541
0.00499095946827
0.00499096440448
0.00499098518391
0.00499101184153
0.00499102395203
0.00499106002327
0.00499107250002
0.0049911262848
0.00499113947113
0.00499118825421
0.00499125151077
0.00499130654018
0.00499132618222
0.00499137706255
0.00499139880051
0.00499144297024
0.0049914663671
0.00499150324267
0.0049915505844
)
;
    }
    procBoundary3to1
    {
        type            processor;
        value           nonuniform List<scalar> 
41
(
0.00499175691833
0.00499181052231
0.00499186647744
0.00499193256642
0.0049919937134
0.00499207582608
0.00499214209727
0.00499220919449
0.00499226626151
0.00499232524034
0.0049923850553
0.00499243555498
0.00499247713037
0.00499188523417
0.00499195417001
0.00499184562565
0.00499186486177
0.00499191256335
0.00499195564641
0.00499175691833
0.00499200602872
0.00499251042337
0.00499253793724
0.0049925616925
0.00499257917039
0.00499259660733
0.00499260659801
0.00499262452993
0.00499266283968
0.0049926837392
0.00499267617864
0.00499267529353
0.00499267034345
0.0049926639543
0.00499265654069
0.00499265020906
0.00499264529571
0.00499264171069
0.00499263933084
0.0049926379422
0.00499263750436
)
;
    }
    procBoundary3to2
    {
        type            processor;
        value           nonuniform List<scalar> 
41
(
0.00498629423179
0.00498628928713
0.00498628046378
0.00498627716767
0.00498627454927
0.00498627231751
0.00498627052411
0.004986264504
0.00498625428514
0.00498624242183
0.00498623016593
0.00498621560568
0.00498619956954
0.004986184805
0.00498617255401
0.0049861595649
0.00498614269478
0.0049861232297
0.00498610303881
0.0049860803485
0.00498580438898
0.00498578498171
0.00498576868038
0.00498575500293
0.00498574355302
0.00498573397444
0.00498572594813
0.00498571920295
0.00498571355988
0.00498570891207
0.00498570516161
0.00498570220948
0.00498569996202