/*--------------------------------*- C++ -*----------------------------------*\
| =========                 |                                                 |
| \\      /  F ield         | OpenFOAM: The Open Source CFD Toolbox           |
|  \\    /   O peration     | Version:  2312                                  |
|   \\  /    A nd           | Website:  www.openfoam.com                      |
|    \\/     M anipulation  |                                                 |
\*---------------------------------------------------------------------------*/
FoamFile
{
    version     2.0;
    format      ascii;
    arch        "LSB;label=32;scalar=64";
    class       volScalarField;
    location    "0.93/water";
    object      alpha.gas_0;
}
// * * * * * * * * * * * * * * * * * * * * * * * * * * * * * * * * * * * * * //

dimensions      [0 0 0 0 0 0 0];

internalField   nonuniform List<scalar> 
1504
(
0.675807377365
0.677846292782
0.675807377365
0.678432364464
0.675807377365
0.6632243152
0.597541981054
0.502760334058
0.405577766312
0.317764077499
0.271937225124
0.271466750206
0.270946467454
0.271433854422
0.271071557893
0.32151055222
0.36241264812
0.34907965575
0.249221236146
0.0976149849709
0.680480579088
0.675807377365
0.678261547628
0.675807377365
0.676836352725
0.660968921428
0.592760677101
0.496423966615
0.395640535342
0.305797686601
0.271466750206
0.271096887945
0.271433854422
0.270649177489
0.271433854422
0.308749399296
0.362152700686
0.350552984841
0.263710166221
0.121213389363
0.675807377365
0.676539957112
0.675807377365
0.677177402302
0.675807377365
0.649655765071
0.572385296007
0.473208680466
0.370527496003
0.287293003897
0.271265923586
0.271433854422
0.270639276453
0.271394730932
0.270475845713
0.303957983241
0.360725161553
0.351327372098
0.276551618632
0.144046355768
0.679223319103
0.674038879907
0.676476947237
0.675807377365
0.673093724237
0.622947757243
0.534752915303
0.433635768534
0.333679397574
0.273642246332
0.271433854422
0.270753073199
0.271394730932
0.270322896835
0.271394730932
0.304205568975
0.359697686395
0.353409555714
0.292725475288
0.169831041569
0.675807377365
0.662545960722
0.675128148113
0.67406061214
0.650037625935
0.579683501191
0.485336031867
0.383505627847
0.29406580537
0.271433854422
0.270888537801
0.271394730932
0.270333289811
0.271255034309
0.270283883219
0.31054658606
0.3599483995
0.359086935156
0.315713205533
0.200568077803
0.678073900229
0.64689022716
0.661823463186
0.652256981772
0.60641068978
0.525364372811
0.427579730524
0.328065577265
0.272282466489
0.271100080031
0.271394730932
0.270347731229
0.271255034309
0.270099276216
0.271255034309
0.319376499812
0.361100613765
0.371557090589
0.341196990345
0.232457822002
0.675807377365
0.631028395737
0.637531265224
0.613546387622
0.552392338944
0.464230865719
0.364695022846
0.282671230265
0.271192780015
0.271394730932
0.270337309227
0.271255034309
0.270004267961
0.271126421722
0.274048724418
0.326022487426
0.362036114634
0.380951524444
0.359366380028
0.261201055069
0.677835849036
0.613831472734
0.607188539741
0.568021626036
0.494847046834
0.400947457183
0.306015582887
0.271282270259
0.271394730932
0.270307586659
0.271255034309
0.26980420432
0.271126421722
0.269920201569
0.28097048341
0.326984683661
0.361266340182
0.380981233254
0.3690858046
0.286039905733
0.675807377365
0.590242110689
0.568261652741
0.517213185996
0.437253653754
0.344058839018
0.274353363003
0.271394730932
0.270328782868
0.271255034309
0.269584307045
0.271126421722
0.269679767062
0.270950190517
0.283313924005
0.324662478571
0.358007394296
0.379999061817
0.377147419067
0.309921481532
0.676566393051
0.553550520494
0.516329378853
0.459240352965
0.382026074207
0.299909918574
0.271394730932
0.270442503705
0.271255034309
0.26939339897
0.271126421722
0.269366550744
0.270950190517
0.269894230641
0.284086086984
0.317629653439
0.351014107615
0.378483692199
0.391213122724
0.338137655202
0.675606417339
0.501054137156
0.463184084273
0.40864593418
0.340852094842
0.275956244616
0.270780888495
0.271255034309
0.269304676279
0.271126421722
0.269168503528
0.270950190517
0.269615785456
0.270413506028
0.282289447176
0.305427212072
0.339949144125
0.377366096063
0.404338941621
0.379850362329
0.640319518862
0.444976351693
0.432149716056
0.392610978311
0.327837543244
0.271347780086
0.271309797869
0.269534674755
0.271126421722
0.269143102634
0.270950190517
0.269440125001
0.270413506028
0.270179479101
0.276698919307
0.287752801303
0.323509076711
0.375274578038
0.405377742392
0.405218539474
0.572636836693
0.430115275566
0.429810004519
0.397971084103
0.333018444767
0.274517146446
0.270402655773
0.271309797869
0.269241444727
0.279782590351
0.290798305787
0.285923136354
0.272713802178
0.268781371941
0.264648294617
0.267308226116
0.300430631908
0.366679209246
0.405218539474
0.405672312551
0.524102718166
0.440621961994
0.459773544645
0.441646021908
0.37762566868
0.313066024012
0.291053881953
0.295844102744
0.315864387097
0.332769412851
0.319106778115
0.289027362968
0.269163832549
0.260544089059
0.253317123482
0.25012521275
0.274013347128
0.346667051278
0.405378355308
0.405218539474
0.528155129039
0.51067983412
0.545139078323
0.539989856614
0.487653177675
0.42372394153
0.391032493926
0.39243367392
0.399080309351
0.379665217882
0.333309571634
0.289159429488
0.263317884392
0.253494870986
0.247202669858
0.241928515548
0.250988429125
0.316821596671
0.400762773531
0.405708048442
0.569963383743
0.60808522502
0.630085497532
0.629297096127
0.601241729369
0.557981207773
0.522131862889
0.498974560875
0.473141805813
0.42640738901
0.359407492655
0.297643984697
0.262825319198
0.24968000106
0.245144167716
0.239973113001
0.237784764903
0.283347664488
0.38320114702
0.405218539474
0.642769941117
0.659253885338
0.663626485574
0.664674454129
0.653252743986
0.631671304367
0.604441231923
0.573032637463
0.534748983013
0.481039868913
0.40459518035
0.321499067467
0.265861601647
0.247401011569
0.244162851837
0.24005716535
0.235371585315
0.254477979741
0.347839739442
0.405503104501
0.682258150725
0.669410128819
0.670259227599
0.670431566753
0.667214605855
0.656443139791
0.639145476945
0.614346538747
0.578850345837
0.526616370502
0.448148107841
0.35196574156
0.274520091666
0.24629226224
0.243367926225
0.240773292688
0.235345781566
0.236951661759
0.304755310846
0.403681412659
0.681213327455
0.670685600056
0.670608705369
0.670540222012
0.6703758107
0.664700983018
0.654309517774
0.636579810609
0.605798422486
0.554898041892
0.476003391487
0.37531679025
0.285125438123
0.24626020073
0.242952621164
0.242087227124
0.235379042688
0.227770635996
0.270642574991
0.391670030245
0.686186734415
0.669492285736
0.670536283331
0.670532345319
0.670308668397
0.668024368476
0.662391808714
0.649598609424
0.621939604236
0.571365396702
0.491773316041
0.389089951684
0.292345339232
0.246303934045
0.242958585206
0.244309162632
0.238082289671
0.222217705536
0.248110998447
0.369516506753
0.681213327455
0.66367971725
0.670499327677
0.670308668397
0.670258983669
0.669487012967
0.666491533062
0.65682268608
0.631029177157
0.580273186131
0.499642522459
0.395308440631
0.294942885925
0.246117539578
0.243497272082
0.248874019318
0.243014382784
0.21969702361
0.234210079675
0.347113331185
0.686698799386
0.650892897496
0.664878196782
0.670204666883
0.670164499631
0.66942222847
0.667173867538
0.659065991336
0.634118238218
0.582807272699
0.501071064481
0.395683056953
0.294165466461
0.24603027988
0.246053848576
0.257376399172
0.250408161457
0.219606352887
0.225890651704
0.325915268251
0.681446485603
0.632516331201
0.651020672273
0.662822751287
0.666231046954
0.665656570191
0.664644631386
0.657532071472
0.632696942886
0.580418794022
0.496998268359
0.389881694255
0.288531494481
0.246391474199
0.252734479552
0.270419185061
0.25867408888
0.219252772125
0.220435126174
0.307933099685
0.686253803145
0.61039542145
0.630667619424
0.643375200733
0.650171593557
0.651888903251
0.653075562284
0.647526862581
0.622345640548
0.567378894027
0.480707472352
0.372688217166
0.278585288136
0.251621739453
0.266824603518
0.285100637223
0.263189692776
0.217230770257
0.216369667897
0.295031486152
0.681417137558
0.586924784764
0.606591604955
0.612822282506
0.619038672798
0.623584674224
0.627266019008
0.622763399044
0.596615207273
0.538595703762
0.449637720424
0.345295859692
0.27199936688
0.26325618794
0.288537828912
0.294709661313
0.261718786831
0.21372565461
0.213329649781
0.286430561417
0.683971379087
0.565812274338
0.584045104703
0.578727793971
0.578869453804
0.583205245629
0.588281905987
0.583608294952
0.555566607135
0.494962053335
0.406154042657
0.313157229263
0.271666867697
0.278834780852
0.306827105113
0.296758397244
0.25269878026
0.210274953146
0.211381517601
0.279975111466
0.681213327455
0.549296014063
0.564525086854
0.549212487981
0.539919615672
0.540669096473
0.542971529719
0.535100801648
0.503153187238
0.440533124056
0.356375382918
0.287089866959
0.27552548491
0.299804517378
0.30770834484
0.291812944639
0.239531297377
0.208553243735
0.210140415395
0.27302751172
0.682040449998
0.535178690854
0.546431708275
0.527607016995
0.512052545943
0.505037924592
0.498678668874
0.482439866156
0.444929730953
0.382148257952
0.310812868245
0.27511737203
0.283553273762
0.305086316497
0.307747117601
0.280311594623
0.228554691809
0.208436253539
0.208870178443
0.263012060557
0.680705255123
0.521195766694
0.527928318954
0.513033113984
0.497211138262
0.478666853906
0.457795438878
0.429858819771
0.386378398999
0.327165081016
0.277109741186
0.268572406332
0.28384614777
0.304928911063
0.301569354202
0.265641980247
0.224955975051
0.208534301529
0.208358530358
0.248222775665
0.665208675302
0.512337430896
0.512376804296
0.507020109706
0.491313985856
0.457096051275
0.41914143315
0.379046471651
0.330698902519
0.279960928849
0.253913761325
0.258657173024
0.280113680429
0.295976555354
0.284908459288
0.252901284513
0.226041373678
0.209394740955
0.208514701809
0.231077030425
0.625363097554
0.512359472959
0.514928667141
0.514824819055
0.492837535608
0.441066875674
0.387106306695
0.335875292111
0.283821405301
0.243310360578
0.23294106291
0.241474875373
0.262571592276
0.268590241042
0.259366335706
0.243750691535
0.230747650477
0.21414927981
0.208329834224
0.216979686607
0.605559616616
0.531698768303
0.550198077575
0.551141361817
0.506515346406
0.440984634302
0.377700389022
0.318187371763
0.261740109441
0.221996572583
0.214666786524
0.219032936622
0.229628165394
0.231977267266
0.233756757987
0.236435872743
0.232142340318
0.219624305556
0.20840535854
0.209126917736
0.640114078412
0.615718018215
0.623659588225
0.615358027123
0.551656136133
0.464502000875
0.388169085256
0.321867847242
0.261933765692
0.218464417204
0.208851259024
0.208906017521
0.209941318554
0.211223984735
0.216573861969
0.227662780951
0.23034531187
0.221058820961
0.208325345983
0.208387498964
0.714293711004
0.698679749626
0.688315637264
0.674582739973
0.62549969737
0.53857182749
0.441735471605
0.353927382906
0.277859132971
0.222244418886
0.208498944983
0.20841668153
0.208440535143
0.208448924399
0.209633751127
0.217046534317
0.224202165377
0.219255074813
0.208387498964
0.208307219814
0.738618758547
0.720633403903
0.71497899913
0.705475377007
0.679061908325
0.61787012382
0.523436518235
0.418050954431
0.318482609553
0.237632361584
0.208707097772
0.208440535143
0.208273762263
0.208421773034
0.208379102352
0.209999653929
0.214534606473
0.214106774399
0.208451212487
0.208367277494
0.737448886301
0.722084097115
0.719692812532
0.713125379476
0.693759772856
0.64595386346
0.563730297594
0.459523131089
0.350232432157
0.253205485153
0.20926565346
0.208296317285
0.208421773034
0.208141329071
0.20840535854
0.208359812863
0.209420799593
0.209641702126
0.208440114262
0.208312694547
0.740455120441
0.718878871387
0.717253929554
0.7112578295
0.6919041796
0.644577272508
0.564262380425
0.461682480044
0.351881009598
0.253359861445
0.209121052342
0.208421773034
0.20806054234
0.20840535854
0.208051961301
0.208390033351
0.208324720439
0.208717501128
0.208463397795
0.20835319847
0.738402314939
0.701965695166
0.702645419379
0.696863146615
0.674703259988
0.624196128914
0.544118007566
1e-15
1.00649692648e-15
1.01203611071e-15
1.01568034627e-15
1.01650929546e-15
1.01522735123e-15
1.00759041901e-15
1e-15
1e-15
1e-15
1e-15
1e-15
1e-15
1.01623950996e-15
1.03749139638e-15
1.03656993439e-15
1.64235276787e-15
0.0130060903638
0.000279640928247
1e-15
1e-15
1.00658175882e-15
1.01535423075e-15
1.01809798186e-15
1.01854856784e-15
1.0175348704e-15
1.01355541044e-15
1e-15
1e-15
1e-15
1e-15
1e-15
1.00463580094e-15
1.01980593045e-15
1.04243087399e-15
1.04046787204e-15
1.66087098509e-15
0.0221771038953
0.000808195162643
8.85909112715e-07
1e-15
1.00244533893e-15
1.01918227973e-15
1.02087589128e-15
1.0213985573e-15
1.01957318611e-15
1.01792299e-15
1.00192966704e-15
1e-15
1e-15
1e-15
1.00259186307e-15
1.01383371742e-15
1.02268826414e-15
1.04686690688e-15
1.04440762579e-15
1.67957981809e-15
0.0336100396808
0.00181152306622
5.8881547303e-06
1.00170321485e-15
1.00060905873e-15
1.01998934936e-15
1.02270006254e-15
1.02278678856e-15
1.02127788968e-15
1.01858865395e-15
1.00991317857e-15
1.00209837384e-15
1.00282873042e-15
1.00613997607e-15
1.01159521538e-15
1.01626568224e-15
1.02485936061e-15
1.05087954456e-15
1.04991178644e-15
1.69707499424e-15
0.0476547230922
0.00339768232766
1.96728531046e-05
1e-15
1.00009186649e-15
1.00990618039e-15
1.02278920035e-15
1.02270006254e-15
1.02246310105e-15
1.0175077999e-15
1.01134886851e-15
1.00995476439e-15
1.01036241257e-15
1.01157342453e-15
1.01358726928e-15
1.01732469215e-15
1.02659145394e-15
1.05448647514e-15
1.0591243347e-15
1.71160061443e-15
0.0646061152427
0.00571053150393
4.90623553334e-05
1e-15
1e-15
1e-15
1.02270006254e-15
1.02281616806e-15
1.02257609538e-15
1.01533270805e-15
1.01171262272e-15
1.01134098413e-15
1.01163032899e-15
1.01245042886e-15
1.01417345132e-15
1.01761610148e-15
1.02808196375e-15
1.05772283855e-15
1.0698138933e-15
1.72441561599e-15
0.084349475322
0.00912650330951
0.000111032920779
1e-15
1e-15
1e-15
1.02254601718e-15
1.02270006254e-15
1.02024797264e-15
1.0133048021e-15
1.01153933118e-15
1.01136455286e-15
1.01163183015e-15
1.01238647878e-15
1.01395742174e-15
1.01713326152e-15
1.02922520191e-15
1.06057336779e-15
1.07874648986e-15
1.73719969423e-15
0.106708307443
0.0141781820526
0.000240798239152
1e-15
1e-15
1e-15
1.01570731711e-15
1.0218039088e-15
1.01575322631e-15
1.01137363015e-15
1.01052063064e-15
1.01043137497e-15
1.01066941178e-15
1.01133044256e-15
1.01271320957e-15
1.01567396436e-15
1.02975702529e-15
1.06301046877e-15
1.08610232572e-15
1.77793737175e-15
0.131379179529
0.0213296179992
0.000498492079507
1.34371379983e-09
1e-15
1.00076445563e-15
1.01018898673e-15
1.01604151739e-15
1.01131737374e-15
1.00904979235e-15
1.00852970052e-15
1.00848288896e-15
1.00872511656e-15
1.00931649037e-15
1.01053914513e-15
1.01330888765e-15
1.02966786476e-15
1.06507606561e-15
1.09515404299e-15
1.80746356577e-15
0.159291335572
0.0313252569082
0.00100763139961
4.16142515505e-07
1e-15
1e-15
1e-15
1.00655611995e-15
1.00717633076e-15
1.0062149008e-15
1.0058672958e-15
1.00591031137e-15
1.00616670293e-15
1.00666592001e-15
1.00768341954e-15
1.01021536329e-15
1.02900516534e-15
1.06693803906e-15
1.10709410141e-15
1.80697752094e-15
0.194650659713
0.0464319212049
0.00208748827633
3.25565729597e-06
1e-15
1e-15
1e-15
1e-15
1.00351586987e-15
1.00316038003e-15
1.00301679125e-15
1.00312125813e-15
1.0033573413e-15
1.0037378927e-15
1.00453236965e-15
1.00674393452e-15
1.0280798485e-15
1.06878458243e-15
1.12201115504e-15
1.80740762155e-15
0.244102136117
0.0709186416377
0.00460581391703
1.89422560513e-05
1e-15
1e-15
1e-15
1.00019874245e-15
1.00119968387e-15
1.00104902256e-15
1.00103099239e-15
1.00109728481e-15
1.00121190065e-15
1.00139514384e-15
1.00182324683e-15
1.00332201152e-15
1.02748743483e-15
1.07070680651e-15
1.13836714845e-15
1.80714056875e-15
0.295243702086
0.109174327366
0.0107815759018
0.000109059590933
4.95608465319e-09
1e-15
1e-15
1e-15
1.00007475071e-15
1.00022513441e-15
1.00023963571e-15
1.00027090718e-15
1.00031315524e-15
1.00037759133e-15
1.00052746968e-15
1.00112571481e-15
1.02756174845e-15
1.07273991163e-15
1.15400392469e-15
1.807312272e-15
0.336116985852
0.159615861107
0.0242950412741
0.000571072029338
8.10868966676e-07
1e-15
1e-15
1e-15
1e-15
1e-15
1e-15
1e-15
1e-15
1e-15
1.00000599992e-15
1.00019845368e-15
1.0285280169e-15
1.07507221694e-15
1.16864001553e-15
1.80734124332e-15
0.367977563269
0.21339543556
0.0486776629406
0.002388433769
1.32691496446e-05
1e-15
1e-15
1e-15
1e-15
1e-15
1e-15
1e-15
1e-15
1e-15
1e-15
1.00301598091e-15
1.03040621154e-15
1.07802300605e-15
1.18400728094e-15
1.80746531222e-15
0.403661003532
0.263975558827
0.0839590791257
0.00774338167081
0.000122755178372
4.33466477763e-08
1e-15
1e-15
1e-15
1e-15
1e-15
1e-15
1e-15
1e-15
1e-15
1.01073172584e-15
1.03304681161e-15
1.08186880032e-15
1.2015529735e-15
1.80758938113e-15
0.40570654381
0.302344291938
0.126351593649
0.0195572380499
0.000733693630778
2.47839377699e-06
1e-15
1e-15
1e-15
1e-15
1e-15
1e-15
1e-15
1e-15
1e-15
1.01655882865e-15
1.03636959615e-15
1.08673220275e-15
1.22150911495e-15
1.80860633268e-15
0.405218539474
0.331692997669
0.170829124974
0.0398865646512
0.00291000486711
3.44079052662e-05
1.05974459498e-15
1e-15
1e-15
1e-15
1e-15
1e-15
1e-15
1e-15
1.00476923909e-15
1.02113792922e-15
1.04032983114e-15
1.09246053207e-15
1.24207691523e-15
1.81371713081e-15
0.405728491351
0.356359645812
0.216056183436
0.0695599788673
0.00857926222051
0.000245138819477
2.01382126642e-07
1e-15
1e-15
1e-15
1e-15
1e-15
1e-15
1.00574586481e-15
1.01747489262e-15
1.02627839782e-15
1.04527457849e-15
1.09886235643e-15
1.26091660944e-15
1.82353750718e-15
0.405218539474
0.380429410486
0.261863369821
0.108406849818
0.0203600776749
0.001197494121
8.60712215287e-06
1.01400670943e-15
1e-15
1e-15
1.00008699355e-15
1.00559035257e-15
1.01303871074e-15
1.01934929447e-15
1.02384964988e-15
1.03224983369e-15
1.0513296395e-15
1.10564063219e-15
1.27622909047e-15
1.83934711814e-15
0.405737605796
0.405218539474
0.307933281064
0.153656061651
0.0403952245678
0.0041624933118
8.94644645551e-05
1e-15
1e-15
1.00260223697e-15
1.01740035594e-15
1.0206023256e-15
1.02336111205e-15
1.02581842716e-15
1.0297145628e-15
1.03850111173e-15
1.05788119524e-15
1.11188728116e-15
1.28638757524e-15
1.86271521981e-15
0.405218539474
0.405736770892
0.342576793678
0.199564783001
0.0681183119341
0.0108822195765
0.000513248231994
1.94695522684e-06
1e-15
1e-15
1.0204367768e-15
1.02716271825e-15
1.02902580351e-15
1.03139564081e-15
1.03545554721e-15
1.04411998323e-15
1.06356307682e-15
1.11665233061e-15
1.28845278928e-15
1.89600893003e-15
0.405532854424
0.405218539474
0.365184506383
0.238849398585
0.0992755888803
0.022217568383
0.00194850246528
3.0586175547e-05
1e-15
1e-15
1.01104895743e-15
1.02952031935e-15
1.03345006207e-15
1.0360420388e-15
1.03981232896e-15
1.04739352426e-15
1.06613213156e-15
1.11909226691e-15
1.28770052037e-15
1.94063459985e-15
0.40519285701
0.405717909488
0.379023605964
0.268896461102
0.129166170765
0.0372903369223
0.00516784660206
0.000191656497403
2.56775478464e-07
1e-15
1e-15
1.02829062472e-15
1.03542670369e-15
1.03800286683e-15
1.04105397291e-15
1.04735041448e-15
1.0650115474e-15
1.11866014562e-15
1.28465544658e-15
1.9992157613e-15
0.402983851665
0.405218539474
0.387854460808
0.291495860129
0.155861372703
0.0543979084437
0.0105526412028
0.000734086466134
6.4977921287e-06
1e-15
1e-15
1.00669608695e-15
1.03305183168e-15
1.03723759169e-15
1.03893917407e-15
1.04262496201e-15
1.05735478254e-15
1.11272148836e-15
1.27859280914e-15
2.08693079305e-15
0.398609229883
0.405650079447
0.39395864697
0.30950199395
0.179917720866
0.0724708820205
0.0179338162857
0.00202225605076
4.91732155598e-05
9.42726922416e-10
1e-15
1e-15
1.02549887307e-15
1.03270124914e-15
1.03200556936e-15
1.03106241465e-15
1.03940751501e-15
1.09572762266e-15
1.26942655891e-15
2.23225630955e-15
0.392981711649
0.405218539474
0.400357456314
0.325311426647
0.20265817863
0.0913373856919
0.0270235154891
0.00429987682595
0.000207517767826
6.17132215514e-07
1e-15
1e-15
1e-15
1.02112709716e-15
1.02072689763e-15
1.0116674559e-15
1.00843599939e-15
1.06130487602e-15
1.24294651386e-15
2.4434778858e-15
0.384720132716
0.405606014149
0.405218539474
0.341381350271
0.225104882645
0.111155431212
0.0377584781427
0.00767852373816
0.000615473153671
7.30906975112e-06
1e-15
1e-15
1e-15
1.00106006991e-15
1.00215476415e-15
1e-15
1e-15
1.00447790179e-15
1.17033059401e-15
2.71292135482e-15
0.371704629759
0.405218539474
0.405605620177
0.356097265672
0.248180479629
0.132427026244
0.0505476375472
0.0123530144412
0.00148698961939
4.4642553505e-05
1.51791995813e-08
1e-15
1e-15
1e-15
1e-15
1e-15
1e-15
1e-15
1.01233810154e-15
2.7533711038e-15
0.35172142227
0.405440805663
0.405218539474
0.369293068264
0.271976094495
0.156393920322
0.0667489934015
0.0191864619714
0.0031499831405
0.000187421161602
1.29460324923e-06
1e-15
1e-15
1e-15
1e-15
1e-15
1e-15
1e-15
1e-15
2.75373676622e-15
0.326762355069
0.404044605078
0.405635804809
0.381949272379
0.297349452909
0.185460484673
0.0892294870838
0.0303910145236
0.00650449822149
0.000679609626632
2.04277046157e-05
2.24279669896e-08
3.0139331469e-12
1.60568579072e-14
1.35537040739e-14
4.48795880687e-14
1.86015292086e-14
2.77407279901e-15
1e-15
3.930180909e-15
0.301552019563
0.399149085647
0.405218539474
0.400203954528
0.329686957079
0.224501437713
0.123095356529
0.0508533175842
0.0143800700064
0.00247097979506
0.00020978219006
5.90649454299e-06
7.27666982978e-09
2.46728058369e-09
5.21375579269e-09
6.64353406749e-09
2.10327947176e-09
2.06323657183e-10
3.5865820345e-12
6.82254841798e-13
0.279168201167
0.389248358487
0.40572357187
0.405218539474
0.366613509061
0.278014538487
0.175912045243
0.0900422806188
0.0351449293777
0.00994974851974
0.00199611085541
0.000267121747587
2.29315528259e-05
1.1649293492e-05
2.16709301118e-05
2.85775556586e-05
1.34572600797e-05
2.39681762455e-06
1.07549433715e-07
1.17413502634e-09
0.259514511553
0.370587741781
0.405218539474
0.405710500453
0.40325584855
0.347797977481
0.256654484259
0.163513503694
0.0891858575638
0.0413103440101
0.0166165023338
0.00594945245622
0.00252525058538
0.00302141391104
0.00510213813065
0.00618826263483
0.00395348421971
0.0012749930206
0.000145869283204
2.07480718786e-06
0.24379625145
0.341109047941
0.405436349295
0.405218539474
0.405650685596
0.397302625346
0.348230588715
0.272089479335
0.190412152597
0.121524719937
0.0758682570884
0.056856599038
0.0662503458572
0.105452260418
0.143796236219
0.134702465792
0.0982270762479
0.0562453716971
0.0169260801508
0.000430094431812
0.232118181596
0.307372838133
0.391951066786
0.405665683479
0.405218539474
0.405513727764
0.395902797274
0.351788544356
0.274114699171
0.218430431899
0.230090227771
0.328479024907
0.482856114802
0.550599527096
0.533360467446
0.464696347831
0.394784451949
0.348794295112
0.20736759728
0.00792896998904
0.223409108194
0.275572000047
0.356900682133
0.403325353462
0.405547593188
0.405218539474
0.394026294107
0.351740748186
0.327827608105
0.404058633074
0.5701037081
0.584426239529
0.587694568877
0.584426239529
0.585157077342
0.57115420829
0.519636898319
0.471126126699
0.402103620114
0.0280524271418
0.215940535411
0.249652089439
0.316977940678
0.382912938643
0.402805159009
0.399002398062
0.374860147783
0.353052442495
0.43313182581
0.587064464578
0.584426239529
0.58879365916
0.584714065489
0.58672250884
0.584426239529
0.570001439637
0.502423220635
0.440409546291
0.418337054771
0.0363947948817
)
;

boundaryField
{
    emptyPatch
    {
        type            empty;
    }
    minY
    {
        type            fixedValue;
        value           nonuniform List<scalar> 0();
    }
    maxY
    {
        type            inletOutlet;
        phi             phi.gas;
        inletValue      nonuniform List<scalar> 0();
        value           nonuniform List<scalar> 0();
    }
    water_to_cooler
    {
        type            zeroGradient;
    }
    water_to_heater
    {
        type            zeroGradient;
    }
    procBoundary3to1
    {
        type            processor;
        value           nonuniform List<scalar> 
41
(
0.443087528668
0.334018088014
0.239650188458
0.208421773034
0.208168603802
0.20840535854
0.20786782135
0.208387498964
0.208020720371
0.208372630802
0.208287166982
0.208361100139
0.208315719785
0.739566430598
0.654854868465
0.66562929911
0.657698559475
0.627995335113
0.568976398327
0.443087528668
0.485186372608
0.210532119657
0.231463877252
0.283813924419
0.349660116136
0.37668032027
0.365905592731
0.3357413745
0.364978734495
0.54609077286
0.584426239529
0.589344306334
0.584714065489
0.588472008495
0.584714065489
0.58513738131
0.538912677534
0.428040042926
0.351064235842
0.371683237545
0.032851340681
)
;
    }
    procBoundary3to2
    {
        type            processor;
        value           nonuniform List<scalar> 
41
(
0.68155390118
0.675620699584
0.678957716649
0.675807377365
0.677309550229
0.661709060201
0.594758496145
0.500531367141
0.405953836589
0.32083705094
0.272331637179
0.271266378044
0.271466750206
0.271055463924
0.274191879799
0.336167257595
0.362420760831
0.343844288079
0.226135297486
0.0708531646591
1e-15
1.00354641928e-15
1.00963733031e-15
1.01366312108e-15
1.0147841841e-15
1.01287178955e-15
1.0025406984e-15
1e-15
1e-15
1e-15
1e-15
1e-15
1e-15
1.01228542674e-15
1.03234263075e-15
1.03207820674e-15
1.62491982477e-15
0.00627221216739
6.71504184032e-05
1.04811646029e-15
1.04811646029e-15
)
;
    }
}


// ************************************************************************* //
