/*--------------------------------*- C++ -*----------------------------------*\
| =========                 |                                                 |
| \\      /  F ield         | OpenFOAM: The Open Source CFD Toolbox           |
|  \\    /   O peration     | Version:  2312                                  |
|   \\  /    A nd           | Website:  www.openfoam.com                      |
|    \\/     M anipulation  |                                                 |
\*---------------------------------------------------------------------------*/
FoamFile
{
    version     2.0;
    format      ascii;
    arch        "LSB;label=32;scalar=64";
    class       volScalarField;
    location    "0.165/water";
    object      k.gas;
}
// * * * * * * * * * * * * * * * * * * * * * * * * * * * * * * * * * * * * * //

dimensions      [0 2 -2 0 0 0 0];

internalField   nonuniform List<scalar> 
1503
(
0.0364306860047
0.00866648678595
0.00235707492506
0.000931007583341
0.000996768896137
0.00118243914983
0.00124858414506
0.00126649877126
0.00127167495039
0.00127123799354
0.00126769463363
0.00126257465618
0.00125711575882
0.00125207091803
0.0012478052913
0.00124441761103
0.00124185328112
0.00123998999105
0.00123869249133
0.00123784287747
0.488003615116
0.153414823647
0.0425554987229
0.0138390125764
0.00383480998534
0.00174848404089
0.00119278783153
0.00122835373872
0.00127330681068
0.001282264174
0.00128108393814
0.00127657226384
0.0012704527041
0.00126375647359
0.0012572432524
0.00125142478014
0.00124656914508
0.00124274756071
0.00123990558676
0.00123793230232
0.686597344368
0.258803682183
0.0931106292361
0.0311530322073
0.0112373363716
0.00369048707847
0.00165712146915
0.00119688461273
0.00125196921876
0.00128588621393
0.00129095314181
0.00128916697582
0.00128452257033
0.001278273511
0.00127125767775
0.00126419241834
0.00125765806429
0.00125204375358
0.00124754106627
0.00124418828689
0.842438056238
0.336603742265
0.133818665421
0.0511517463927
0.0211494457972
0.00687165013983
0.0025964282409
0.00135535979617
0.00121938685265
0.00127892842358
0.00129482657697
0.00129650339952
0.00129414658898
0.001289454952
0.0012832540088
0.00127622330766
0.00126903718695
0.00126230442036
0.00125648047312
0.001251833449
0.921446551655
0.386708878359
0.163071166354
0.0681423267194
0.0266739762364
0.0119069276013
0.00365108981385
0.00164397132455
0.00120762979488
0.00126092176814
0.00129454898317
0.00130019174571
0.00130034243563
0.00129759017478
0.00129280063352
0.00128657613771
0.00127954302901
0.00127237817352
0.0012657130172
0.00126003501469
0.933482609027
0.411256835911
0.182725790257
0.0812663340063
0.0349802911302
0.0136409663057
0.0059398193789
0.00185158429198
0.00117558886267
0.0012223047763
0.0012909169433
0.00130213807678
0.00130439028238
0.00130343407376
0.00130006531197
0.00129484681022
0.00128832774116
0.00128115625679
0.00127403424776
0.00126760252124
0.916006965824
0.416162184727
0.192586208998
0.0900663224476
0.0415422029954
0.0180320970114
0.00675386284118
0.00267754444231
0.00101381261861
0.0010927095309
0.00127570157223
0.00130394271707
0.00130741076583
0.00130774532442
0.00130549239347
0.00130114515278
0.00129518922885
0.00128820620348
0.00128088915547
0.00127395267012
0.903041053289
0.412533263521
0.195571699654
0.0952290875123
0.0463394173691
0.021633090695
0.00908287127813
0.00326006187677
0.00115476510713
0.000792447310806
0.00119830316259
0.00130457598113
0.00130992255741
0.00131068171974
0.00130911810485
0.00130541431151
0.0012999707136
0.00129328328418
0.00128598358865
0.00127878976572
0.883879792244
0.405806626861
0.195930887458
0.0984359383185
0.0497632263799
0.0243916475761
0.0110774850398
0.0043419402623
0.00169477809537
0.000626754141842
0.000952059172109
0.00129102527498
0.00131243554347
0.00131228580134
0.00131088264252
0.00130760690967
0.00130264227899
0.00129635975639
0.00128929198141
0.00128211191676
0.854828340272
0.399090978633
0.19682379235
0.101052887296
0.0521629453088
0.0262562620521
0.0125969239939
0.0055256407859
0.00200512673322
0.000823119569842
0.000625145548256
0.00121080727039
0.00131519977739
0.0013131312798
0.00131110430038
0.00130804160523
0.00130355211179
0.00129779335673
0.00129115068194
0.00128419001195
0.837090568952
0.400540879703
0.201062346947
0.103936082885
0.0537907546654
0.0274200465498
0.0137555906801
0.00661115568317
0.00279390372329
0.00106500025047
0.000526598986524
0.000982698625747
0.00131360500581
0.00131517487298
0.00131092311074
0.00130768998084
0.00130359380988
0.0012983728315
0.00129220918161
0.00128553804954
0.868719809934
0.420118897104
0.210183003584
0.107058349705
0.0548909000667
0.0283436798523
0.0148302727995
0.00771999367193
0.00369706311454
0.00145987001313
0.000719685322278
0.000664942727415
0.00126610431524
0.00132194635165
0.00131257025552
0.00130817326448
0.00130409485709
0.00129917985365
0.00129331162361
0.00128677592852
0.972655808244
0.459112895236
0.221316597508
0.109625700257
0.0560736874565
0.0296224459178
0.016145303106
0.00897450476381
0.00476218057921
0.00215366611885
0.000853383390104
0.000546592958168
0.00101986861722
0.00132896022052
0.00131899928436
0.00131124944318
0.00130636786286
0.00130121525676
0.00129518467625
0.00128839062324
1.11428383096
0.494950072913
0.23038233457
0.112990632276
0.0582675906426
0.0314646664619
0.0177148388413
0.0103014320114
0.0059287275048
0.00299684072403
0.0012371605952
0.000735869236895
0.000598508723003
0.00124944057065
0.00133169721974
0.00131806411132
0.00131110138301
0.00130495906364
0.00129813768317
0.00129054431163
1.17017662976
0.516057600431
0.239003168828
0.116962805102
0.06064357612
0.0332540316797
0.0192034598484
0.0115693419761
0.00703337976656
0.00386763700712
0.00172235013341
0.000819095904537
0.00057092525538
0.000848040617091
0.00133249859615
0.00132883390425
0.00131817236195
0.0013102685842
0.0013020266763
0.00129308615467
1.1840902408
0.524883679651
0.243794216718
0.119579961052
0.0623541180749
0.0346061521926
0.0203852657539
0.0126442436851
0.00799595724931
0.00466363750968
0.0021814379969
0.00107963987923
0.000645289945349
0.000478966505026
0.00120474189278
0.00134173520982
0.00132706377303
0.00131666906173
0.00130648001767
0.00129573501815
1.18381425166
0.52667022559
0.245814069302
0.121150300735
0.0635111534302
0.03554449191
0.021255564118
0.0135040548533
0.00881057414867
0.00532231160453
0.00256787692033
0.00128257778599
0.000818105347457
0.000531815512784
0.000817443386984
0.00134261722222
0.00133713639762
0.00132362847461
0.00131110185013
0.00129822546173
1.18131572588
0.526247965182
0.246417179915
0.121827241617
0.0640773782356
0.036078683095
0.0218546645887
0.0141871077498
0.00949765555232
0.00585890549247
0.00285829331225
0.00142479991896
0.000968257498186
0.000596872043018
0.000491012428188
0.00128737560124
0.001347260516
0.00133051871092
0.00131542629567
0.00130025668746
1.19125094815
0.52880876696
0.247003108184
0.122059343936
0.0643369887761
0.0364384270691
0.0223425509367
0.0147958285968
0.0100697782337
0.00628777440559
0.0030918557716
0.00153540941795
0.00107290365551
0.000663545232661
0.000418608083329
0.00114605787847
0.00135511532199
0.00133630102067
0.0013186643059
0.00130127197642
1.21100191645
0.535852903378
0.249084764147
0.122766529502
0.064809883111
0.0369179497583
0.0229092692029
0.0153543090306
0.0105120113939
0.00665589272086
0.00333908468132
0.00165134616754
0.00116095405874
0.000774470585687
0.000478816714215
0.000970815389641
0.00135817471871
0.00133931357922
0.0013194382144
0.00130019386427
1.23922160856
0.546169062875
0.252998611702
0.124604547483
0.0659593769035
0.0377619027814
0.0235555477536
0.0158029675564
0.0108845073479
0.00703886117963
0.00366306859755
0.00180716385984
0.0012611305759
0.000887345709982
0.000604177324047
0.000823752650583
0.00135665687944
0.0013376651229
0.0013157158624
0.00129526706579
1.26588330973
0.556098608291
0.257492402168
0.127384860638
0.0678153489871
0.0389023113521
0.0241797811793
0.0161784135568
0.0112377720909
0.00744226207346
0.00406769238149
0.00202236075684
0.00139239095076
0.00102769318119
0.000737739472702
0.000704272680378
0.0013473733613
0.00133006696961
0.00130514908555
0.00128421938848
1.28572043481
0.562578032805
0.262119297964
0.131194838309
0.0703074974221
0.0401461213028
0.024682273256
0.0164278585697
0.0114709107595
0.00773032474994
0.00449074361507
0.00226013172197
0.00152330222958
0.00119925222098
0.000762564378621
0.000615099523734
0.00129772661171
0.00131733599109
0.00128591636261
0.00126484263201
1.2772436805
0.56557237438
0.269152583115
0.137074868406
0.0734545963366
0.0412256228484
0.0248505614476
0.0163718756192
0.0114108420536
0.00786148834799
0.00484774989609
0.00246784692531
0.00157877036914
0.00135847233584
0.000975850974202
0.000700776506821
0.00108311793234
0.00130148402852
0.00125745903236
0.00123566520106
1.24042005327
0.575310956463
0.283094068171
0.145293683409
0.0763275616535
0.0414834263901
0.0244867486247
0.0160493233113
0.0112329422805
0.00791642503218
0.00509441201871
0.00261555045743
0.00156873157283
0.00137046166794
0.00113804734024
0.000701287410039
0.000671067591387
0.00126331706642
0.00122050210892
0.0011963190444
1.25579433023
0.607528421336
0.303335373776
0.153237326642
0.0776920835446
0.041394329384
0.0243639245058
0.0158848420204
0.0111239637228
0.00795894165433
0.00528689472062
0.00273092091335
0.00151314990885
0.00130355228455
0.0011631058768
0.000846243531826
0.000563570594768
0.0010833412355
0.00117556999838
0.00114729631556
1.36124414609
0.661627210531
0.323490370444
0.158951205784
0.0793253751661
0.0424073808017
0.0249032954928
0.016093546032
0.0112132726604
0.00810057594431
0.00552891273866
0.0028698779064
0.00144635993232
0.00120382504095
0.00109010582564
0.000898093309618
0.000596382748001
0.000670968102656
0.00111554525767
0.00108931463244
1.54404348079
0.718835412754
0.337103672273
0.163474090626
0.0831384664238
0.0448073603324
0.026214261486
0.0167284181593
0.0115543826388
0.00841408984642
0.00588212399401
0.00307923480605
0.00140002276969
0.00109842456508
0.000993642358416
0.000866708006971
0.000595970167827
0.000414527327609
0.000999263808624
0.00102253690217
1.70620311753
0.761034749058
0.349028135553
0.169670501916
0.0880562192588
0.0482865207435
0.0281588758858
0.0177144338981
0.0121200916715
0.00888164040013
0.00633043534976
0.0033807648629
0.00140261544605
0.00100353050287
0.000898555585389
0.000787370080953
0.000609325643561
0.000428741057574
0.000759630067801
0.000945186949985
1.7929610685
0.787115502427
0.359932231064
0.176010207584
0.0925160628655
0.0513463919765
0.030050763335
0.0188141681182
0.0128106524126
0.00942324060415
0.00680465485497
0.00376321894234
0.00147567542814
0.000928455215725
0.000813510961319
0.000704057760796
0.000581798190571
0.000442498259325
0.000468717320739
0.000852153082906
1.82533533283
0.801948669962
0.367767094802
0.180709034837
0.0956718124279
0.0535110172745
0.031489069514
0.0197459760274
0.0134762958912
0.00995649966274
0.00723510190802
0.00414772604683
0.00161996332706
0.000880257200181
0.000740192092624
0.000633703426198
0.000538746985249
0.000389587830341
0.000306560041843
0.000730424886356
1.83623154047
0.808416953024
0.372469977494
0.183689974553
0.0975340970703
0.0548224658371
0.032453665247
0.0204731134501
0.0140877686082
0.0104610895933
0.00762509412894
0.00449549366316
0.00178801412989
0.000861695731782
0.000678981663648
0.000577087413897
0.00049399412458
0.000383639241684
0.000283278639193
0.000567951650254
1.84142105213
0.81014827306
0.373825965329
0.184510821859
0.0981048135077
0.0554213313649
0.0330501276289
0.0210507264548
0.0146495952715
0.0109211369219
0.00797008704112
0.00479704320214
0.00195043327013
0.000858716984479
0.000628152078187
0.000530345758935
0.000448059137935
0.000359238568801
0.000303783532472
0.000393859014618
1.8597250705
0.814656571044
0.374808549657
0.184435463123
0.0981061538507
0.0557080500956
0.0334712916374
0.0215414408731
0.015154646383
0.0113157879755
0.00825791808815
0.00503799797963
0.00207710102345
0.000853590904436
0.000581250929293
0.000483545471074
0.000394954828809
0.000322337904289
0.000249773879501
0.00026221998703
1.88163840371
0.822092808799
0.376463236994
0.184456164232
0.0980915202622
0.0558889646095
0.033769502664
0.0219428834809
0.0155744902096
0.0116206969881
0.00847053711301
0.00519958496821
0.0021401081202
0.00082757856323
0.000527804707571
0.00042560873543
0.000335780083986
0.000275068348548
0.000201985306571
0.000187932395384
1.9091210412
0.83133661798
0.379730657122
0.185412741643
0.0983860198106
0.056050217217
0.0339688566815
0.0222650749422
0.0158932660008
0.0118282393008
0.008601504374
0.00527590762117
0.00213241491401
0.000774637731809
0.000464074521343
0.00035451679327
0.000269070789172
0.000220628887102
0.00017153708297
0.000149837645952
1.93221957461
0.840810202671
0.38399618248
0.187164746162
0.0989970900857
0.0562576672741
0.0341476822057
0.0225519380997
0.0161228317348
0.0119559092557
0.00866114131437
0.00528004748127
0.00207048722126
0.000702601769769
0.000394151073442
0.000276654163878
0.00020056263051
0.000162154222966
0.000136884641407
0.000125394985684
1.95827292319
0.848204715358
0.38758863618
0.188832411306
0.0996558483722
0.0565050892092
0.0343665708253
0.022819913119
0.0162754756066
0.0120218416159
0.00866288165613
0.00523087835968
0.00197962413446
0.000623440291602
0.000324417793434
0.00020492365092
0.000140124754277
0.000112689267541
0.000102468775519
0.000102634166204
0.00123736029876
0.00123716816127
0.00123719538099
0.00123740437786
0.00123778434508
0.00123834068267
0.00123908636529
0.0012400334486
0.00124118124374
0.00124249999843
0.00124390868968
0.00124525021404
0.00124627201941
0.00124662978797
0.00124594057081
0.00124400139607
0.00124305470458
0.0012920846044
0.00262386659344
0.023298189092
0.00123673284266
0.00123618035608
0.00123612492238
0.0012364658023
0.00123714943476
0.00123814652018
0.00123943025959
0.00124095692401
0.00124264743652
0.00124437301906
0.00124594799052
0.00124713213233
0.00124763156591
0.00124706292651
0.00124486639808
0.00124130104875
0.00126059175044
0.0017205707139
0.00713754028876
0.0433754416388
0.00124198327043
0.00124081501567
0.00124046776366
0.00124075676334
0.00124155205451
0.00124274887222
0.0012442376965
0.00124588268984
0.00124750979107
0.00124890625094
0.00124982591586
0.00124998383623
0.0012490023591
0.00124625833001
0.00124086036359
0.00123708952146
0.00133291035176
0.0026870553032
0.0129866001535
0.0557905033268
0.00124854840749
0.00124661313929
0.00124578972991
0.00124581440519
0.00124646877624
0.00124755596316
0.00124887452571
0.0012502053499
0.00125131107826
0.00125194176243
0.00125182849572
0.00125063634333
0.00124783317648
0.00124248170528
0.0012341177763
0.00124208132393
0.00154136648295
0.0044403814396
0.0194697852385
0.0625716431105
0.00125575201486
0.00125301007251
0.0012515972875
0.00125119147868
0.00125149403574
0.00125222172459
0.00125309485353
0.00125383546206
0.00125417123921
0.00125383183889
0.00125251444742
0.00124979011002
0.0012449248523
0.00123684195257
0.00122795941169
0.00127633975897
0.00198916293111
0.00698437959255
0.0252995134988
0.0658242955139
0.00126246868507
0.00125896141602
0.001256921672
0.0012559942584
0.00125581816443
0.00125604093078
0.00125632505963
0.00125635445664
0.00125583418176
0.00125446880851
0.00125189856333
0.00124757309726
0.00124059563686
0.00123034752807
0.00122742871546
0.00136995213211
0.00277451617676
0.0100387354798
0.0297485174507
0.0671202424954
0.00126815056751
0.0012639794121
0.00126133762428
0.00125986350993
0.0012591544327
0.00125880941475
0.00125845201866
0.00125774038158
0.00125635782908
0.0012539725652
0.0012501518523
0.00124423057116
0.00123531533735
0.0012245244978
0.00124033804098
0.00156256108067
0.00394036428598
0.01314401996
0.0327531481576
0.0673347352545
0.0012725478633
0.00126785571443
0.00126468533875
0.00126268754285
0.00126144075668
0.00126051672927
0.0012595158647
0.00125807739788
0.00125586010992
0.0012524874795
0.00124745261435
0.00124002722187
0.00122967263971
0.00122157131237
0.00127793520349
0.00189767508315
0.00543581805495
0.0159033425817
0.0346146511755
0.0669206155834
0.00127566023922
0.00127060836497
0.00126700362531
0.00126452671074
0.00126276003522
0.00126126825275
0.00125964157071
0.00125750460582
0.00125448935997
0.00125017275484
0.00124399091546
0.00123526343591
0.00122442911519
0.00122460184125
0.00135523397581
0.00241051119612
0.00712449500014
0.0181201321181
0.0356742776237
0.0661260331686
0.00127771094892
0.00127242783627
0.00126846073488
0.00126553650931
0.00126326200878
0.00126121165617
0.00125897518102
0.0012561653864
0.00125238729324
0.00124717727835
0.00123995391808
0.00123027676067
0.00122057705447
0.00123791024159
0.0014904687859
0.00311316966763
0.00883629855224
0.0197819289238
0.0361934191419
0.0651012123399
0.00127909149286
0.00127360927507
0.00126928400387
0.00126589973367
0.00126310137269
0.00126048356356
0.00125764065915
0.00125417477615
0.00124966601518
0.00124362505637
0.00123552032637
0.00122545461375
0.00121941997092
0.00126720998653
0.00170304555332
0.00398560916727
0.0104267550048
0.0209725453709
0.0363502160707
0.0639422200799
0.00128023285395
0.00127444351077
0.00126966991222
0.00126575362967
0.00126237998993
0.00125916512454
0.00125570730545
0.00125159711725
0.00124639426508
0.00123960897535
0.00123086286506
0.00122125729313
0.00122267088615
0.00131975248367
0.00200976494894
0.00497839984671
0.0118104956911
0.0217980059122
0.0362641236552
0.062712199804
0.0012814320462
0.0012750952457
0.00126970066884
0.00126513402798
0.00126111068746
0.00125726010055
0.0012531783688
0.00124844235312
0.00124259918697
0.00123519670405
0.00122615993895
0.00121825044026
0.00123256081381
0.00140420856881
0.00242019048705
0.00602610059727
0.0129614087036
0.0223515062784
0.0360161476009
0.0614530693076
0.00128273948419
0.00127554450021
0.00126932024037
0.00126397218805
0.00125922598031
0.00125470990306
0.00125000883017
0.00124468404641
0.00123828275528
0.00123044478359
0.00122161035881
0.00121713966272
0.00125193583815
0.00153013905659
0.00293289394273
0.00706433303498
0.0138931406377
0.0227053817755
0.0356618013061
0.0601922545555
0.00128400129561
0.00127564397019
0.00126839593346
0.00126215432934
0.00125663222123
0.00125144063573
0.00124614430891
0.00124028942861
0.00123344255952
0.0012254106732
0.00121744148492
0.00121879599205
0.00128429610948
0.0017068398723
0.00353415210421
0.00804293426559
0.0146371292484
0.0229135596045
0.0352393843632
0.0589467506242
0.00128500923749
0.0012752408726
0.00126681621601
0.00125959942867
0.00125327052127
0.0012474091821
0.0012415535036
0.00123523885127
0.00122807882158
0.00122014868924
0.00121389911851
0.00122425388431
0.00133368908131
0.00194147941857
0.00419967197978
0.00893122519634
0.0152275021968
0.0230157050278
0.0347754143959
0.057725933885
0.00128560177741
0.00127424469039
0.00126453498507
0.00125628700392
0.00124913221521
0.00124260846919
0.00123622415289
0.00122951279745
0.00122217272659
0.00121468014341
0.00121121073121
0.00123465610066
0.00140433234047
0.00223682523746
0.00489875090579
0.00971612238839
0.0156939343464
0.0230406016022
0.0342882605493
0.0565339094835
0.00128560428124
0.00127256207347
0.0012615060649
0.00125219350144
0.00124419754634
0.0012370080496
0.00123010492881
0.00122303454523
0.00121562921848
0.00120893448756
0.00120951632373
0.00125111071735
0.00149985593791
0.00258928743161
0.00559943798289
0.0103965408844
0.0160597427756
0.0230087052385
0.0337906100359
0.0553717224996
0.00128462661064
0.00126991231312
0.00125751706677
0.00124714270747
0.00123830058947
0.00123043229929
0.00122299636851
0.00121557355627
0.00120819170927
0.00120266962467
0.00120876856449
0.0012744326392
0.0016221991036
0.00298815454286
0.0062730961
0.0109775847526
0.0163423978092
0.0229342101115
0.0332912204027
0.0542394452519
0.00128181358824
0.00126559856541
0.00125198052573
0.00124061515668
0.0012309568793
0.00122240751435
0.0012144190847
0.0012066357444
0.00119935249884
0.00119539124347
0.0012086134568
0.00130477923951
0.00177045433703
0.0034165550286
0.00689728484234
0.0114664823367
0.0165547835976
0.0228267859967
0.0327961790465
0.0531379325586
0.00127567929736
0.00125834807437
0.00124377952776
0.00123160160411
0.00122122963472
0.00121204580614
0.00120351893892
0.0011953911377
0.00118829931749
0.00118630149425
0.00120827851677
0.00134126513489
0.00194015756444
0.00385398702763
0.0074567593449
0.0118706079393
0.0167065450472
0.0226930569372
0.0323098188269
0.0520699489267
0.0012641973218
0.00124636284733
0.00123129164885
0.00121861264261
0.00120773523793
0.0011980530023
0.001189080563
0.00118069287835
0.00117393491064
0.00117430283829
0.00120650721725
0.00138171263102
0.00212345437152
0.0042796121733
0.00794305323175
0.0121969902373
0.016805289547
0.0225378050447
0.0318353271117
0.0510404208739
0.00124524011633
0.00122766373438
0.00121266985391
0.00119991720914
0.00118885042114
0.00117890922323
0.00116968241127
0.00116120586237
0.00115497711053
0.00115806451489
0.00120158012872
0.00142269539985
0.00231020662272
0.0046752854431
0.00835333862693
0.0124525208931
0.0168575536646
0.0223648848992
0.0313751040376
0.0500557720953
0.00121717377793
0.00120060344585
0.00118629139567
0.00117393718537
0.00116305550365
0.00115316085009
0.00114393709061
0.00113559638716
0.00113010247157
0.00113613411818
0.00119144141333
0.00145992300398
0.00248966679529
0.00502755735461
0.00868910361161
0.012644279971
0.0168694612388
0.0221778058073
0.0309308858389
0.049122570292
0.0011792776444
0.00116426966061
0.00115113044742
0.00113958276113
0.00112922787354
0.00111966985335
0.0011106966739
0.00110269696497
0.00109808071242
0.00110706941413
0.00117391717153
0.00148886401174
0.00265215490108
0.0053284312524
0.00895496099676
0.012779727688
0.0168470795219
0.021980008936
0.0305037173876
0.0482459457561
0.00113165493572
0.00111848274677
0.00110680111974
0.00109631816806
0.00108671849732
0.00107769524074
0.00106913712996
0.00106159533922
0.00105787621074
0.00106957925895
0.00114698909639
0.00150542871433
0.00279031729907
0.00557514075826
0.00915771906736
0.0128667361739
0.0167965315033
0.0217749002909
0.0300938507595
0.0474282727617
0.00107465961846
0.00106338406362
0.00105327098342
0.00104396756471
0.00103523023142
0.00102683209026
0.00101875110014
0.00101167713986
0.00100874121657
0.00102268289475
0.00110908824842
0.00150657149128
0.00289985024459
0.0057694099865
0.00930572926312
0.0129135234949
0.0167239586876
0.0215657506003
0.0297006773774
0.0466684363869
0.00100849994705
0.000999113070528
0.000990610019903
0.000982533799714
0.000974703636135
0.00096696132115
0.000959358427574
0.000952693844239
0.000950339086545
0.000965894486762
0.00105937895669
0.00149075021943
0.00297976962575
0.005916549606
0.00940840953892
0.0129285035222
0.0166353782359
0.0213555297756
0.0293227294352
0.0459617381597
0.000933349103744
0.000925865185695
0.000919021192616
0.00091222767918
0.000905360593284
0.000898316572934
0.000891201158205
0.000884887935001
0.00088289999748
0.000899411551533
0.000997995135193
0.00145821586063
0.00303232535682
0.00602451807974
0.00947579141777
0.0129200274841
0.0165364588806
0.0211467301985
0.0289577689152
0.0453003105283
0.00084981839854
0.000844188199053
0.000839076162374
0.000833667837668
0.000827879585417
0.000821643160297
0.000815092820556
0.000809137507605
0.000807363717756
0.00082425626524
0.000926178797797
0.00141110238672
0.00306260009643
0.00610293280486
0.00951797522379
0.0128960071124
0.0164322406569
0.0209412077267
0.0286029375294
0.0446738496654
0.000759159812788
0.000755327644956
0.000752023163571
0.000748139197189
0.000743606303056
0.000738365106435
0.000732547246798
0.000727052713501
0.000725448050896
0.000742315266056
0.000846279587303
0.00135330066882
0.00307782536239
0.0061620285796
0.00954450279249
0.0128634902411
0.0163268783018
0.0207401025204
0.0282549734807
0.0440704921935
0.000663221715835
0.000661481525266
0.000660016121631
0.000657776573242
0.000654686462057
0.000650666044205
0.000645809240496
0.000640960431002
0.000639592040183
0.000656241079496
0.000761599985276
0.00129012830326
0.00308647653755
0.00621162487307
0.00956373832346
0.0128282878491
0.016223479763
0.0205438724663
0.0279104764165
0.0434776569266
0.000565015271602
0.000565847056439
0.000566114922302
0.000565540888366
0.000564011797975
0.000561399602944
0.00055772630731
0.000553736938607
0.000552751232099
0.00056920943344
0.000676100723476
0.00122781993093
0.00309722324258
0.00626019552476
0.00958235763191
0.0127947265247
0.0161240737084
0.0203524379861
0.0275662026799
0.0428826900305
0.000467837433122
0.000472249382794
0.00047395982619
0.0004749094707
0.0004749185711
0.000473789284368
0.000471443432562
0.000468491223702
0.000468064606957
0.000484565699882
0.000594003216036
0.00117285036633
0.00311780428187
0.00631410970468
0.00960498811322
0.0127655299389
0.0160296667673
0.0201653654215
0.0272193285779
0.0422732337118
0.000373296885913
0.000384364005075
0.000387105490303
0.000389292620564
0.000390668991777
0.000390959913616
0.000389972241281
0.000388159554573
0.000388461783055
0.000405431701333
0.000519334828697
0.0011310970037
0.00315391305285
0.0063770912897
0.00963401364883
0.0127418127571
0.0159403461181
0.0199820220699
0.0268676409837
0.0416374206211
0.000285062569499
0.00030497319247
0.000308317619046
0.000311422483699
0.000313917783763
0.000315467830589
0.000315773237083
0.000315129407399
0.00031631552584
0.000334363491261
0.000455462484896
0.00110691048881
0.00320826728387
0.00644997851872
0.00966959179317
0.012723207727
0.0158554231381
0.0198016649245
0.0265096204083
0.0409641202323
0.000212031519091
0.000235707125856
0.000239357329684
0.000243100284305
0.000246450799826
0.000249046507338
0.000250514986004
0.000251016012811
0.000253234464159
0.000273131650714
0.00040467771313
0.00110232067737
0.00328016457756
0.00653091739299
0.00970996802212
0.0127081706003
0.0157736250098
0.0196233595785
0.0261439392858
0.0402429545421
0.00015616569424
0.000177213628476
0.000181109427286
)
;

boundaryField
{
    emptyPatch
    {
        type            empty;
    }
    minY
    {
        type            fixedValue;
        value           uniform 0.000138;
    }
    maxY
    {
        type            inletOutlet;
        inletValue      nonuniform List<scalar> 0();
        value           nonuniform List<scalar> 0();
    }
    water_to_cooler
    {
        type            kqRWallFunction;
        value           nonuniform List<scalar> 
37
(
0.023298189092
0.0433754416388
0.0557905033268
0.0625716431105
0.0658242955139
0.0671202424954
0.0673347352545
0.0669206155834
0.0661260331686
0.0651012123399
0.0639422200799
0.062712199804
0.0614530693076
0.0601922545555
0.0589467506242
0.057725933885
0.0565339094835
0.0553717224996
0.0542394452519
0.0531379325586
0.0520699489267
0.0510404208739
0.0500557720953
0.049122570292
0.0482459457561
0.0474282727617
0.0466684363869
0.0459617381597
0.0453003105283
0.0446738496654
0.0440704921935
0.0434776569266
0.0428826900305
0.0422732337118
0.0416374206211
0.0409641202323
0.0402429545421
)
;
    }
    water_to_heater
    {
        type            kqRWallFunction;
        value           nonuniform List<scalar> 
61
(
0.0364306860047
0.488003615116
0.488003615116
0.686597344368
0.686597344368
0.842438056238
0.842438056238
0.921446551655
0.933482609027
0.916006965824
0.916006965824
0.903041053289
0.903041053289
0.883879792244
0.883879792244
0.854828340272
0.837090568952
0.868719809934
0.868719809934
0.972655808244
0.972655808244
1.11428383096
1.11428383096
1.17017662976
1.1840902408
1.18381425166
1.18381425166
1.18131572588
1.18131572588
1.19125094815
1.19125094815
1.21100191645
1.23922160856
1.26588330973
1.26588330973
1.28572043481
1.28572043481
1.2772436805
1.2772436805
1.24042005327
1.25579433023
1.36124414609
1.36124414609
1.54404348079
1.54404348079
1.70620311753
1.70620311753
1.7929610685
1.82533533283
1.83623154047
1.83623154047
1.84142105213
1.84142105213
1.8597250705
1.8597250705
1.88163840371
1.9091210412
1.93221957461
1.93221957461
1.95827292319
1.95827292319
)
;
    }
    procBoundary2to3
    {
        type            processor;
        value           nonuniform List<scalar> 
41
(
1.98491140063
0.857751770366
0.391361839542
0.190471088354
0.100382063431
0.0568667836504
0.0346797207585
0.0230625963446
0.0163698327499
0.0120412132124
0.00861846324849
0.00514817105449
0.00188810501625
0.00055059594825
0.000262433503705
0.000150960774001
9.9686035546e-05
7.90534088689e-05
7.37586049701e-05
7.08163604015e-05
0.000185253749965
0.000189195292729
0.000192589615481
0.00019504093371
0.000196620474126
0.000200017068753
0.00022263801588
0.000367920053392
0.00111667505486
0.0033657544838
0.00661602269987
0.00975213076161
0.0126947070601
0.0156942658093
0.0194485877754
0.0257753749848
0.0394722231166
0.000109346052163
0.000129822175275
0.000185253749965
0.000133667928436
)
;
    }
}


// ************************************************************************* //
