/*--------------------------------*- C++ -*----------------------------------*\
| =========                 |                                                 |
| \\      /  F ield         | OpenFOAM: The Open Source CFD Toolbox           |
|  \\    /   O peration     | Version:  2312                                  |
|   \\  /    A nd           | Website:  www.openfoam.com                      |
|    \\/     M anipulation  |                                                 |
\*---------------------------------------------------------------------------*/
FoamFile
{
    version     2.0;
    format      ascii;
    arch        "LSB;label=32;scalar=64";
    class       volScalarField;
    location    "0.315/water";
    object      epsilonm;
}
// * * * * * * * * * * * * * * * * * * * * * * * * * * * * * * * * * * * * * //

dimensions      [0 2 -3 0 0 0 0];

internalField   nonuniform List<scalar> 
1504
(
3077.76473375
1004.79819778
300.096305726
92.4272557465
28.9927672938
9.51295802104
3.46802255408
1.51130479181
0.808988305612
0.523847810516
0.397645745307
0.335919086063
0.313715562855
0.340667581432
0.423065542075
0.523266419037
0.504137684918
0.374926278506
0.205824102889
0.0456763292485
4845.33388258
1318.13424481
397.632043669
128.886958451
42.7769590737
13.9708942973
4.78024882361
1.87917130998
0.910865393243
0.548042262287
0.391766353379
0.31047932548
0.264599321023
0.266268502602
0.33250738239
0.423871643359
0.432774978004
0.3552082217
0.227233464249
0.0751646010292
5897.284798
1540.88569321
489.930528739
178.361814801
66.7826628322
21.0351258187
6.93650591614
2.55238908837
1.13006889111
0.6279124256
0.42251473859
0.317902714239
0.252652997892
0.23243522775
0.281095368665
0.357859320957
0.383601700927
0.342732047157
0.241996017088
0.108243301105
5651.47593104
1497.36456245
485.668944179
187.023422095
80.3065800781
29.8892453408
10.061559604
3.60033624541
1.49451435462
0.768785783448
0.485950796371
0.349315379928
0.266179901619
0.22883803847
0.258005978241
0.324941703731
0.359785571117
0.344392896119
0.264636113533
0.145602508319
5231.39482883
1389.39043938
454.785289853
181.706689762
84.4196534079
36.0178244412
13.0676542955
4.86870333359
1.99470429478
0.971867884486
0.578503041553
0.397252116399
0.295123403837
0.244176239045
0.256605774749
0.316195009628
0.356779060202
0.361532447429
0.299171038382
0.189457895236
4787.93986402
1272.12399785
415.650512254
168.431636275
81.4712075117
37.6421872672
14.9209664297
5.92634946485
2.49757515382
1.20062461826
0.687286425351
0.454009982915
0.331688854985
0.270402674236
0.269677903205
0.322419570379
0.368282788545
0.391322719588
0.343630377615
0.240625080817
4470.57268264
1182.45521299
384.524605445
156.156327257
76.6164672056
36.4705270858
15.6037594418
6.63062395777
2.92284700282
1.42350194227
0.799902044835
0.514041211919
0.371883227233
0.302397856017
0.292362511585
0.338223725135
0.38914824988
0.429268147678
0.394606742811
0.286785989854
4242.29802596
1122.03425545
363.19612459
146.130863706
70.997293598
33.8861628467
15.456646178
6.98720904655
3.23497475681
1.61650271749
0.904354009771
0.572689867275
0.414026462466
0.338740621591
0.322152756175
0.360945115715
0.416828534574
0.472580821717
0.453209520877
0.336528409931
4112.35682687
1087.95020922
348.621065034
136.78304806
64.4743226404
30.9826363105
14.8133513245
7.05332110402
3.41943475988
1.75931938173
0.989259164554
0.625884858708
0.457581421956
0.379724619652
0.358878300803
0.390492195933
0.451107505793
0.522498014286
0.521594911849
0.396512977821
4155.71023015
1083.52882583
335.523760213
126.014931522
57.0064637613
28.0705978872
13.9199420088
6.89008517191
3.47378171379
1.8375408197
1.04491238333
0.670439784396
0.502783825456
0.426625966418
0.403777352345
0.428074393094
0.492731272632
0.581815277747
0.604505095727
0.475617384958
4565.58685884
1130.80231885
331.941908031
120.410088345
53.471249526
25.950244355
12.9845793729
6.57673020038
3.41705285212
1.84680407765
1.06664777884
0.705895031807
0.550897253876
0.481022349279
0.458378377384
0.475116045778
0.543104007501
0.653608380846
0.709203854824
0.585928401264
5385.09551011
1228.29000868
361.585629457
128.627724263
53.0558819452
24.5645857954
12.1212886572
6.20247465399
3.27581917893
1.78834284437
1.05683511434
0.735320618241
0.603792637166
0.544073047836
0.522633178327
0.531446143785
0.603407575517
0.741119058362
0.842359608931
0.736592528074
6085.14548303
1391.72178774
409.908441311
138.470692954
53.5797962056
23.5935937997
11.3838345743
5.80664435605
3.04885988168
1.66459036587
1.02467195881
0.763449016739
0.661853670542
0.61444086863
0.592309901709
0.594719655011
0.672468138205
0.844141878874
1.00161538143
0.925030734183
6185.00478802
1452.37296511
431.822787132
144.459665714
54.0094863929
22.8921320806
10.7417714471
5.31418318052
2.7069152536
1.4948504155
0.985640762412
0.793287430354
0.720947935851
0.685491038673
0.657351415505
0.6563656943
0.743611549984
0.953750919286
1.17170343742
1.13460340555
6058.53453571
1448.3485593
438.463511551
147.237193889
54.2008164163
22.2087016075
9.88947634999
4.60116572391
2.28398406688
1.32323978626
0.954089888916
0.821350643419
0.771634217446
0.742402145364
0.705460546538
0.70411966333
0.804616021332
1.05235758575
1.33217315361
1.34463732603
5657.28543991
1392.0139186
425.193753664
144.107665042
52.5938398184
20.6131853002
8.54786447967
3.76429643366
1.89389982512
1.19009162712
0.931111595821
0.836273044891
0.799404687331
0.767044870364
0.726523928919
0.727222048174
0.842524902192
1.11480742526
1.45889599473
1.54172904291
4972.77161988
1240.04586857
387.103176832
133.431729506
48.2044720276
18.143032246
7.11978342627
3.07399707387
1.62723683605
1.10385211539
0.903213997483
0.821868258555
0.785413628141
0.750838014531
0.714577879777
0.71560672425
0.839456137333
1.1090959097
1.51123085476
1.69572895916
3945.38667791
1068.67568435
351.830039817
124.011655966
44.7168888196
16.3559541147
6.25721683707
2.71824760662
1.49404721813
1.03999692979
0.850307143694
0.764812602125
0.721572708162
0.690371233456
0.664541046255
0.661790366582
0.762662320702
1.02161314689
1.43767774443
1.75391009775
3052.06601055
973.590619318
345.621024358
126.648525676
46.2161948687
16.4722679666
6.06952133847
2.60512425697
1.42269508061
0.966146684171
0.763064352423
0.6640216265
0.613078587987
0.588121873398
0.574666299773
0.571791228771
0.632818789058
0.859900562444
1.22313705129
1.66040850587
3160.16008505
1125.0482506
416.830115425
152.664170546
53.2633662458
18.1448172379
6.52971390141
2.74481610083
1.42665418455
0.902510079232
0.66418939399
0.545570172779
0.485147780123
0.459576006679
0.453861233154
0.456748566422
0.486261169143
0.62540185687
0.929930447241
1.39586488887
4389.25411598
1583.76229708
539.306250999
180.999698327
60.4696427316
21.057563792
7.97272593106
3.34635209083
1.61061746609
0.910916580464
0.600981862582
0.451534086121
0.374858009473
0.338258616009
0.328753751805
0.334118437466
0.352117891923
0.418389635831
0.637365196598
1.03455335173
6475.62231332
2040.9618244
607.210865996
185.808259134
63.1154407752
24.1554415869
10.2381912013
4.44348051008
2.03315433975
1.03879729963
0.608261470039
0.410079889581
0.309991078653
0.256362599269
0.23362242912
0.232902891966
0.244815944163
0.279240478943
0.391443744715
0.704111155929
7305.26707132
1934.59136354
570.131965015
181.407190852
65.6176481649
27.8030847661
13.0460706008
5.74279164584
2.54941898447
1.25398324279
0.684826852286
0.424008414749
0.295004526807
0.222424567067
0.183939616962
0.172056725763
0.177033168271
0.197330466582
0.258163820414
0.476862625543
6955.90713816
1840.91415485
538.596338423
176.402400867
67.8263670543
31.2114945203
15.9698019231
7.04468652214
3.04416070638
1.48254549122
0.799097972036
0.477335157339
0.316442518903
0.224309130262
0.171467430475
0.148405699368
0.145939220885
0.157964981026
0.196777902828
0.333908300683
6792.49077416
1780.1254456
509.136715656
167.438326957
66.8882506182
32.7012348663
17.6288279528
7.88998340692
3.48833715287
1.70452718945
0.921549123943
0.549497337489
0.357676759542
0.246329885745
0.181548603344
0.149553595995
0.14040101555
0.146452018338
0.17354862829
0.262320944363
6979.1212828
1758.38179022
488.461582683
159.629288051
64.6056593484
32.3930928978
17.3985618973
7.98112123867
3.72850781224
1.87876380662
1.0342619989
0.624674926245
0.406084142115
0.277842270518
0.203946247605
0.165665202547
0.151105987218
0.152397486487
0.17250310751
0.239445932613
7533.82554973
1814.22308734
488.40189117
157.883467282
63.8345700699
31.2411538163
15.6449359209
7.58390861757
3.75083170076
1.96591307235
1.11404863723
0.687008532002
0.4504313275
0.3109687753
0.232274284915
0.190807167116
0.172500646442
0.170053369259
0.185369963973
0.242282069217
8483.99769642
1969.42885842
526.988011746
169.873063989
67.1391058242
30.3339285017
14.8765865071
7.41081311045
3.79403860257
2.03973787654
1.18110225742
0.739077601226
0.488150419025
0.343132549536
0.264014510561
0.221971585285
0.201408992498
0.19609157336
0.208142047225
0.260008816817
9576.80690888
2219.79019774
615.736787572
203.089747856
78.0465611069
34.4659530767
16.3593235538
8.08619190926
4.12329623028
2.20473379547
1.27119132733
0.789940454652
0.521492885156
0.375426624084
0.299299492495
0.25836153724
0.236341154024
0.228738499514
0.23831556308
0.287838341755
9964.26325414
2467.203984
756.290946404
265.810234625
104.489201295
44.8234044892
20.5550535058
9.86163065056
4.87892967971
2.52757742289
1.40654562161
0.84435999385
0.554284337791
0.410298841228
0.339126097163
0.299841536038
0.276552316149
0.266757274754
0.274428489949
0.321883110348
8667.35144375
2474.31015542
848.542763714
324.396462261
133.327110235
57.5570353155
26.1138585277
12.3091565112
5.9516126942
2.977506415
1.57161158947
0.901049325372
0.590038038157
0.450171676697
0.384369940469
0.346430457251
0.321370213883
0.309206954405
0.314431027627
0.360329957653
6663.77911959
2221.83148427
837.483478157
344.626132691
148.135831074
65.8147612899
30.357204096
14.4204211397
6.97242842839
3.41491116342
1.72124258784
0.955959902893
0.630994031215
0.49650874787
0.435325645944
0.397743218768
0.370192864019
0.354642387013
0.35643201842
0.40069071817
5214.75635404
1835.52513469
725.153798519
313.167004563
141.727559692
65.9053005692
31.4952100823
15.3631740642
7.5539264769
3.68312790236
1.81866716904
1.00525437706
0.678130299908
0.549334254537
0.490980428138
0.452748267029
0.421645524817
0.401681001218
0.398262499836
0.436717372037
4558.04251657
1509.77741548
592.617785836
262.332811701
123.760176169
60.1898423443
29.8836449709
15.0413174819
7.56880015511
3.72646630219
1.85415483792
1.04875982698
0.730898776186
0.606061038107
0.548057015437
0.50822070025
0.473151847799
0.447068250931
0.437176893336
0.465592443985
4034.63800047
1267.06845807
482.666439799
213.676441361
103.25135007
51.9090049221
26.5771521612
13.7574680327
7.09366261483
3.56719028501
1.83437899158
1.08635523538
0.7841784091
0.659196282677
0.598351315831
0.556924805981
0.517965115478
0.484387577076
0.464894447145
0.479522325052
3704.53768068
1101.89381096
401.57448278
173.698155472
84.2175742277
43.087463128
22.5184762621
11.9324991977
6.30673638688
3.27635089749
1.78386621607
1.11774558587
0.826815456944
0.694800103216
0.628328165966
0.585759710359
0.545336475074
0.502311371082
0.469974270378
0.467435694582
3623.51390583
1019.19131447
350.756610599
145.123524768
69.1620771
35.3684861276
18.6519137676
10.0665481464
5.46592386269
2.99601732316
1.7579218979
1.14687193126
0.84545295443
0.697764202491
0.622378896431
0.579119777057
0.541131016225
0.493142156047
0.445924263756
0.424416878037
3724.61607769
1002.24387026
328.294383726
130.796933063
60.5316387322
30.2782501229
15.8489047689
0.000143479372884
0.000179265403654
0.000266890859732
0.000465291038325
0.000914690171029
0.00188947507285
0.0037564524393
0.00667746541733
0.0103807800838
0.0144685444021
0.0187682432594
0.0234425736329
0.0291344166088
0.0374627567099
0.0524379648218
0.084428148682
0.164020419672
0.00208129521395
0.000299751653651
0.000162404911244
0.00015706586163
0.000197746854655
0.000300573192082
0.000534781662149
0.00105988963364
0.00216603105185
0.00418341241766
0.00716603518028
0.0107840374691
0.0146758414645
0.01871354188
0.0230719859322
0.0283633312312
0.0361139683743
0.0501145141076
0.0799040222928
0.150695709012
0.00443692880892
0.000424338423415
0.000186523705505
0.000172902920766
0.000218957149379
0.000339434785308
0.000614703852103
0.00122343889323
0.00246436222117
0.00461549070437
0.00762851048792
0.0111417759059
0.0148352283006
0.0186187035446
0.0226740159357
0.0275802890252
0.0347710544897
0.0478365108202
0.0756726297072
0.138994618617
0.0100444984468
0.000654130116938
0.000219462950783
0.000191686665177
0.000243517911142
0.000384518742887
0.000706771842406
0.00140714314088
0.00278381909605
0.00504912013576
0.00806418702814
0.0114576389968
0.0149520675257
0.018488893865
0.0222529499296
0.0267888608519
0.033436718518
0.0455989983531
0.0717036090635
0.129018189831
0.0222629360966
0.00110216801035
0.000266358372953
0.000214298684163
0.000272203863535
0.000437138627937
0.000813076495902
0.00161298465241
0.00312352791574
0.00548131098518
0.00847316517357
0.0117349753502
0.0150306116792
0.0183277986165
0.0218114584101
0.0259909659958
0.0321119320722
0.0433935795334
0.0679395813224
0.120712259268
0.0443354203589
0.00200109187547
0.000335429829589
0.000241903706668
0.000306064876372
0.000499057747373
0.00093627396424
0.00184318356109
0.00348248062792
0.00590965340911
0.00885585159245
0.0119763335447
0.0150735953806
0.0181372734704
0.0213502898924
0.0251865788922
0.0307959194794
0.0412103972007
0.0643083449635
0.113892425307
0.0763904270026
0.0038548307748
0.000442541048895
0.00027628757411
0.000346546328054
0.000572593364975
0.00107954882884
0.00209981327014
0.00385900721814
0.00633142766809
0.00921164498064
0.0121822441127
0.0150812071937
0.0179165033193
0.0208675877279
0.0243731870019
0.0294857458431
0.0390388265215
0.0607286517194
0.108248094667
0.115615548544
0.00780089175578
0.000620459775455
0.00032018639401
0.000395420153937
0.000660358188225
0.00124590860495
0.00238348641402
0.00424925022235
0.00674176483181
0.00953706366005
0.0123497405283
0.0150500309064
0.0176612891458
0.0203584444659
0.0235454914531
0.0281761146376
0.0368680828596
0.0571189759251
0.103357069534
0.159900927597
0.0160691154797
0.000927605354686
0.000377166076416
0.000454381371834
0.000764453260575
0.00143666365097
0.00269129963775
0.00464527002457
0.0071319203226
0.00982452334127
0.0124718097376
0.0149730327099
0.0173644105424
0.0198154978404
0.0226961417287
0.0268600598982
0.0346885440884
0.0534087163092
0.0987217774462
0.210088051534
0.0315258544532
0.00146034069463
0.000452116499588
0.000524467377282
0.000885262999131
0.00164960410591
0.00301515437115
0.00503424944057
0.00748917528522
0.0100630084654
0.0125386845515
0.0148412115855
0.0170174213846
0.0192307589722
0.0218175294041
0.0255307324794
0.0324936736177
0.0495491532571
0.0938299840101
0.271043056167
0.0564481622944
0.00243405917718
0.000555110832911
0.000605687619559
0.00102042708668
0.00187797387235
0.00334187065939
0.00539995055959
0.00779902416205
0.0102407576587
0.0125407237864
0.0146464173005
0.0166132746317
0.0185980161074
0.0209040684067
0.0241835549083
0.0302821170177
0.0455213888623
0.0882312214765
0.350528391619
0.0928443029593
0.00448580469954
0.000710266059607
0.000697023433786
0.00116461936297
0.00211116169426
0.00365565630527
0.00572627289417
0.00804894377168
0.0103489380847
0.0124717582388
0.0143842546908
0.0161487726727
0.0179149070238
0.0199539985004
0.0228179581014
0.0280588640401
0.0413386689502
0.0816105766932
0.458263051884
0.143855779201
0.00937521147429
0.000967504605672
0.000797356384095
0.0013110238856
0.002337693225
0.00394258504603
0.00600183763425
0.00823234934569
0.0103848688554
0.0123315831846
0.0140559259545
0.0156258899617
0.0171838658084
0.0189701425354
0.0214379402717
0.0258350974301
0.0370428475979
0.073837622069
0.601154452104
0.214136964648
0.0207170372967
0.00142547657452
0.00090882803674
0.00145426999434
0.00254919138642
0.00419470317157
0.00622292648352
0.00835024199447
0.0103526834404
0.012125919882
0.0136677364878
0.0150510111296
0.0164112344931
0.0179589447171
0.0200510079485
0.0236258252674
0.0326950554269
0.064976634431
0.751834746075
0.307514436186
0.0441691396589
0.00236994905468
0.00104585093727
0.00159252919685
0.00274188981969
0.00441032766114
0.00639218769016
0.00840894309551
0.0102606852283
0.0118637535977
0.0132286126984
0.0144327126545
0.0156053005471
0.0169286943183
0.0186661180598
0.0214461422049
0.028363968597
0.0552668443892
0.934664520885
0.423214358
0.0864023402117
0.00486450708306
0.00125435812874
0.00172779251716
0.00291518432582
0.00459128051513
0.00651513729669
0.00841670805246
0.0101185032676
0.0115551561815
0.012748573838
0.0137807880685
0.0147757169146
0.0158890669255
0.0172928540763
0.0193080866849
0.0241159142999
0.0450931722262
1.15421407139
0.56670901001
0.152210032156
0.0120775017044
0.00163244312707
0.00186475059264
0.00306985564994
0.00474080273935
0.00659848282652
0.00838286670688
0.00993704050856
0.0112119149788
0.0122399408755
0.0131079660011
0.0139355419654
0.0148529127306
0.0159418019194
0.0172184616121
0.0200090831042
0.0349582667241
1.38366596081
0.718145959288
0.241740664725
0.0302547328059
0.00239069488641
0.00201538196721
0.0032094512622
0.00486485839117
0.00665185138936
0.00831988806885
0.00973070630756
0.0108499228666
0.0117200677439
0.0124333002757
0.0131056501386
0.0138422619513
0.0146360486274
0.0152143247765
0.0161701992687
0.0254615581033
1.5611981713
0.864073822156
0.346680261209
0.0679859581913
0.00427830087261
0.00222626699291
0.00334642473624
0.00497562968556
0.00669015095026
0.00824463031405
0.00951747909974
0.01048801868
0.0112089533597
0.0117788209055
0.0123129028468
0.0129032299071
0.0135135972678
0.0137579389234
0.013549435292
0.0178242382689
1.63530006173
1.00982244478
0.45886580919
0.129191188786
0.0101438384336
0.00263517718823
0.00350666174098
0.00509122853819
0.00673205818627
0.00817619873617
0.00931630207112
0.01014493433
0.0107254589034
0.0111636959635
0.0115756191986
0.0120464706829
0.0125533843626
0.0127867234315
0.0121838850582
0.0123693789843
1.57525633225
1.11791629192
0.546951033536
0.203283043406
0.0265966216284
0.0035357467623
0.00373226197972
0.00523412327088
0.00679721790369
0.00813256300583
0.00914304775793
0.00983435605936
0.010281166761
0.010597047637
0.0108988063299
0.0112646708271
0.0116897142169
0.0120360717324
0.0117588063297
0.00933265293483
1.38767688959
1.14370513427
0.614460160226
0.274305548645
0.0591449556589
0.00556105048003
0.00410325310263
0.0054350306822
0.00690532674014
0.00812693870193
0.00900436815133
0.00955598669257
0.00986832308994
0.0100627841067
0.0102574228905
0.0105236642149
0.0108663471165
0.0113437841133
0.0123191913184
0.0125707838493
1.12936682898
1.10695449909
0.680492339661
0.341925202195
0.105469604143
0.0104028703958
0.00481431211686
0.00574578816819
0.00707914865726
0.00816869466619
0.00889858301824
0.0092972750738
0.0094627697213
0.00952336240116
0.00959823649176
0.00975351238103
0.00999306816558
0.0104982382202
0.0123894081151
0.0177042698647
0.878126947286
1.02473220794
0.739949301234
0.401043696984
0.159779724842
0.0218078776861
0.00630720470708
0.0062647979825
0.00735846248
0.00827864934606
0.00883652727377
0.00906211943008
0.00906302559933
0.00897308763182
0.00891375338776
0.00895148739441
0.00909365835753
0.00962575131152
0.01212097814
0.0218892265954
0.688713780201
0.938608325148
0.794722582219
0.466881472253
0.220882262561
0.0445579085534
0.00944909958375
0.00717947286249
0.00782871458275
0.00851979844375
0.00887801063
0.00891421354929
0.00874132426588
0.00849793842025
0.00831013995726
0.00826051721179
0.00841849548758
0.00910211704727
0.0121246333065
0.0254941038127
0.573223181155
0.873094264066
0.84903758363
0.558235659661
0.294808991785
0.0807807789695
0.0157837689305
0.00885028653421
0.00865737279723
0.0090274088211
0.00916003280538
0.00900340945998
0.00866648850818
0.00829043809419
0.00800985904342
0.0079446665878
0.00824658090716
0.00933402718761
0.0131176612676
0.0295421815397
0.517524594249
0.837935727608
0.910385127635
0.669204980341
0.379765035582
0.12874691615
0.0274409472621
0.0118852760252
0.0101000523896
0.010010279921
0.00990375497993
0.00958202706519
0.00913274048343
0.00870305376776
0.00839713644595
0.00834269462086
0.00878320538599
0.0103260541566
0.0151585491453
0.0347434334427
0.504362912093
0.836584568294
0.976945952234
0.798366660318
0.467669173784
0.185013721813
0.0456813233446
0.0169396596117
0.0123797940571
0.0116681110444
0.0113797980445
0.011033098103
0.0106938113666
0.0104331245384
0.0102862225539
0.0104175811721
0.0112248218207
0.0136288496371
0.0203916644688
0.0449686099806
0.518905287689
0.862985595583
1.0563146064
0.94573741546
0.583304965395
0.2485439298
0.0694733777842
0.0239498149109
0.0152381715419
0.0137911310185
0.0135651928606
0.0136251996185
0.0140083559983
0.0146198682418
0.0153719874781
0.0163775242559
0.0184092608044
0.0233100998936
0.0352678147053
0.0714208266159
0.550372057984
0.905590180972
1.14760534746
1.11374799561
0.724581812647
0.322407719418
0.0974062378497
0.0316128173972
0.0173668402524
0.0152579595503
0.0158799759968
0.0177631664986
0.0209808197754
0.024724382849
0.0279303166592
0.0303012566441
0.0339144243966
0.0442170561103
0.070175207383
0.136732939085
0.590323859358
0.953523449753
1.23917039491
1.27373423675
0.883112288899
0.413702074149
0.138311465718
0.0430084045249
0.0200101770027
0.0176095515436
0.0212728198518
0.0283091071239
0.0389334293282
0.0519143864883
0.061545617763
0.0633316088403
0.0621270599038
0.0760045799823
0.126245143344
0.256245649316
0.627024692319
0.995371979273
1.31350052612
1.40426151177
1.05273156608
0.541492923383
0.220359067509
0.0726621661168
0.0263176306602
0.0186282220001
0.0239314413074
0.0407529969261
0.0730384528655
0.124864224273
0.171667225717
0.169084149625
0.122288387269
0.117294263022
0.190583319388
0.417048446899
0.655420379101
1.02536091038
1.36413652199
1.4963324533
1.22611257693
0.724659667404
0.381124157884
0.168617004614
0.0625207003773
0.0262655540298
0.0308842429541
0.0698929609063
0.148783324663
0.307708112667
0.609202193839
0.618019862288
0.288116603001
0.17951946733
0.253573544654
0.600249268316
0.674314887414
1.04046930766
1.39201615925
1.55788580806
1.38181535925
0.943198817681
0.626226136565
0.36337241453
0.210306105843
0.117514848578
0.113314889357
0.231767295313
0.496990203509
1.0336383565
1.28938795722
0.962312843472
0.570399225452
0.265083863541
0.306846689045
0.790436368071
0.678583692875
1.03598014765
1.39684978645
1.59072052707
1.50680183685
1.16031827731
0.848236616321
0.635783139886
0.436564789306
0.26511007901
0.385826518016
0.872772677079
1.0742912443
1.01027280067
1.12737714035
1.00846850053
0.549360941708
0.263958309853
0.317944010366
0.922039847927
0.659366207855
0.994164867535
1.36477449517
1.58131218152
1.56880575122
1.32193995479
1.01992128434
0.808973189295
0.593223772553
0.645520784411
1.17958414829
0.83848095666
0.792564639608
0.908575158213
0.966271327441
0.855245298976
0.583025962549
0.235076338937
0.309861393577
0.969575748298
0.603786290858
0.894379486031
1.2607618393
1.50287633068
1.54346129825
1.38607026316
1.16153703435
1.01729030784
1.03553366055
1.29439343883
0.864033374771
0.770368767775
0.83856939308
0.90175250065
0.902034980732
0.802506795877
0.587758375852
0.237292668897
0.315725525521
0.983688426822
0.494229808398
0.744010864708
1.05960792929
1.31904519548
1.4211300114
1.38834634281
1.34691674078
1.39464363864
1.40235251349
1.02590353974
0.852760864545
0.875861663494
0.93315465391
0.954973132564
0.921800109311
0.818133796005
0.592957639726
0.25212193796
0.324434492983
0.997348042321
)
;

boundaryField
{
    emptyPatch
    {
        type            empty;
    }
    minY
    {
        type            fixedValue;
        value           nonuniform List<scalar> 0();
    }
    maxY
    {
        type            inletOutlet;
        inletValue      nonuniform List<scalar> 0();
        value           nonuniform List<scalar> 0();
    }
    water_to_cooler
    {
        type            fixedValue;
        value           nonuniform List<scalar> 
38
(
0.611132249153
0.576204354515
0.54376454684
0.513720360534
0.485822451653
0.459689822614
0.434829549543
0.410677185765
0.386663603459
0.362298735077
0.337253922579
0.311418947513
0.284917673356
0.258081247607
0.231402343123
0.20550498348
0.181148585894
0.159397977257
0.142648399768
0.130825107648
0.123239467541
0.122652876239
0.121946967254
0.119164984657
0.117331672041
0.120835302619
0.132088096645
0.161070617474
0.242382967784
0.45432893282
0.831089278226
1.28889156714
1.73324761329
2.10434573481
2.31549942527
2.40488874693
2.47142744482
2.55794202248
)
;
    }
    water_to_heater
    {
        type            fixedValue;
        value           nonuniform List<scalar> 
60
(
11450.3283475
11450.3283475
16690.2854308
19662.1339607
19265.2120781
19265.2120781
17954.9711735
17954.9711735
16577.8681164
16577.8681164
15511.9056806
14800.6993866
14439.9424589
14439.9424589
14776.8610741
14776.8610741
16122.7846464
16122.7846464
18248.6291734
19617.9483555
19483.4669046
19483.4669046
18586.0654261
18586.0654261
16990.7481474
16990.7481474
14077.7709392
10547.2409831
8656.93974924
8656.93974924
10384.2189802
10384.2189802
16441.9588999
16441.9588999
26050.9368273
31381.4582584
31389.1363521
31389.1363521
31147.8896085
31147.8896085
31848.1792559
31848.1792559
33746.0854041
36939.5225635
40795.1339737
40795.1339737
41677.0433791
41677.0433791
34895.7592986
34895.7592986
25531.2999269
18944.9679407
15314.2833524
15314.2833524
12689.6386553
12689.6386553
10952.3889691
10952.3889691
10117.2932958
9861.01134694
)
;
    }
    procBoundary3to1
    {
        type            processor;
        value           nonuniform List<scalar> 
41
(
8.68451097918
4.93364363429
2.95101559655
1.84124898398
1.18887145465
0.838086541631
0.662359601522
0.571399992338
0.520150150803
0.483072262934
0.441702410901
0.397320662147
0.36197812786
3648.4349234
1003.37269197
334.440277037
132.592110993
59.3979630262
28.6458269321
8.68451097918
14.8077280986
0.378496144799
0.565125542358
0.805423928057
1.03691241394
1.2163284821
1.35052635266
1.48604486788
1.48708203949
1.19664281981
0.971261084268
0.935609289149
0.989248477346
1.03507588514
1.04182667137
1.00856587411
0.903104325763
0.622980867596
0.286772975501
0.342482168837
1.02494571168
)
;
    }
    procBoundary3to2
    {
        type            processor;
        value           nonuniform List<scalar> 
41
(
2062.95873194
752.717457436
249.35614818
77.3043071182
23.1295831138
7.46076138923
2.88280368358
1.37889627018
0.797573323346
0.547416117911
0.439668126595
0.397774527803
0.403623149267
0.451437494554
0.54355334805
0.637223219522
0.57876347471
0.389692284031
0.174018221558
0.0228921662402
0.000131612291603
0.00016299202375
0.000237520106551
0.000404776083946
0.000786158882719
0.00163502204886
0.00333850698511
0.00616449959486
0.0099282220734
0.0142068566433
0.0187760691708
0.0237798083312
0.0298884278103
0.0388137039274
0.0548105509562
0.0892659690324
0.178887870014
0.00108119433903
0.000226867485153
0.000143891196347
0.000143891196347
)
;
    }
}


// ************************************************************************* //
