/*--------------------------------*- C++ -*----------------------------------*\
| =========                 |                                                 |
| \\      /  F ield         | OpenFOAM: The Open Source CFD Toolbox           |
|  \\    /   O peration     | Version:  2312                                  |
|   \\  /    A nd           | Website:  www.openfoam.com                      |
|    \\/     M anipulation  |                                                 |
\*---------------------------------------------------------------------------*/
FoamFile
{
    version     2.0;
    format      ascii;
    arch        "LSB;label=32;scalar=64";
    class       volScalarField;
    location    "0.875/water";
    object      alpha.gas;
}
// * * * * * * * * * * * * * * * * * * * * * * * * * * * * * * * * * * * * * //

dimensions      [0 0 0 0 0 0 0];

internalField   nonuniform List<scalar> 
1504
(
0.7244498848
0.673589820835
0.614785543885
0.543172973639
0.458743129557
0.369078596667
0.296530477873
0.279408069067
0.279925982607
0.28172948102
0.283478787908
0.284823582202
0.287264788775
0.319929851596
0.355743106131
0.359171831732
0.348359819259
0.289681928481
0.166004547037
0.044494204188
0.730008332002
0.657848214906
0.587274839171
0.499240378406
0.407689739491
0.323622044908
0.281272165676
0.278024532822
0.279741075901
0.282342199533
0.284398315812
0.285911892439
0.291903466308
0.321574860865
0.345324825916
0.35384714442
0.357123265133
0.314717162624
0.193210819569
0.0575825198215
0.725566973643
0.631709799293
0.545848989766
0.444671340439
0.352434939637
0.290311653053
0.276031833765
0.276962769046
0.280289640738
0.283759813571
0.285845731129
0.287404939875
0.294916726763
0.314226703243
0.326001681712
0.349736615559
0.374224721981
0.339642618779
0.220432674786
0.0726219599649
0.730481303215
0.587223745363
0.482965721565
0.376769122616
0.302909554356
0.275377691792
0.274807242912
0.277429848919
0.285255519331
0.290429197891
0.28991358432
0.286412602858
0.28956593192
0.294993848045
0.310553693334
0.353333345972
0.389394131441
0.361997842185
0.249692075584
0.0909085408873
0.726108723619
0.513945529459
0.395381635252
0.30559402709
0.275974797286
0.272863389604
0.27422237518
0.285129176977
0.293460722578
0.293603388212
0.287356299345
0.274877491391
0.27215177155
0.276769610064
0.310690716211
0.365250446808
0.39479251309
0.381613364644
0.280464191719
0.113569797026
0.728291708876
0.4095108023
0.309546702191
0.273519715729
0.27284478705
0.27245526764
0.275463172027
0.29035335018
0.293603388212
0.287907850046
0.269193155139
0.252536403477
0.253853884124
0.272433397087
0.319868532784
0.375527778044
0.395289683592
0.393056602308
0.307384365
0.143114699815
0.701697155982
0.303458606688
0.273832088107
0.27284478705
0.272408438085
0.272128958457
0.274840838624
0.287324151205
0.282860682468
0.263670899668
0.243215365635
0.237895928413
0.245384564918
0.272944446405
0.326751798217
0.377453185105
0.395300989079
0.398205279261
0.334819686132
0.184530878594
0.566375185161
0.272798661601
0.27284478705
0.272408438085
0.272093459817
0.271334799279
0.271689383589
0.26950708638
0.254808244536
0.238468162282
0.231372556952
0.231995703445
0.240369039095
0.26892608232
0.322878034585
0.374545064792
0.394982137778
0.398941596374
0.369440871832
0.239778206443
0.437761117791
0.305899173532
0.308144548863
0.296634784978
0.282102027978
0.272934355353
0.259069547934
0.243919084645
0.233399315616
0.228321558879
0.226846974376
0.227397088587
0.232538229406
0.251572828095
0.29980161312
0.359567980806
0.392186924332
0.399009964404
0.394866389579
0.298336908592
0.478578972792
0.48772903353
0.449953298839
0.399247034545
0.336509357939
0.289033121165
0.256920032965
0.236186272237
0.226177490398
0.222752426065
0.222114240069
0.221971183495
0.223743141899
0.229106564526
0.257623665259
0.323247194199
0.380369416439
0.399078330613
0.401606055789
0.346971553108
0.669976356241
0.726582812562
0.662033389866
0.607000841048
0.52060792676
0.413171624521
0.310503302897
0.250417780382
0.227552892813
0.219755557861
0.217567571282
0.21736954036
0.218287666512
0.219117636901
0.224393108111
0.26910110003
0.35090251066
0.396493679446
0.402524801916
0.379862309007
0.838164523216
0.821922035763
0.7892743458
0.767200700961
0.730161512126
0.656906957889
0.519582349954
0.355484018767
0.257277542622
0.223348304592
0.216424351714
0.216549869267
0.216506297611
0.216578503228
0.216621947
0.227253233838
0.302185850921
0.383283242461
0.402730500483
0.404194729166
0.863399224897
0.836520851378
0.823214710619
0.814486429161
0.801103775363
0.769761422603
0.69292754854
0.535475167151
0.356154597641
0.249794395404
0.216549869267
0.21630586517
0.216549869267
0.216486244718
0.216549869267
0.216610906049
0.247896059018
0.349553846992
0.404169001802
0.405158198226
0.865307501763
0.84090449974
0.831094061465
0.822660520913
0.811727116609
0.787176258809
0.733162141301
0.625969565246
0.46217298129
0.310118920709
0.221391341411
0.216549869267
0.216334718304
0.216549869267
0.216389881538
0.216549869267
0.217929503801
0.302617248948
0.398247617812
0.405500603007
0.863399224897
0.844410050617
0.833311395879
0.823317629744
0.812057069368
0.787609753039
0.736036280145
0.643606154827
0.50753413586
0.360459496501
0.241303326984
0.216148188933
0.216549869267
0.216076552076
0.216549869267
0.216109214771
0.216549869267
0.260266114403
0.381101311265
0.405158198226
0.864973102982
0.847190082025
0.832644764356
0.819994851895
0.807235064261
0.781561242417
0.730723339137
0.642129515929
0.515067721963
0.376250565717
0.256449171598
0.216549869267
0.21580650268
0.216549869267
0.215738899813
0.216549869267
0.215773105262
0.234659953588
0.358879231214
0.405398201212
0.863399224897
0.848445418084
0.827126065489
0.80783808123
0.791313404578
0.762170096764
0.710122809473
0.625738442964
0.507664913468
0.373928363834
0.256872515115
0.216217101964
0.216549869267
0.215540857025
0.216549869267
0.215438299679
0.216549869267
0.224824789301
0.342423371558
0.405158198226
0.864144874608
0.845653345183
0.812642950163
0.784712458778
0.762979118921
0.728820267844
0.672546715112
0.587988741337
0.477237275275
0.352143182575
0.245935647686
0.21646704359
0.215904151863
0.216549869267
0.215401448672
0.216549869267
0.21533501672
0.224421023679
0.334417873221
0.405194446342
0.863399224897
0.833759446141
0.786478092917
0.750655289448
0.723670853617
0.683469087592
0.620423558539
0.532242294665
0.423453102416
0.30714234375
0.225288105775
0.216213055844
0.21646704359
0.215628058169
0.216549869267
0.215333908413
0.216549869267
0.229205013751
0.334628869098
0.404735939784
0.862999973807
0.807901179378
0.747609139212
0.70621234009
0.673189418196
0.624191287339
0.552576245912
0.459634094559
0.352378507179
0.252679834623
0.216343990632
0.216302040799
0.215941454013
0.21646704359
0.215499723698
0.216549869267
0.215308923359
0.245530527306
0.33853886639
0.401394578701
0.855129411675
0.768507629586
0.698604166645
0.652702234322
0.608772888592
0.546715231879
0.465353183691
0.369439266107
0.273049168958
0.218725909471
0.216302040799
0.215835591662
0.216309392362
0.2157574494
0.21646704359
0.215419050268
0.218075741366
0.269743824236
0.33907712717
0.394415862138
0.834882777392
0.726377284421
0.647318774948
0.588697121193
0.526664271471
0.448792350419
0.359719892154
0.27244567117
0.220657950689
0.216302040799
0.215795497365
0.216302040799
0.2155617669
0.21638112206
0.215598152904
0.21646704359
0.238812303597
0.281314238272
0.333854404489
0.386278015653
0.819568860533
0.690112298113
0.592107056322
0.511535093571
0.427298131388
0.33686281851
0.256866198258
0.218494784112
0.216236802061
0.215781086311
0.216302040799
0.215321370012
0.216302040799
0.215477775838
0.216302040799
0.222684833289
0.255559735075
0.280970296264
0.324883352509
0.378411394584
0.818955220511
0.656396210246
0.526279323132
0.418936103889
0.319684651608
0.242644882065
0.216516727536
0.216236802061
0.21556598415
0.216236802061
0.215237367534
0.216302040799
0.215146379656
0.216302040799
0.215589803126
0.240388769801
0.256602643865
0.272705359181
0.312146060165
0.369018402
0.83209914915
0.599819643878
0.440420056518
0.315407808779
0.236085447454
0.216183482398
0.216236802061
0.215334793186
0.216236802061
0.214788806784
0.216236802061
0.214895546293
0.216302040799
0.215231295096
0.222925602042
0.246032644072
0.249225665837
0.256277587931
0.293637758267
0.357246279478
0.843665222045
0.504019368088
0.341375104273
0.233379672149
0.2161465628
0.216236802061
0.21501144509
0.216236802061
0.21413189821
0.216236802061
0.214330517666
0.216236802061
0.214928973094
0.216302040799
0.232636104876
0.24371112215
0.2369692877
0.238095440187
0.270010664222
0.339740737416
0.844175865206
0.387156330927
0.249262915001
0.215916779121
0.216236802061
0.214504634051
0.216236802061
0.213246469788
0.216236802061
0.213523969489
0.216236802061
0.214378476126
0.216236802061
0.215887364935
0.237972024694
0.237951269606
0.228669187998
0.225429428805
0.245213028889
0.311389801382
0.785183338376
0.285495863685
0.216400379734
0.216236802061
0.214054882411
0.216236802061
0.21234282985
0.216179701762
0.212590469038
0.216236802061
0.213755982898
0.216236802061
0.214708765725
0.226760512166
0.237980343214
0.233541372018
0.22604701843
0.223066901355
0.22622987783
0.272494017884
0.64293221053
0.277711404697
0.216236802061
0.214361095395
0.216236802061
0.212059464637
0.216179701762
0.212032710256
0.216179701762
0.213334130893
0.216236802061
0.214447747229
0.21754814391
0.233288455717
0.235278267043
0.230686385822
0.225546432775
0.223047760061
0.223066901355
0.23514807454
0.550352366819
0.335489586548
0.268668821192
0.242247206965
0.227754150455
0.224357045853
0.222653596352
0.222294559506
0.218060637817
0.216812186694
0.216004606192
0.220280501085
0.227861980742
0.230733692
0.230191953712
0.228778670439
0.225371010759
0.223066901355
0.222944156344
0.223066901355
0.584196750719
0.543821256361
0.487901964647
0.431138293064
0.395418815699
0.376490466079
0.354019644794
0.313078918982
0.270770820999
0.242901085382
0.23049379937
0.227023331882
0.226025965469
0.225302309223
0.226144578856
0.226931120865
0.225236428327
0.223042592219
0.223066901355
0.222877054956
0.71499607872
0.762801225784
0.733556928576
0.690567500701
0.655385237687
0.630968075195
0.589107715461
0.506691542337
0.395704544537
0.302429942688
0.248976768364
0.227209329356
0.223260578394
0.223109028712
0.223637721916
0.224862693686
0.224906318293
0.223066901355
0.22289584581
0.223066901355
0.826933417729
0.834585131694
0.813692715545
0.791264229521
0.770412268326
0.751746402439
0.721879062192
0.658941036681
0.54333933703
0.404732767305
0.293427487584
0.231414548779
0.223066901355
0.2230319649
0.223066901355
0.223293276824
0.223991680507
0.223181343299
0.223066901355
0.222727977709
0.858524614165
0.837913772551
0.821580303244
0.804872845503
0.790085847489
0.774877234973
0.750862324649
0.703482487208
0.611511818982
0.482071436689
0.35251170277
0.247648469295
0.222952371592
0.223066901355
0.222943191442
0.223066901355
0.22307558408
0.223178498413
0.222961196382
0.223066901355
0.858748059488
0.834301351327
0.819871916598
0.805270476859
0.793226723396
0.780022402813
0.757091618103
0.711605659081
0.627504423316
0.508633503955
0.381051137455
0.265776519874
0.223066901355
0.222730359213
0.223066901355
0.22277361264
0.223066901355
0.222996648504
0.223066901355
0.222826434232
0.854607178597
0.824383023662
0.811741074859
0.801838776135
0.793180120983
0.781833930144
0.759207246659
0.712948398106
0.630021102968
0.514362744214
0.387384965101
0.271081161243
0.222931230623
0.223066901355
0.22250008221
0.223066901355
0.222601664395
0.223066901355
0.222839921908
0.223066901355
0.839829765425
0.812639443466
0.799519831962
0.794492676787
0.790915981549
0.782028772112
0.759604334634
0.711765861573
0.628181779339
0.513461743953
0.38628499864
0.269966456294
0.223066901355
0.222715281447
0.223066901355
0.222315970899
0.223066901355
0.222458729292
0.223066901355
0.222662742861
0.832305445353
0.801783610704
0.786349807977
0.785492813366
0.78591615324
0.780226147154
0.758078385696
1e-15
1.00192389305e-15
1.02831829181e-15
1.02888447513e-15
1.02831829181e-15
1.02844741352e-15
1.02568295315e-15
1.01522702666e-15
1.01216195808e-15
1.01194567607e-15
1.01247554305e-15
1.01382460075e-15
1.01646532493e-15
1.02095159515e-15
1.02863324285e-15
1.03325311591e-15
1.7501760197e-15
0.00289182878792
1.23633315651e-05
1e-15
1e-15
1e-15
1.02853968585e-15
1.02831829181e-15
1.02871197499e-15
1.02831829181e-15
1.02195070076e-15
1.01442294033e-15
1.01246223184e-15
1.01220106354e-15
1.01266788241e-15
1.01394931005e-15
1.01650855489e-15
1.02077556243e-15
1.02812847508e-15
1.03330755491e-15
1.75541085577e-15
0.00438372616072
2.51524782464e-05
1e-15
1e-15
1e-15
1.01829773682e-15
1.02871808122e-15
1.02831829181e-15
1.02760338869e-15
1.01786695714e-15
1.01303972009e-15
1.0117825945e-15
1.01153189998e-15
1.01193554553e-15
1.0131053449e-15
1.01549091035e-15
1.0196130421e-15
1.02729401321e-15
1.03179021859e-15
1.75871674104e-15
0.00647108466354
4.90164246442e-05
1e-15
1e-15
1e-15
1e-15
1.02831829181e-15
1.02845129743e-15
1.02204845849e-15
1.01383160519e-15
1.01094245822e-15
1.01000375059e-15
1.00985624301e-15
1.01023613492e-15
1.01127573046e-15
1.01338326146e-15
1.01730942618e-15
1.02655102198e-15
1.03235377706e-15
1.76164082753e-15
0.00949598559254
9.76831084753e-05
1e-15
1e-15
1e-15
1.00114714749e-15
1.02471479392e-15
1.02349466059e-15
1.01513453452e-15
1.01004993476e-15
1.00827186511e-15
1.0076564504e-15
1.00764887994e-15
1.00801491849e-15
1.00890313472e-15
1.01069798313e-15
1.01418493427e-15
1.02580528409e-15
1.03765115911e-15
1.76456107875e-15
0.0142097383527
0.000216708939769
1.3785442038e-08
1e-15
1e-15
1e-15
1.01010038053e-15
1.01420068439e-15
1.00939296413e-15
1.00636110639e-15
1.00528440793e-15
1.00497515048e-15
1.00505745313e-15
1.00539842127e-15
1.00612101378e-15
1.00765088455e-15
1.01063293559e-15
1.02527024802e-15
1.04803265086e-15
1.76828742063e-15
0.0225348246334
0.000546946652099
1.30974412483e-06
1e-15
1e-15
1e-15
1.00189259737e-15
1.00722854635e-15
1.00461142665e-15
1.00296525842e-15
1.00244327156e-15
1.00235062754e-15
1.00246686361e-15
1.00274245128e-15
1.00328445463e-15
1.00447191084e-15
1.00690251983e-15
1.02518681937e-15
1.05799233558e-15
1.76939589001e-15
0.0384671699831
0.00149496435906
1.07343153272e-05
1e-15
1e-15
1e-15
1.00010728753e-15
1.00189107797e-15
1.0012299571e-15
1.00067101785e-15
1.00052855909e-15
1.00053113782e-15
1.00060957186e-15
1.00075873242e-15
1.00105348148e-15
1.00175738169e-15
1.00345213878e-15
1.02566133264e-15
1.06689578094e-15
1.76973559767e-15
0.069200946347
0.00436073340906
6.51010130297e-05
9.46098040291e-08
1e-15
1e-15
1e-15
1.00004938842e-15
1.00002495463e-15
1e-15
1e-15
1e-15
1e-15
1.00001171569e-15
1.00005923737e-15
1.00023686716e-15
1.00097568491e-15
1.02659724651e-15
1.07653097547e-15
1.77009188968e-15
0.121571912267
0.0130649117761
0.000343327034166
1.44091100415e-06
1e-15
1e-15
1e-15
1e-15
1e-15
1e-15
1e-15
1e-15
1e-15
1e-15
1e-15
1e-15
1.00000990744e-15
1.02781826008e-15
1.08663999292e-15
1.7704481817e-15
0.188786721511
0.0350743547868
0.00155953947525
1.48315427549e-05
3.52888858957e-10
1e-15
1e-15
1e-15
1e-15
1e-15
1e-15
1e-15
1e-15
1e-15
1e-15
1e-15
1e-15
1.02966109326e-15
1.09629336912e-15
1.77080447372e-15
0.250408369569
0.0742202455112
0.00587892129216
0.000108810838254
5.68697964453e-08
1e-15
1e-15
1e-15
1e-15
1e-15
1e-15
1e-15
1e-15
1e-15
1e-15
1e-15
1e-15
1.03261486137e-15
1.10568533959e-15
1.77370023045e-15
0.295055837053
0.121455147599
0.0171983999462
0.000587319622816
1.61876103256e-06
1e-15
1e-15
1e-15
1e-15
1e-15
1e-15
1e-15
1e-15
1e-15
1e-15
1e-15
1e-15
1.03692449176e-15
1.11472347011e-15
1.78312450251e-15
0.324435735987
0.165119424507
0.0367713156025
0.00229639942319
1.9338817093e-05
1.03918371182e-15
1e-15
1e-15
1e-15
1e-15
1e-15
1e-15
1e-15
1e-15
1e-15
1e-15
1e-15
1.04232896136e-15
1.12269173407e-15
1.80113668505e-15
0.34561270258
0.202523038881
0.0617849086283
0.00635374382327
0.000120558644312
1.1678157846e-15
1e-15
1e-15
1e-15
1e-15
1e-15
1e-15
1e-15
1e-15
1e-15
1e-15
1.00516091029e-15
1.04850669397e-15
1.12890777818e-15
1.83433901408e-15
0.363348345809
0.235884790111
0.0893729934051
0.0134210740122
0.000460804762939
3.85487239714e-07
1e-15
1e-15
1e-15
1e-15
1e-15
1e-15
1e-15
1e-15
1e-15
1e-15
1.0166986957e-15
1.05536246828e-15
1.13364984089e-15
1.87930465615e-15
0.378953789596
0.266459802193
0.117909378958
0.0236241547287
0.0012945799984
5.47927190385e-06
1e-15
1e-15
1e-15
1e-15
1e-15
1e-15
1e-15
1e-15
1.00298786459e-15
1.01361422226e-15
1.02218640739e-15
1.06260584867e-15
1.13648369378e-15
1.91964102037e-15
0.39114583144
0.292768500175
0.145775659097
0.0367806723285
0.00297675746417
3.16658841825e-05
1.06165627381e-15
1e-15
1e-15
1e-15
1e-15
1e-15
1.00442747213e-15
1.01228395234e-15
1.02007585712e-15
1.02404260615e-15
1.02879619541e-15
1.07046020817e-15
1.13530921178e-15
1.95117047155e-15
0.398586689756
0.312833571823
0.171440820898
0.0524921476629
0.00598423792034
0.000123509326734
1e-15
1e-15
1e-15
1e-15
1.00663442767e-15
1.0145119922e-15
1.01853072278e-15
1.02206709426e-15
1.02608844162e-15
1.03013714003e-15
1.03780049207e-15
1.0802128939e-15
1.13068739466e-15
1.97886429896e-15
0.401634536425
0.327725585653
0.195639568064
0.0709939384835
0.0109963915232
0.00039379722747
4.32196352829e-07
1e-15
1e-15
1e-15
1.01074544874e-15
1.01840744563e-15
1.02173620411e-15
1.02490845892e-15
1.02931905984e-15
1.03499531129e-15
1.04922681234e-15
1.09390907908e-15
1.12314813825e-15
2.00165351114e-15
0.401286760624
0.341522245815
0.22185291448
0.0939811496216
0.019215090155
0.00115438178136
7.31385304492e-06
1e-15
1e-15
1e-15
1.00757986249e-15
1.01800084008e-15
1.02213457576e-15
1.02533746221e-15
1.03007101524e-15
1.03752504238e-15
1.06268020838e-15
1.12934652941e-15
1.12211748468e-15
2.02103449718e-15
0.401825097856
0.357446381898
0.253039363837
0.124092517951
0.0328491384221
0.00320319313749
6.05888959664e-05
1e-15
1e-15
1e-15
1.00193189164e-15
1.00929671041e-15
1.01902373624e-15
1.02330722471e-15
1.02821691039e-15
1.03713675168e-15
1.07511850068e-15
1.1571723106e-15
1.1221146236e-15
2.0373209229e-15
0.405037172594
0.376348044101
0.290425445959
0.164789292163
0.0556541163021
0.00830659505812
0.000365401739572
2.40411296435e-06
1e-15
1e-15
1.00106830624e-15
1.00345365363e-15
1.01443909047e-15
1.01939835205e-15
1.02432841604e-15
1.03441473431e-15
1.08604985656e-15
1.15728187814e-15
1.12607739171e-15
2.04246984886e-15
0.4050690626
0.395231320281
0.333315220874
0.217086340261
0.0912594248086
0.0196432717086
0.00173431948456
4.59673069921e-05
1.05087858286e-07
1e-15
1e-15
1e-15
1.00491274871e-15
1.01343114832e-15
1.01874485844e-15
1.02867147767e-15
1.08463996019e-15
1.1571723106e-15
1.14361448322e-15
2.05337359833e-15
0.404186657614
0.411825102063
0.371017743346
0.270218012948
0.137998295548
0.0411185129725
0.00613153241964
0.000404434012267
7.34700162715e-06
1e-15
1e-15
1e-15
1.00058937078e-15
1.00766823719e-15
1.01253839039e-15
1.01982806422e-15
1.07136983131e-15
1.15259342143e-15
1.15088043863e-15
2.08683198457e-15
0.402038214028
0.413802784572
0.393107823682
0.314340717754
0.190120190776
0.0745641322772
0.0166594093574
0.00205786492989
0.000105764274183
6.90815493726e-07
1e-15
1e-15
1.00084464663e-15
1.00240297359e-15
1.00302331168e-15
1.00609203395e-15
1.06529406052e-15
1.13867151564e-15
1.1583742151e-15
2.14189875579e-15
0.395506467749
0.413765042924
0.410551576442
0.352258620367
0.241488286465
0.117801285532
0.0363791065983
0.00685092892332
0.000741016059191
2.5164055137e-05
2.45866914625e-08
1e-15
1e-15
1e-15
1e-15
1.00001776369e-15
1.06357634758e-15
1.14138674375e-15
1.17318675562e-15
2.18441290886e-15
0.380531161561
0.413112697678
0.426388332702
0.385490135908
0.290121243523
0.168043753676
0.0670630095352
0.0174233897692
0.00300005486909
0.000258976527655
4.1265708913e-06
1e-15
1e-15
1e-15
1e-15
1e-15
1.05064509995e-15
1.14804515521e-15
1.20736049001e-15
2.19966649896e-15
0.353766133686
0.410691051778
0.426467343376
0.422147586343
0.34020142508
0.222764842362
0.108528506088
0.036743550931
0.00874187321814
0.00141399426771
9.77682019711e-05
6.95443596818e-07
1e-15
1.14823355284e-15
1.64982586148e-15
2.12626840315e-15
1.62740446326e-15
1.17784888468e-15
1.25330379753e-15
2.19995474522e-15
0.313382796423
0.399819961603
0.4268630011
0.426467343376
0.379801544844
0.276286212701
0.157574138165
0.0666827893956
0.0207401849143
0.00487156514471
0.000774346430445
5.02099335156e-05
1.35568811154e-07
2.21140014623e-11
1.64005545561e-11
1.69117955032e-11
5.76868306015e-12
1.90104974258e-13
2.47426792461e-15
2.70731860765e-15
0.263840183563
0.370950928091
0.426467343376
0.427178621919
0.420185680806
0.32999294434
0.212151575085
0.107877311709
0.0423291232277
0.0130590989758
0.00316200991511
0.000483625618019
2.49049172982e-05
1.09190861139e-07
3.06566324668e-08
1.92108030815e-08
6.20324986078e-09
4.74282206551e-10
6.46689583119e-12
4.33322748393e-12
0.226093035753
0.324571394356
0.426288088981
0.426467343376
0.42707417666
0.377175125238
0.273324496659
0.162310247405
0.0777267328445
0.0300300383187
0.00951227920035
0.00233886335991
0.00034900829261
3.25267501627e-05
8.97086705071e-06
4.5602967007e-06
2.01811464692e-06
3.10902916851e-07
9.26048464397e-09
4.40526429574e-09
0.222847914346
0.273125283108
0.41090649452
0.427439757397
0.426467343376
0.426331091112
0.345222946147
0.233375310948
0.132199561566
0.0628740575244
0.0254899810229
0.00881592049226
0.00256015430285
0.00107968004124
0.00067080746094
0.00042374726162
0.000267571733814
5.61400250867e-05
4.21183829676e-06
9.77960419147e-07
0.223066901355
0.230052923998
0.370785175701
0.426467343376
0.427441090445
0.426467343376
0.402841526222
0.315441171649
0.208825448055
0.120292766388
0.0624960372514
0.0304907693565
0.013921160902
0.0102281249586
0.015187559051
0.0169475412226
0.0129172117091
0.00410160454313
0.000613074465613
7.16899749728e-05
0.222601075103
0.223066901355
0.311026173797
0.426710147999
0.426467343376
0.427336465616
0.426467343376
0.3836449959
0.294749612517
0.201396469134
0.129354868492
0.0808606170848
0.0457116336818
0.0319076896686
0.117941959818
0.221696016816
0.202187821924
0.0973349451761
0.0216451561439
0.00181622579479
0.223066901355
0.222402861987
0.263102710429
0.401816040485
0.427248409342
0.426467343376
0.426820119067
0.414544151249
0.361861858691
0.285755905275
0.209070274841
0.141508924729
0.0951590057932
0.13715106405
0.36252129031
0.619354433944
0.620927570541
0.554500874434
0.195290202498
0.00933413304782
0.222620727417
0.223066901355
0.232490760008
0.353735580567
0.426467343376
0.427024313882
0.426467343376
0.425692307103
0.402168006559
0.346378401738
0.263604316527
0.204271929824
0.286287714321
0.586378247229
0.619354433944
0.621721585044
0.619483232223
0.621516851914
0.426140214163
0.0182422789291
0.223066901355
0.222316705939
0.223066901355
0.300323947502
0.41388920936
0.426467343376
0.42670426237
0.426467343376
0.411155336962
0.35379611219
0.318648810903
0.479960566688
0.621596501674
0.618967933398
0.621562867036
0.619354433944
0.62161569981
0.619147159043
0.494759708772
0.0233177686831
)
;

boundaryField
{
    emptyPatch
    {
        type            empty;
    }
    minY
    {
        type            fixedValue;
        value           nonuniform List<scalar> 0();
    }
    maxY
    {
        type            inletOutlet;
        phi             phi.gas;
        inletValue      nonuniform List<scalar> 0();
        value           nonuniform List<scalar> 0();
    }
    water_to_cooler
    {
        type            zeroGradient;
    }
    water_to_heater
    {
        type            zeroGradient;
    }
    procBoundary3to1
    {
        type            processor;
        value           nonuniform List<scalar> 
41
(
0.707553139288
0.622100290045
0.507640980814
0.38020457233
0.265424056874
0.223032973118
0.223066901355
0.222438762453
0.223066901355
0.222183075657
0.223066901355
0.222337941532
0.223066901355
0.83203177189
0.784764875999
0.768122288289
0.771568113919
0.776544190037
0.773090215212
0.707553139288
0.751493008535
0.222437824286
0.223066901355
0.2220983187
0.263019082347
0.38462312729
0.426537850187
0.426467343376
0.42071455069
0.39110741833
0.391075133387
0.564778757781
0.621353017233
0.618625477386
0.621378217869
0.618967933398
0.621399201894
0.619147159043
0.621110155124
0.501074413638
0.0247048140911
)
;
    }
    procBoundary3to2
    {
        type            processor;
        value           nonuniform List<scalar> 
41
(
0.726106468023
0.680826088174
0.634923221543
0.579929137999
0.503223535228
0.411769875509
0.323657198192
0.282815759693
0.280523312011
0.28150985845
0.282904765524
0.2841948307
0.285520677043
0.308611370013
0.357543654978
0.359970718927
0.344783605664
0.270348716865
0.141155287435
0.0328796425583
1e-15
1.0225846835e-15
1.02864538459e-15
1.02831829181e-15
1.02875394895e-15
1.02831829181e-15
1.0275101264e-15
1.01543823501e-15
1.01085050192e-15
1.0106719277e-15
1.0113556136e-15
1.01283453123e-15
1.01551764444e-15
1.02038099112e-15
1.02818630225e-15
1.03187007555e-15
1.73587742983e-15
0.00177188286026
5.17842173438e-06
1e-15
1e-15
)
;
    }
}


// ************************************************************************* //
