/*--------------------------------*- C++ -*----------------------------------*\
| =========                 |                                                 |
| \\      /  F ield         | OpenFOAM: The Open Source CFD Toolbox           |
|  \\    /   O peration     | Version:  2312                                  |
|   \\  /    A nd           | Website:  www.openfoam.com                      |
|    \\/     M anipulation  |                                                 |
\*---------------------------------------------------------------------------*/
FoamFile
{
    version     2.0;
    format      ascii;
    arch        "LSB;label=32;scalar=64";
    class       volScalarField;
    location    "0.445/water";
    object      alpha.gas;
}
// * * * * * * * * * * * * * * * * * * * * * * * * * * * * * * * * * * * * * //

dimensions      [0 0 0 0 0 0 0];

internalField   nonuniform List<scalar> 
1496
(
0.638978424485
0.640512986675
0.646097643115
0.69757768736
0.724381587144
0.727092360229
0.701832261514
0.619362000606
0.466087677533
0.332415749814
0.274763394236
0.266869354316
0.267378798961
0.267990473921
0.26766063507
0.267020066491
0.270934148165
0.291106867288
0.311429664231
0.332091247286
0.640512986675
0.637942139489
0.640512986675
0.671884917556
0.712748581995
0.731857701105
0.707461418132
0.639177397092
0.509111281612
0.366490153271
0.281549843061
0.266877190493
0.266696247952
0.266877190493
0.266574976452
0.266877190493
0.280543338985
0.32243702462
0.345475697759
0.3449403988
0.638089360382
0.640512986675
0.638548930489
0.650146559538
0.701951532257
0.730184176075
0.718875292908
0.660914641465
0.547679254462
0.409522801533
0.305850825568
0.269117314242
0.266877190493
0.266542092895
0.266877190493
0.284245454104
0.342151472143
0.39254618511
0.389846947511
0.354624583805
0.640512986675
0.637187879535
0.640512986675
0.640922064794
0.703181086946
0.733650078727
0.730184176075
0.695330077025
0.609777040157
0.48964945606
0.375859131435
0.308793866004
0.288235513685
0.291037502144
0.315160431956
0.382761389008
0.457415509189
0.473237931778
0.437051208619
0.370106665704
0.637865897425
0.640512986675
0.637354943872
0.646505110934
0.721783835486
0.730184176075
0.733007855285
0.726174056864
0.686641443743
0.608755294488
0.51397065729
0.433006000744
0.397712610008
0.407669796143
0.452689090572
0.51819266324
0.541948087268
0.521076805072
0.467731170429
0.39309930085
0.640512986675
0.637611363488
0.640512986675
0.665329484554
0.730184176075
0.733774404201
0.730184176075
0.73212709185
0.728908265655
0.701592923975
0.651460246247
0.593195504645
0.557761821419
0.556314698738
0.570189214155
0.576548684192
0.562042999122
0.528135400602
0.474330079782
0.404395032777
0.668951757285
0.640512986675
0.643884091843
0.698266947462
0.732578437259
0.730184176075
0.73345066757
0.730184176075
0.731423413816
0.728489278085
0.70746639727
0.669363414553
0.63451514651
0.610698944811
0.593922818558
0.57890671538
0.558080552286
0.521867122825
0.467815086594
0.400042891531
0.671380871328
0.651415879058
0.676342112481
0.726881849164
0.730184176075
0.732530905976
0.730184176075
0.732132006783
0.730184176075
0.730373004027
0.710614061938
0.674818009071
0.638270864353
0.609526218331
0.58653961558
0.563051180593
0.531542371028
0.488118667174
0.432545805098
0.370094460479
0.669259574062
0.661132392651
0.692502495999
0.730184176075
0.731632339581
0.730184176075
0.731968606297
0.730184176075
0.731101885373
0.727808411583
0.701797078389
0.661776097983
0.620757853733
0.583001141861
0.546635013931
0.507415807987
0.462523615222
0.411505868594
0.357203806047
0.305657708486
0.671060086977
0.65547193371
0.688636382469
0.729514961031
0.730184176075
0.731138579558
0.730184176075
0.730716940165
0.730184176075
0.710339491244
0.666821357478
0.614700157282
0.562174738634
0.510007228148
0.457556106583
0.405016859484
0.35379402537
0.306369298436
0.266486418393
0.235863566528
0.669259574062
0.636597166703
0.672981711009
0.717430697888
0.73049379169
0.730184176075
0.730598402241
0.729134152694
0.713043646518
0.66591215634
0.601769840457
0.533558296513
0.464897679546
0.397276418019
0.335126700552
0.285256095252
0.251235852374
0.23120028955
0.218915111491
0.206437357504
0.662486296364
0.610018031228
0.646328396428
0.685579274259
0.718082303592
0.720777441459
0.717779332817
0.701944673305
0.65932287515
0.592687848316
0.515487804284
0.434632265891
0.353934862391
0.28419828359
0.242353082239
0.22768750698
0.223785140911
0.221728809711
0.217038369897
0.20520080046
0.629380061477
0.592692806099
0.619580555558
0.646888827513
0.679387646514
0.681591667484
0.669406275782
0.634150696848
0.575081981554
0.502470992419
0.424029900834
0.345196084642
0.278677733187
0.241828988059
0.231645428583
0.229655004418
0.231333623248
0.2314284114
0.225753090193
0.208095667338
0.593567525464
0.59263795024
0.606847961556
0.627078401751
0.640462164783
0.63456315814
0.609158529291
0.561103373275
0.499225833425
0.43432020597
0.37203322899
0.31621605971
0.273346217511
0.251943959313
0.252687029519
0.262736852013
0.27029890535
0.265128415116
0.241465939364
0.212467879921
0.593375568868
0.599869139986
0.620493678997
0.634430080878
0.637419293477
0.624391882761
0.592702695845
0.544844517717
0.489015092646
0.432109719801
0.378565793752
0.336195015087
0.316581745907
0.321903847528
0.33753484505
0.346815232743
0.336329992441
0.297032251302
0.242900297246
0.218923303395
0.633920685456
0.663314481794
0.673804205193
0.673402900328
0.663631867245
0.646795187938
0.617647673547
0.576603000942
0.530830797644
0.489167730761
0.459434545661
0.44812729549
0.454141418231
0.460628270555
0.453914948012
0.425533654267
0.374091315439
0.304037875497
0.24034895237
0.219244977548
0.735892182459
0.751969625961
0.744604487557
0.735168602766
0.723016872375
0.709147428692
0.69220291584
0.671709907306
0.649941418374
0.63054803599
0.615774900633
0.604437495081
0.587765588239
0.556565947662
0.510186607058
0.451302505345
0.381200019221
0.303505883121
0.235466133943
0.218636488544
0.799044957129
0.793032929072
0.778304462853
0.773508669005
0.771725031047
0.770109477573
0.766340585593
0.759710444583
0.747929435786
0.729213032021
0.703787311359
0.671415429644
0.629721994389
0.577934196251
0.518580733535
0.452879503351
0.379334857487
0.297427116523
0.224228446863
0.218547486446
0.801151143941
0.795450873448
0.782727167183
0.782814461706
0.788292727981
0.793774185036
0.793706425211
0.788678749291
0.773954241148
0.748666907794
0.716322551095
0.677771275114
0.631042446669
0.576433017009
0.514452822873
0.444739821528
0.364494474758
0.276044662018
0.209479839612
0.221878575841
0.801109727053
0.790191005895
0.780166849721
0.782422268348
0.791042772855
0.7958618544
0.795868548926
0.790530228536
0.773280292213
0.745447169876
0.710555374236
0.668521100872
0.617567945669
0.557846078555
0.489937371349
0.412799378023
0.325040787001
0.233467335936
0.200512823179
0.256137339998
0.788841551829
0.774715436292
0.771577769515
0.778237503699
0.790063807147
0.795868548926
0.794882486042
0.78493948275
0.760653905578
0.725059355441
0.681390364504
0.630696947628
0.572625147377
0.506748474289
0.432589206203
0.349732952437
0.261123732257
0.18884500293
0.193253383209
0.351045963523
0.770603164952
0.754121153604
0.757929984239
0.77072480867
0.785312535603
0.790744775829
0.784682569238
0.763556448151
0.726215586702
0.676790409195
0.620454739437
0.559870118243
0.494457671902
0.422935165143
0.345169833034
0.263840609942
0.189062306526
0.168447728633
0.208230317696
0.547308911078
0.754436611422
0.732447330609
0.741682279975
0.761064791415
0.775570771465
0.775651787355
0.759364621388
0.722615043504
0.668418424325
0.603924571664
0.535760384446
0.466059455245
0.393786881952
0.318574420405
0.244355716904
0.184240493774
0.159413202733
0.164886937067
0.286972413998
0.715428413396
0.741495880496
0.706409937798
0.722363849301
0.747875570855
0.760426337508
0.752983992786
0.721643143028
0.66480754375
0.59237136883
0.514951378336
0.437503421015
0.360704762346
0.284909771148
0.216016832291
0.170969458786
0.15910477024
0.15910418661
0.180907847169
0.505773846527
0.788994315143
0.731093921054
0.673801921226
0.695703606895
0.72851114445
0.738709595559
0.725135733807
0.677966849322
0.598696521033
0.507628591221
0.418282972333
0.334168178793
0.256071619209
0.192409782394
0.162305744782
0.159103602978
0.158990319364
0.159727721856
0.283161982594
0.714186934608
0.8017736258
0.718895491022
0.639582083182
0.658773763815
0.696649530818
0.70825902367
0.691589881555
0.633700552193
0.538474739871
0.430577129317
0.327933268534
0.240754456802
0.179527931628
0.159526797988
0.159103602978
0.158990319364
0.159103602978
0.219604095895
0.575086294038
0.79531681513
0.806513592549
0.70278000809
0.599207379125
0.61230056531
0.651153710409
0.668947249548
0.652619067506
0.594247569805
0.496644680783
0.382146117607
0.27190136152
0.188656194921
0.15956279296
0.159103602978
0.159018472084
0.159103602978
0.214307221482
0.494964925744
0.76814975434
0.805382642002
0.801734834399
0.684950834873
0.54974401562
0.559066684868
0.598457164443
0.625004175461
0.612542845078
0.561888785403
0.47197055879
0.361922840217
0.255224983014
0.180530825988
0.159107065967
0.159021742963
0.166030279484
0.234238565766
0.488114206489
0.750034570041
0.804244765945
0.801635871429
0.806778437728
0.67031953962
0.499925211594
0.504210184223
0.54365489647
0.57983935912
0.573415423638
0.533147186239
0.452729363094
0.348735530631
0.247134570879
0.180604930641
0.167181725667
0.180913759241
0.274224122859
0.523949307996
0.751959540433
0.803514499298
0.801455100216
0.806176372402
0.801635871429
0.661518811409
0.456186523506
0.452868862536
0.488849099064
0.532659526158
0.532228502946
0.501135499428
0.428012242548
0.329308411741
0.239371874206
0.197320420389
0.215181061818
0.334733618483
0.576484700448
0.764173213515
0.803129318359
0.801392176148
0.805269123904
0.801455100216
0.80479636105
0.648420025055
0.417651533314
0.408480816325
0.437152873379
0.48160513126
0.485276620859
0.459026729273
0.390555163072
0.305484492512
0.25134171019
0.270067100777
0.403509801503
0.631833317751
0.774835822242
0.80269874627
0.8013252485
0.804384232213
0.801392176148
0.804189180581
0.801455100216
0.62425724591
0.381815372248
0.371606077135
0.390887079628
0.427906193465
0.432139286501
0.407347869465
0.351211499961
0.307121942383
0.32491975022
0.456300121814
0.649757174177
0.770682287142
0.802009316921
0.801303345151
0.803205558538
0.8013252485
0.803233549529
0.801392176148
0.802817726814
0.581618351607
0.353965508383
0.3519151161
0.35831761774
0.378561874024
0.381020956725
0.359372808768
0.344731344959
0.35000491773
0.466106467889
0.617916004954
0.72850600747
0.785908214455
0.801303345151
0.801961885657
0.801303345151
0.802160797756
0.8013252485
0.80200359463
0.801392176148
0.51375899097
0.351305790649
0.350903788494
0.350483330269
0.350061971149
0.350360210628
0.343428361149
0.34501968531
0.424292947784
0.538824868407
0.641443506207
0.725302337211
0.774845479476
0.793639905862
0.797683044929
0.79779981681
0.793905287035
0.790452604369
0.787886316671
0.785937556704
0.447820331071
0.351748639155
0.351305790649
0.360600137345
0.361233187431
0.349247394212
0.343296851764
0.361275614047
0.444199463869
0.527640863092
0.612063692846
0.678933110402
0.720061846757
0.742005520031
0.751555014903
0.750064233959
0.739563162275
0.730722055104
0.724701851543
0.719072569499
0.477381576796
0.444059460759
0.466836971669
0.472046783052
0.434026689369
0.399976186841
0.388108583813
0.404713316273
0.438256278886
0.468490902225
0.514091596832
0.558653944881
0.591979606453
0.6132753515
0.622877071457
0.618539014089
0.606082157239
0.598132082221
0.592807953563
0.589222224235
0.610755885863
0.658283099244
0.661630353687
0.641475003935
0.596136433811
0.562933581041
0.537733417868
0.510626540739
0.477416553544
0.458033694266
0.432286676454
0.417513293119
0.417819153119
0.423777710857
0.425052821943
0.418195238623
0.411766854477
0.414163484914
0.424886797539
0.44555550416
0.506978873388
0.505805686577
0.218701733391
0.0164236535246
0.000809786418438
0.000804489510363
0.000809786418438
0.000803172636731
0.000812709358664
0.000805541063523
0.05607133728
0.24604851356
0.246162898052
0.134456341225
0.0241145969878
0.00312173902529
0.361363558764
0.432754770187
0.504159773311
0.506255043654
0.505805686577
0.501925912819
0.213148528656
0.0166462747726
0.000807393149907
0.00080679050604
0.00080184734356
0.000809786418438
0.000800417739512
0.00402239475103
0.197975727009
0.246162898052
0.2334123911
0.0792657452462
0.0172844850805
0.0031242279608
0.355770148219
0.400799719729
0.478538516792
0.505679178339
0.506152105131
0.48192688724
0.211125072984
0.0193682238614
0.000902895468694
0.000802065448587
0.00080679050604
0.000799078107613
0.000809917876642
0.0563561227136
0.246162898052
0.24604851356
0.168154930008
0.0659179351886
0.0222777899685
0.00435309726459
0.340235344726
0.363759747657
0.426424403809
0.481598174265
0.492621487362
0.443990656213
0.206343468983
0.025778389013
0.00157573052842
0.000805626987575
0.000800013460034
0.000808612636862
0.00569675367002
0.185025788552
0.24604851356
0.229082925038
0.112784559421
0.0724841495139
0.0323072982886
0.00735615180138
0.329853978113
0.334264858426
0.369325389038
0.420702816838
0.437603102031
0.385578835008
0.194275915059
0.0358531559056
0.0039838380479
0.000802075076313
0.000808612636862
0.00137196710267
0.0760131060773
0.243433125796
0.246162898052
0.13437980976
0.0915249861318
0.0856895430532
0.0446387084319
0.0108967510654
0.330149576561
0.312598530476
0.325437107687
0.352396478285
0.360607602231
0.312039959324
0.167828632176
0.0456472513854
0.00928444235368
0.00146344856018
0.00140398299456
0.0256637069905
0.227337348464
0.242870602108
0.168252462809
0.0631336504937
0.0879698479489
0.0983945934138
0.0589872927448
0.01550732387
0.334627422362
0.297788514417
0.29207364498
0.298233872659
0.29360397011
0.240040888678
0.12994482096
0.0463510891421
0.0139610514936
0.00361288170943
0.0103162418497
0.188322491057
0.229098158678
0.194456729405
0.0593611573721
0.0439285420977
0.0915320279309
0.111143159271
0.0768168458213
0.0220575049065
0.332416445145
0.284045476032
0.262570487636
0.257438762788
0.244437868479
0.188619780873
0.101607156298
0.0448546988392
0.0141430188922
0.0105441781549
0.11459279801
0.242261171264
0.21842886948
0.0852212497886
0.0118829324135
0.0404764605397
0.0975805922351
0.123047506751
0.0993856190586
0.0322399800744
0.310056367257
0.261132234178
0.233358110109
0.226008444916
0.213518172763
0.169671646982
0.0978981007934
0.0418027497738
0.0173924079259
0.0449982027836
0.265815279837
0.25007439598
0.108197393347
0.00930558479537
0.00720323338033
0.0401391663306
0.0994601195716
0.133501567551
0.126819244911
0.0490230982189
0.260779616362
0.225819222269
0.208613173393
0.205813699579
0.19871661545
0.16996581821
0.103807002968
0.0438999051778
0.0454418720107
0.249723930352
0.267793941502
0.138098532761
0.011169070289
0.00043078728273
0.00641772532542
0.0360166704899
0.0937827228896
0.138287283644
0.153557939162
0.0744805435888
0.212455134088
0.200483965843
0.198492906549
0.198220823161
0.196606491337
0.187592352826
0.147074674505
0.112469171938
0.214406023777
0.449510845736
0.231669814532
0.0175705598622
0.000121499899733
0.000129560970075
0.00326098087152
0.0227166346878
0.0763087847221
0.131635046341
0.153772110495
0.103287187159
0.198208726099
0.198089125134
0.197979106743
0.198089125134
0.235370829735
0.328781417834
0.38378940483
0.442609560923
0.558123303064
0.514038773493
0.160406388921
0.00382266105221
8.68337669899e-06
1.19920426068e-05
0.000434768708148
0.00714106726818
0.0468248258995
0.113341416461
0.152891307915
0.112367009929
0.198089125134
0.197979106743
0.198344040375
0.286358590705
0.507644501287
0.662176020487
0.713224904564
0.74832122118
0.754241472546
0.608488507776
0.170091738734
0.00304621192999
2.34805461214e-06
8.49388610338e-07
1.62158278569e-05
0.000977133115381
0.0202554090699
0.0873690926017
0.142236713143
0.114594168821
0.197998456351
0.199520778138
0.30455504458
0.592039868788
0.770711493245
0.801547942157
0.805744425583
0.805221652849
0.796803139523
0.65227848911
0.143867235867
0.00208895321316
1.00112847044e-06
7.05656465461e-07
1.54415627093e-06
0.000118490238858
0.00776432565085
0.0637917096432
0.128185786505
0.109479616289
0.207000838106
0.262781258073
0.520551598359
0.769370053715
0.805221652849
0.806524657914
0.805221652849
0.806309773015
0.800810288173
0.611338964318
0.101639944399
0.00121469435484
7.09377602846e-07
7.06486689117e-07
7.59397221137e-07
1.8430805989e-05
0.00324797997654
0.0480354943717
0.115697447788
0.0974735764565
0.227174848164
0.351292966796
0.649220564598
0.803625147109
0.8063961157
0.805221652849
0.806514336264
0.805221652849
0.799344976015
0.523328202522
0.0611013366279
0.000466949961486
7.06486689117e-07
7.04838605327e-07
7.16363712135e-07
1.61388439733e-05
0.00395930746678
0.0492267501573
0.101177257006
0.0835226281952
0.241003844504
0.422652741288
0.717454828092
0.805706416062
0.805221652849
0.806453038915
0.805221652849
0.80573023276
0.787943947746
0.407034737
0.0302105075
0.000113262861608
7.0459134396e-07
7.06304398781e-07
7.28089147963e-07
6.49740452545e-05
0.00867936330049
0.0545795040041
0.0832692571876
0.0833957931631
0.259572585796
0.503793884413
0.765408355652
0.805221652849
0.806207640531
0.805221652849
0.80603218767
0.805221652849
0.74744400658
0.261083056541
0.0109922446377
1.30849255788e-05
7.06367505514e-07
7.04873885698e-07
7.7770755179e-07
0.000163270014097
0.0145683868434
0.0663977953234
0.0834906489215
0.0835226281952
0.303176675206
0.617333827961
0.793927994823
0.805721358916
0.805221652849
0.805837940397
0.805221652849
0.791128478411
0.627864859167
0.124401023906
0.00266209002918
7.06170685666e-07
7.04362905994e-07
7.06170685666e-07
8.18095318934e-07
4.89739813682e-05
0.0156744552532
0.090118821744
0.104593707071
0.0836433581246
0.403588638158
0.723525652349
0.802948449606
0.805221652849
0.805604498732
0.805221652849
0.79644950799
0.73712301374
0.393191130445
0.036698684217
0.000272135477952
7.045480962e-07
7.05943956222e-07
7.05005151086e-07
9.13274505911e-07
2.43454390589e-06
0.00540337291331
0.109581408474
0.162354069099
0.0837634592174
0.569706876261
0.77903408409
0.805221652849
0.805394038703
0.803520204153
0.791649045454
0.750553043727
0.598166654563
0.139485915066
0.00404707443363
3.55449842711e-06
7.06170687783e-07
7.04543838482e-07
7.06189865909e-07
1.11688169643e-06
2.26393915172e-06
0.000206258621255
0.069588721718
0.25429796967
0.0838808049389
0.717767615962
0.80193685099
0.80527221696
0.80028376985
0.783024754042
0.737536951326
0.624273527237
0.350892838381
0.0254763382218
0.000109762311666
7.31871818837e-07
7.30212677381e-07
7.06170687783e-07
7.44345853392e-07
1.55408849326e-06
2.24779587732e-06
1.63512911457e-06
0.0055715345692
0.332308039045
0.121730810708
0.78410013514
0.803866687107
0.801125594901
0.775249744169
0.719596654721
0.607012558628
0.400750756407
0.108881661208
0.00118596087062
1.45103656149e-06
9.76405642155e-07
1.01049130656e-06
8.94714427388e-07
1.1806976931e-06
2.13539024471e-06
1.78882622678e-06
1.56868367449e-06
0.000253592899198
0.391664353865
0.12686198131
0.80490982122
0.801961575396
0.783590711475
0.708148116576
0.583466943824
0.404485568913
0.167147484472
0.0106308285733
9.17337488073e-06
1.75342401162e-06
1.93086214979e-06
2.01359750828e-06
2.01448308358e-06
2.41956414154e-06
2.77921395357e-06
1.76695794556e-06
1.56856774231e-06
0.00170944977602
0.425811936387
0.108739229227
0.80191771361
0.806503916119
0.740582840122
0.583757426701
0.396408489911
0.191203335973
0.0358444217879
0.000193788339061
4.36576807513e-06
3.89458860513e-06
4.758373752e-06
4.99938427766e-06
5.11533649034e-06
4.6038928972e-06
3.90096622652e-06
6.53300324501e-06
6.66568505117e-05
0.0196246961892
0.425607772185
0.108799233967
0.807140503248
0.80191771361
0.660348808775
0.409758141565
0.208466393087
0.0560361606965
0.00273749871322
8.33552863996e-06
5.96019596651e-06
9.26624787704e-06
1.18123907043e-05
1.27237937256e-05
1.01857774093e-05
7.85971943358e-06
4.80330861373e-05
0.000724021372239
0.0103554204119
0.151192402015
0.367499956175
0.108694959619
0.801894263688
0.805884269929
0.58054348075
0.222465844437
0.0733464844458
0.00811292656403
6.26927834339e-05
9.46916883068e-06
9.9218179849e-06
1.54804621769e-05
2.18256589038e-05
1.96705140813e-05
1.43443578315e-05
7.19778760764e-05
0.00671145688321
0.106559837543
0.286214609885
0.314133244953
0.165895884954
0.108755097194
0.806761859559
0.801894263688
0.597310904094
0.197042113043
0.0220574104377
0.000491464685802
1.53496386672e-05
1.26005804061e-05
1.45346430907e-05
2.15722685287e-05
2.25259393653e-05
1.96983465427e-05
0.00086593285586
0.0477934472054
0.439534551877
0.639552957752
0.668326686495
0.465901270205
0.118537910812
0.108676061474
0.801734834399
0.803432179791
0.668972896349
0.28963523768
0.0438507939675
0.00165980361869
2.12934669571e-05
1.58105221278e-05
1.88757137767e-05
2.41444528617e-05
2.25344027314e-05
6.37393876887e-05
0.0874263600625
0.65687253397
0.671953522367
0.674742122341
0.671953522367
0.666193101661
0.187344909468
0.108723944512
0.805113510929
0.801734834399
0.741865958248
0.478725665881
0.162923198059
0.025033802258
0.00164894549663
5.13573648947e-05
3.03716092864e-05
2.61914337407e-05
2.25428660976e-05
0.00349269953896
0.430661987694
0.671953522367
0.672950735682
0.672077649421
0.674742122341
0.671953522367
0.267452182711
0.108715405118
0.801635871429
0.802964800147
0.780242919081
0.64383815549
0.361897590056
0.120417270556
0.0221465297746
0.00217125858408
0.000152066455856
2.74123750949e-05
2.63554192852e-05
0.0311982215788
0.536578341882
0.672887144222
0.669991411665
0.673669202262
0.671953522367
0.674184587735
0.315065792834
0.10876669618
0.80346975024
0.801635871429
0.791986674532
0.717532751033
0.519643687935
0.265135638272
0.0877706064182
0.0184474939385
0.0024517130126
0.000150894435261
0.000146641606654
0.0864532189115
0.576177145988
0.641238906758
0.629628329037
0.671953522367
0.674141528846
0.671889918484
0.352073105258
0.108758507524
0.801455100216
0.801837174493
0.791907011763
0.726064366645
0.57420383508
0.364052500553
0.171508825607
0.0599315713074
0.0152057783016
0.00155624256891
0.00145439427346
0.183213987817
0.608002049095
0.61341030805
0.591508991633
0.653810981032
0.671889918484
0.674112860661
0.384501512543
0.108809409592
0.801848954358
0.799553665638
0.782223352852
0.71551030949
0.569504775974
0.373845089501
0.205610412277
0.0961440423489
0.0315598029064
0.00435731519808
0.0124074601556
0.37465281097
0.61004373376
0.589147030433
0.557389225958
0.620783568561
0.673021794879
0.671740495541
0.427208074575
0.108799929108
0.781617884621
0.77045276717
0.741246872598
0.671244715103
0.535345300958
0.356318217817
0.200057418905
0.0962905307498
0.0292825228911
0.0103308556175
0.126106150712
0.567596842012
0.610212172283
0.558561725734
0.522050575755
0.58724424304
0.671740495541
0.673323899254
0.494233151861
0.108849055394
0.709206487603
0.688399260807
0.648456976007
0.574344663641
0.451040938468
0.298995676349
0.168651407851
0.0785207864083
0.0285288299822
0.0644295273493
0.468597267197
0.58466942827
0.57867101991
0.519466741711
0.479770476041
0.534369796716
0.672054478386
0.671639256885
0.583328903121
0.108836681213
0.582135236225
0.562162729654
0.520592829859
0.445965990932
0.336388982836
0.216073524665
0.12484114588
0.0773042219398
0.0894323298032
0.394267359125
0.593166018171
0.585325707235
0.54148788131
0.485074938026
0.430230814944
0.43682295221
0.665795169182
0.664981191688
0.650601836506
0.166251639114
0.466177337491
0.466411140481
0.440608963335
0.379433120551
0.290413729277
0.20046454965
0.15749170849
0.195377329147
0.41803147924
0.59645454576
0.593779089354
0.556591575331
0.510800143272
0.463273275639
0.391036754626
0.343671063966
0.630225208932
0.65616697183
0.670788154441
0.321298219695
)
;

boundaryField
{
    emptyPatch
    {
        type            empty;
    }
    minY
    {
        type            fixedValue;
        value           nonuniform List<scalar> 0();
    }
    maxY
    {
        type            inletOutlet;
        phi             phi.gas;
        inletValue      uniform 1;
        value           nonuniform List<scalar> 
40
(
0.610755885863
0.658283099244
0.661630353687
0.641475003935
0.596136433811
0.562933581041
0.537733417868
0.510626540739
0.477416553544
0.458033694266
0.432286676454
0.417513293119
0.417819153119
0.423777710857
0.425052821943
0.418195238623
0.411766854477
0.414163484914
0.424886797539
0.44555550416
0.466177337491
0.466411140481
0.440608963335
0.379433120551
0.290413729277
0.20046454965
0.15749170849
0.195377329147
0.41803147924
0.59645454576
0.593779089354
0.556591575331
0.510800143272
0.463273275639
0.391036754626
0.343671063966
0.630225208932
0.65616697183
0.670788154441
0.321298219695
)
;
    }
    water_to_cooler
    {
        type            zeroGradient;
    }
    water_to_heater
    {
        type            zeroGradient;
    }
    procBoundary0to1
    {
        type            processor;
        value           nonuniform List<scalar> 
41
(
0.640512986675
0.639400698104
0.666767099367
0.716478474955
0.730192568845
0.72457774186
0.690523845222
0.573632496593
0.402253801159
0.311331718225
0.277117950638
0.290029747325
0.314241344362
0.321994899465
0.315354141296
0.299529473054
0.283903193151
0.286147482812
0.293769687959
0.309881286819
0.506074569211
0.506511870769
0.235435025906
0.0188821945875
0.000817188025368
0.000809786418438
0.000806214248644
0.000812709358664
0.000807188752483
0.000815543656007
0.00383439095891
0.173575648932
0.24604851356
0.1959403458
0.0711073662984
0.00334085872215
0.357855879518
0.450408193598
0.506046823706
0.505805686577
0.505805686577
)
;
    }
}


// ************************************************************************* //
