/*--------------------------------*- C++ -*----------------------------------*\
| =========                 |                                                 |
| \\      /  F ield         | OpenFOAM: The Open Source CFD Toolbox           |
|  \\    /   O peration     | Version:  2312                                  |
|   \\  /    A nd           | Website:  www.openfoam.com                      |
|    \\/     M anipulation  |                                                 |
\*---------------------------------------------------------------------------*/
FoamFile
{
    version     2.0;
    format      ascii;
    arch        "LSB;label=32;scalar=64";
    class       volScalarField;
    location    "0.595/water";
    object      epsilonm;
}
// * * * * * * * * * * * * * * * * * * * * * * * * * * * * * * * * * * * * * //

dimensions      [0 2 -3 0 0 0 0];

internalField   nonuniform List<scalar> 
6000
(
17.1914313765
2.72373221356
0.349520696356
0.0411206295538
0.00549524136031
0.000839136798217
0.000217181741052
0.000100080102182
6.72608400284e-05
5.54880451909e-05
5.05534997415e-05
4.82670874335e-05
4.71187972604e-05
4.64936969742e-05
4.61254006428e-05
4.58939367121e-05
4.57425226779e-05
4.5642117386e-05
4.55764400391e-05
4.55357105938e-05
551.122860662
106.440837357
18.0525166565
2.65836024467
0.327849059302
0.0386478210695
0.00543506457911
0.000882414259294
0.000218754754696
9.85008341577e-05
6.65367792044e-05
5.51947224254e-05
5.04442802946e-05
4.82402193158e-05
4.71238456679e-05
4.65037186786e-05
4.61274993047e-05
4.58842258583e-05
4.57227974143e-05
4.56178034366e-05
778.977605999
182.571590043
40.9458690869
8.36561258035
1.41932333319
0.192396478968
0.0244136843856
0.00370601056351
0.00068570652865
0.00020037553693
9.84586734394e-05
6.80214621434e-05
5.63782479851e-05
5.12520401857e-05
4.87907278222e-05
4.75150282811e-05
4.67947881771e-05
4.6351958684e-05
4.60629790603e-05
4.58719999075e-05
992.807130234
247.154486559
61.6531762109
15.0368317831
3.29979426925
0.58457354156
0.0813639181559
0.0110913538546
0.00180871245576
0.000402750651175
0.000151302740072
8.72856907579e-05
6.49739623925e-05
5.55468301486e-05
5.11161637705e-05
4.88838569473e-05
4.76797707486e-05
4.69764956729e-05
4.65333891567e-05
4.62422185107e-05
1079.04861707
284.416414647
76.1527719058
20.551528992
5.28856165297
1.18693736764
0.206571275752
0.0288746097118
0.00426302562593
0.000781482795182
0.000233055736031
0.000113682016569
7.61424957406e-05
6.10285389732e-05
5.40460714556e-05
5.05631317157e-05
4.87234654986e-05
4.76873443935e-05
4.70591880989e-05
4.66552232259e-05
1054.32723504
295.086220324
84.6823992804
24.7303740849
7.07914822199
1.86268029342
0.406861277059
0.0670120260385
0.00962585733562
0.00150978089706
0.000360195595526
0.000148890676993
8.9938660454e-05
6.75961422462e-05
5.75089806626e-05
5.25094154996e-05
4.98882930544e-05
4.84416247725e-05
4.75919752672e-05
4.70610366721e-05
989.545592825
289.496498558
87.8888530659
27.3235703048
8.42051421495
2.46634128592
0.637201592169
0.130359348467
0.0207994552936
0.0029984565678
0.000567892744671
0.000196370083642
0.000106700049279
7.52022494427e-05
6.14378124076e-05
5.46829784476e-05
5.11528841811e-05
4.92229322943e-05
4.81138524038e-05
4.74400449324e-05
952.884392819
284.912171813
89.3940076941
28.8539721886
9.29909962239
2.917517581
0.856406663363
0.215100657008
0.0422465498483
0.00637663882224
0.000950374202282
0.000264458987356
0.000127471796613
8.39597494125e-05
6.58118598793e-05
5.70625402796e-05
5.25116876098e-05
5.00336718478e-05
4.86296287167e-05
4.77969362691e-05
940.335065518
286.176560708
91.0724524639
29.8277917956
9.83159124834
3.24167823401
1.05093245899
0.315460356468
0.0803741608009
0.0150492191514
0.00186930022727
0.000380547702521
0.000155731542461
9.44860031773e-05
7.07585749347e-05
5.96843417541e-05
5.39890055688e-05
5.09012438075e-05
4.91634149158e-05
4.81494941788e-05
970.97610828
296.935343644
93.8594348156
30.5234013421
10.1690210455
3.49446367205
1.23109172404
0.428794300188
0.138089138293
0.0361466518631
0.00499193104667
0.000664496893519
0.000204709435152
0.000108985712151
7.67829796974e-05
6.27035950015e-05
5.56533899847e-05
5.18659305792e-05
4.97455093059e-05
4.85215522254e-05
1089.97546709
323.332329009
98.5538001467
31.5186816368
10.6545936141
3.8078465372
1.43755043919
0.559171475986
0.217314535744
0.0777486302293
0.0164769070189
0.00164078281927
0.000313162245353
0.000132246568896
8.4780557582e-05
6.6357862478e-05
5.75951096308e-05
5.29764819328e-05
5.04079356437e-05
4.89356016932e-05
1276.8120483
352.982615817
104.593082922
33.4684235802
11.5348090848
4.25812438873
1.68299058851
0.71038501326
0.31463539652
0.142130627158
0.0478543130292
0.00591957650338
0.0006229237554
0.000176819506019
9.66202398487e-05
7.10719876691e-05
5.99476660693e-05
5.42869290903e-05
5.11777608947e-05
4.94069309472e-05
1309.07851516
364.790163036
109.090090956
35.3189750498
12.3996656529
4.70709570395
1.93256261258
0.866044829944
0.419544828117
0.220793172018
0.105312888775
0.0223441392382
0.00176808741352
0.000278532713581
0.000116019171488
7.75242081248e-05
6.28918394755e-05
5.58555380261e-05
5.20746888851e-05
4.99421767618e-05
1315.10345767
368.608686863
110.87237168
36.2801217098
12.9534172556
5.04506508339
2.14456903422
1.00337827092
0.519907610069
0.301387963536
0.180143561165
0.0625595117818
0.00614064925676
0.000540476532725
0.00014973957228
8.66841847103e-05
6.66772900073e-05
5.77587573142e-05
5.31196128726e-05
5.05457721083e-05
1314.59208739
369.095910388
111.452093452
36.7075353239
13.2534044255
5.26013934869
2.30052120108
1.11569744419
0.605783897117
0.375144576553
0.25601172726
0.124093287617
0.0192965490181
0.00125714570127
0.000210930636477
0.000100066522421
7.1706261205e-05
6.01216034236e-05
5.43509427183e-05
5.12310244891e-05
1310.16797156
369.723970354
111.920637672
36.9220186328
13.3978037749
5.38624078301
2.40876919006
1.20255519798
0.674230208694
0.439394834668
0.323282954899
0.19177010092
0.0476562175807
0.00288742558982
0.000318824572219
0.000120516398528
7.86844198134e-05
6.31483744201e-05
5.58383476515e-05
5.20287333498e-05
1325.0498356
373.438836709
113.00524702
37.2438680418
13.5357503494
5.48167147741
2.4886546237
1.26879791395
0.730006854682
0.494685914477
0.382068896058
0.254435664817
0.0900877875786
0.00702018683652
0.000542498682071
0.000155645362029
8.89168243005e-05
6.71608123808e-05
5.76921250279e-05
5.29903355441e-05
1361.20569293
382.598028608
115.503116254
38.004034856
13.7922408951
5.58634624316
2.54741613656
1.31451536584
0.776712648323
0.545775555738
0.437355107235
0.311846132356
0.140685359721
0.0193804326335
0.00111585447495
0.000221973247904
0.000104656721658
7.26480537943e-05
6.00695790042e-05
5.41860259411e-05
1423.17167224
397.613153829
119.587128719
39.3068644385
14.2152053473
5.71543993613
2.58943325159
1.34579893115
0.81950221967
0.596360793263
0.495648031344
0.371343898333
0.197897611023
0.0449267839854
0.00285026886672
0.000365465166037
0.000130689943486
8.04206427509e-05
6.31857479926e-05
5.56993573089e-05
1477.81053459
412.187232962
124.274862657
41.0167536037
14.7949001012
5.86682575626
2.61876213758
1.36659436293
0.855758363011
0.640285696355
0.543086471663
0.440995307571
0.268370063307
0.0894164410432
0.00920095331885
0.000727087391724
0.000177614776999
9.18561524109e-05
6.73310403303e-05
5.76224958938e-05
1462.83123962
416.273150565
128.698951884
43.2005035947
15.5005536034
5.98003875936
2.60157408384
1.36051380237
0.871307603426
0.66124758253
0.566806844613
0.50026310839
0.359049061277
0.162328472042
0.0293823473202
0.00177495297979
0.000270769671515
0.000109421550981
7.29100033776e-05
6.00579399732e-05
1397.59328123
418.576168294
134.748802121
45.6916726555
15.9844230734
5.90410789438
2.5150717628
1.33431976809
0.862088440451
0.650120049962
0.55738582254
0.510283496178
0.432236472359
0.259217450713
0.0763940923979
0.00546865734645
0.000480912644016
0.000137984507851
8.05369134952e-05
6.31343168284e-05
1434.37316802
443.092912665
144.252958529
47.8605989057
16.0826777909
5.7857238558
2.49347441051
1.32088965916
0.838713335046
0.619965695475
0.52486240567
0.486642573314
0.436671986962
0.337161439019
0.149683009679
0.0181895883076
0.000997642066446
0.000186807926275
9.11366034924e-05
6.70254478901e-05
1569.881697
487.952371499
154.738840741
49.6333251701
16.4762179932
5.9967469091
2.59039819564
1.34222403356
0.823631769271
0.592396545998
0.492419727874
0.452292562358
0.419924692254
0.352823410076
0.220151372894
0.0485745571741
0.00234715184093
0.000274115697266
0.00010608439856
7.19550082332e-05
1796.79859361
539.888820468
164.393954581
51.9328207836
17.6211948183
6.59480190001
2.82165284339
1.41436161044
0.833931962578
0.584445514047
0.475840546417
0.425844622404
0.400697927117
0.353091601742
0.266062087743
0.0941251557187
0.00592419202825
0.000437474868132
0.000127654490427
7.82396574411e-05
2066.41204692
588.865361873
173.850190495
55.0717704891
19.1666034685
7.35974154915
3.15203461041
1.53731391802
0.877168429763
0.602541760699
0.478472368515
0.414254375098
0.387835303409
0.355593652392
0.293266667441
0.143178503351
0.014695951135
0.000760170938292
0.000160176050272
8.63949262875e-05
2327.98819976
630.260975935
183.19077917
58.4227853013
20.676371328
8.07410858823
3.47537736683
1.67557671685
0.94283793973
0.638642694965
0.495424692542
0.419050405566
0.386973247513
0.367240952624
0.320488607975
0.191637882385
0.0332456452324
0.00143645229581
0.000211950278415
9.72627517434e-05
2445.19825115
654.138846269
189.941301465
60.9121836688
21.7877277573
8.61498764421
3.73636294007
1.80440792132
1.01835910016
0.683024560133
0.521357620584
0.43763170657
0.401539184932
0.391437191723
0.358560461244
0.24477577457
0.0652894761414
0.00298216111995
0.000301187210665
0.000112383440604
2508.33344298
669.40914323
194.384487104
62.5059450553
22.498520709
8.98658373152
3.93745659824
1.9243370401
1.09787856755
0.730469815312
0.553342139398
0.466330879181
0.430053951069
0.430606506111
0.412914058383
0.307731359223
0.111947999892
0.00706063271964
0.000474321418541
0.000134804973134
2550.69361238
680.056280225
197.251476937
63.3770701246
22.9053727272
9.23182631831
4.09390636067
2.03431183963
1.17278433458
0.775847040053
0.588703960452
0.502252419876
0.469287116742
0.48309612994
0.478876410659
0.378505167633
0.172694952036
0.0181676362755
0.000839781977307
0.000169838789001
2602.10851537
691.238045268
200.185790775
64.2605232547
23.2707579281
9.42809729446
4.2195183811
2.12836858608
1.23381400242
0.81491796684
0.624813637765
0.543027921364
0.516173661542
0.541054068862
0.540985192937
0.435894378136
0.243549322567
0.0429446976987
0.00164435409605
0.0002265621194
2651.66392192
703.961107554
203.852683197
65.4670140612
23.7114263473
9.61357076969
4.32321712064
2.20288018425
1.27642366283
0.845930687809
0.659960448979
0.586663883926
0.567396836045
0.59737225002
0.59171430717
0.488638700392
0.314786773184
0.0835313032578
0.00354905676352
0.000324435830974
2738.5173644
719.08558356
207.775125413
66.6881900698
24.1301308271
9.76456804221
4.40125468382
2.25102675083
1.29903049957
0.868871716374
0.692863348311
0.630908908554
0.619730771848
0.646652761007
0.63136364193
0.536051691759
0.37757901909
0.134589020528
0.00834704526464
0.000506158894236
2827.16494195
739.845035718
212.700852373
68.098975953
24.5671489408
9.90129932714
4.46168894664
2.27096062921
1.30491274203
0.884599795811
0.72139330754
0.671597953771
0.667335537244
0.681710728519
0.66028442695
0.578259077656
0.425409695601
0.189891465418
0.0196169411104
0.000852538431735
2925.26562251
760.267355983
217.717679542
69.5069271597
24.9766650566
10.0217229721
4.49826269385
2.26170959561
1.29756421957
0.892774535315
0.741148691939
0.701157216101
0.699262961926
0.696644351358
0.679565523885
0.61866388373
0.474304759274
0.249862885542
0.0413655704784
0.00152515113873
2989.63615877
777.981248046
222.510339583
70.9163770292
25.3766222619
10.1329470199
4.50259783352
2.23051700577
1.2808395346
0.891090628837
0.745656794569
0.709027112776
0.701141174109
0.6919269334
0.69182310308
0.664736463678
0.541533355284
0.320472439251
0.0761161393205
0.00294743487433
3060.82617707
792.036448076
226.678747359
72.2826671813
25.8064619487
10.2474288675
4.48588138207
2.19038938508
1.25526246704
0.874279692806
0.728353902616
0.68767766668
0.67499988727
0.675385058285
0.702605056481
0.724165863705
0.63402767887
0.407519343423
0.124798963267
0.0062753432633
3107.73798922
802.257165171
230.169587123
73.6577267691
26.3168873693
10.3732763354
4.45458238706
2.1330425559
1.2087990453
0.833583116748
0.688484830185
0.649296015814
0.645668708717
0.660257115206
0.720695428743
0.79655390634
0.741890106325
0.510410389933
0.186171902429
0.0140835322964
3139.57816871
808.189587772
232.888004905
75.1040216596
26.9122882626
10.4888176233
4.36176218479
2.01848253111
1.12650347689
0.775421200798
0.64430782362
0.616383301239
0.629199301024
0.655562200031
0.747654177656
0.870989510937
0.845699996288
0.592850314527
0.256739926113
0.0301452225798
3068.59409799
795.900657607
231.956655972
75.80340853
27.3266259335
10.3769467334
4.08603814997
1.84150374692
1.03797569298
0.725717254511
0.610941747149
0.590852276022
0.616087669147
0.659867861775
0.778480428681
0.938576867175
0.939271478756
0.679928772145
0.330719201511
0.0573233014229
2893.31701753
757.992967175
225.854205501
75.7312702392
27.3275965636
9.80137770892
3.67500832564
1.67906139592
0.970296129065
0.690315976158
0.584900213432
0.573206649125
0.609535058764
0.667945810524
0.808678699504
1.00060239426
1.02266661253
0.774809445518
0.401429031479
0.0957164918366
2586.26651814
695.2623073
216.528576405
75.5257261936
26.4344483352
8.8399268853
3.28938892203
1.55391947528
0.919036315154
0.662485432628
0.564666435676
0.558836528916
0.603925852883
0.675266535502
0.830723475916
1.0504161337
1.08592645826
0.866720718597
0.472659165186
0.144023102042
2128.86621738
632.746926714
212.950181463
75.6662745277
24.6368587951
7.93629645833
2.99789723347
1.45424272745
0.877805327055
0.634469855633
0.543008401747
0.535772077558
0.583579484375
0.663524204317
0.824814551314
1.06289566727
1.10801620583
0.93043434599
0.533750030323
0.200721649976
1794.48874039
631.583723993
227.486014111
77.9726545042
24.0197907439
7.47909567817
2.8400677078
1.39638245272
0.839274638911
0.602391050044
0.50850248268
0.491862188009
0.531578048374
0.611764415349
0.763981447432
0.999776797389
1.06091730076
0.937909121726
0.582749426183
0.260739253085
2079.74508436
790.018401374
282.315838278
89.6452064641
26.1280766557
8.06425633845
3.03491923818
1.43438740552
0.825214758863
0.569742820633
0.460690560047
0.42592448495
0.446223245638
0.513156771147
0.639191114814
0.840697964774
0.924803290514
0.873136902201
0.613181905825
0.316120413829
3484.84093011
1239.84259266
388.945460303
116.19914132
34.9228903956
11.1846579544
4.04865172764
1.73372152926
0.898490373686
0.564883202492
0.420636059925
0.358723004329
0.35075932918
0.391472234406
0.481601137004
0.62412461929
0.720980713588
0.747609214623
0.604390730285
0.347168439617
7130.16904822
1940.46540133
542.535262102
168.623123281
55.5363909193
18.7665819364
6.59433759854
2.53937384202
1.14614935333
0.628959329176
0.416726013383
0.319302729768
0.27912351583
0.287759094444
0.340230068087
0.426722398525
0.516906642338
0.601116813182
0.563714081563
0.355438048344
9974.28913777
2459.60940228
760.563277254
256.817460197
88.0336051026
30.5481525295
10.6882027918
3.93973506803
1.62301658746
0.789773510917
0.464872326794
0.320153892886
0.248837665448
0.225595604233
0.243759807156
0.293406213667
0.369516758347
0.477886650927
0.514292438056
0.361432714086
8882.95339231
2462.42393338
815.397943812
301.530926654
116.972329763
44.0827300744
15.1192770177
5.56945349012
2.25971356885
1.03927998692
0.563099258865
0.356969194987
0.25401291523
0.203565123495
0.196180635172
0.219253541334
0.286323730249
0.398987423798
0.475790862639
0.370609323475
7594.44001685
2188.51877301
743.474929995
285.522323205
117.932077906
49.5500701426
18.8019623247
7.12192908401
2.91460817739
1.33036030921
0.694248803625
0.418552954409
0.281494047472
0.209115823398
0.182660697437
0.188778459111
0.24596757102
0.362895656443
0.457777999401
0.388161386675
6737.83110881
1923.99859597
648.36032712
252.017405661
108.164547029
48.4556244765
19.7980152835
8.04454780253
3.44460139123
1.60336465663
0.83456796036
0.491706281212
0.320517817336
0.230254108883
0.189489790478
0.185216689552
0.236754112603
0.35947215238
0.462194062243
0.419279182775
6296.60077219
1732.26008385
560.213936775
214.107493263
92.73330723
42.5350674179
18.4363898036
8.05485557667
3.65805936242
1.77342808474
0.944807231687
0.557420293198
0.360625433444
0.257661227031
0.208290612936
0.198746509844
0.248233291014
0.379332599633
0.486575173397
0.467283614663
6316.86352228
1618.57075354
489.706049069
179.001399683
76.0934440555
34.7620130209
16.1845075284
7.56879856779
3.6313073121
1.83907824882
1.01050232998
0.604792221521
0.394855283448
0.286014728658
0.233486816563
0.224061743883
0.276349782745
0.415091933347
0.526492341374
0.528349688733
6910.6628666
1624.44296582
460.63652054
161.720742343
65.7259381361
30.4799864509
14.5794798075
7.07080705418
3.5171987093
1.84518888647
1.04097248659
0.63254904177
0.421792973904
0.314430321239
0.263012144657
0.257931619468
0.318251478165
0.46054953101
0.575735493535
0.597376490786
8096.95019807
1763.67854585
480.104704424
162.041582224
65.8373573493
29.6984346713
14.0420055653
6.81942914409
3.43317774981
1.83186196373
1.04481296517
0.64278535753
0.443494656344
0.344419585663
0.297726995746
0.298820049797
0.369505556825
0.508609080461
0.631228691581
0.674184872499
9730.83058692
2034.76329065
546.363298077
185.062655522
72.9106808711
31.5352428271
14.3928171308
6.8325096095
3.40679236642
1.80357389637
1.0202837557
0.64037735193
0.46420869155
0.377978263389
0.33808189316
0.346120440531
0.423603117615
0.555491193052
0.693756801968
0.761985856542
11937.0132248
2403.60920213
657.804775996
219.114819232
83.151680533
34.4439090681
15.1080022607
6.95032384169
3.36372279148
1.72365890147
0.967266300859
0.633672510241
0.488210576588
0.416064293132
0.382827241103
0.397119274814
0.473987613061
0.601023950515
0.763687099925
0.862102862703
14136.1758853
2794.8468714
768.429932494
249.828662007
91.8217844042
36.7566303809
15.5888139075
6.89667088187
3.17334483223
1.56956147988
0.900401914653
0.631060317836
0.517395478915
0.457378802541
0.428852244344
0.446862459071
0.51631892383
0.64418545208
0.837202168631
0.969643325238
14175.0651436
2953.01398808
825.499295577
266.458750279
96.0985689736
37.5288746491
15.3470247163
6.4125186097
2.79680269026
1.3807176628
0.840918434705
0.637480742251
0.550237540643
0.498720190719
0.471907301783
0.48766183277
0.549925265745
0.681325578026
0.907025771357
1.07911219728
13055.9781763
2828.3726591
812.736854308
263.48607903
94.1081067469
35.7952535429
13.9008376389
5.49163471418
2.35376276801
1.21239885982
0.802144047057
0.651307627609
0.582336271809
0.535758727568
0.50823186378
0.514684212755
0.568218134714
0.708208354707
0.963108805963
1.18634125782
11358.1635992
2549.85953077
744.106701244
241.30053556
84.8883521471
31.115926175
11.6040679837
4.50637900984
1.98140950292
1.09599779342
0.7833105688
0.665278335202
0.607174514916
0.564556316705
0.535392568892
0.527884505395
0.567295505907
0.720086319998
0.98869710062
1.27402279776
9225.55019888
2114.53902873
619.198771329
201.706142365
70.2192935246
25.505909218
9.51044071892
3.75695291672
1.73774476061
1.03046409641
0.772845296529
0.669165708975
0.61701275194
0.579754594977
0.552400897424
0.530634185171
0.550045690408
0.695666611917
0.964923719757
1.30824458062
6722.82863477
1599.01242092
484.135241242
161.919370054
57.7641831469
21.4508671569
8.13704686358
3.31607961141
1.61526209478
0.997271130167
0.755916205508
0.652578068219
0.602624778279
0.573471379092
0.549970115475
0.52206479088
0.521990887745
0.623029609174
0.885539783305
1.25077650533
4696.82668162
1243.41137145
399.347812108
139.856164702
51.7110384318
19.562199953
7.59152257224
3.18097998246
1.57903089959
0.971379587159
0.720336113264
0.607796409399
0.556150528988
0.534053893401
0.515346470491
0.491334249757
0.481574115806
0.530151355723
0.74587527422
1.0896954119
3589.05037758
1109.19817821
381.583167894
139.600341146
53.158523126
20.2823201775
7.82531344574
3.26384560448
1.5994490147
0.950882838781
0.67111829333
0.541251205283
0.480526085692
0.455054106922
0.443839405503
0.429238207972
0.418670685768
0.436748907537
0.55618967554
0.862601228057
3708.35195576
1256.51888228
443.32130214
163.500101501
61.2063218029
22.9738153033
8.79903886445
3.65018389037
1.74754681237
0.981767668491
0.640269497047
0.476912099199
0.396306759971
0.360166976668
0.348684924992
0.34290374782
0.336896400702
0.343730339666
0.400148496762
0.622800061083
4610.0447585
1577.98583505
531.737023249
189.086416064
70.3418499089
27.0353834284
10.7382113883
4.56490564671
2.15663152957
1.14170562941
0.675377901319
0.45135300702
0.339563871021
0.284068517362
0.261886669526
0.256691732793
0.255442296082
0.260516578839
0.290493214827
0.409987208125
5114.65104312
1712.50363452
604.209156812
222.241005868
84.210033569
34.3515030744
14.48537334
6.40605188285
3.00711339035
1.51403973205
0.82562956586
0.496485516569
0.334625510995
0.250890883644
0.210161330009
0.196198166602
0.194672620666
0.20027544878
0.219583247598
0.284144370319
4331.9744671
1496.06441991
572.801773572
236.871127683
104.434162855
48.6943979025
22.0907906021
9.78608963843
4.51033223427
2.18615552747
1.12570544701
0.629266401412
0.388193491096
0.263298204505
0.198520121033
0.170386615798
0.162831016004
0.166680842532
0.180888936303
0.219840884852
3545.7961679
1241.2688472
500.955560094
226.538647872
112.0422184
58.9564134265
30.6955273961
14.4487475814
6.73318316166
3.21621538285
1.60550423537
0.859040993586
0.499447398675
0.314455291126
0.218395482077
0.173014457272
0.155838397439
0.154931948225
0.165025835672
0.190650267085
2951.50885825
1017.02042113
420.003895498
201.423025327
108.079823727
61.925038921
35.512776088
18.230477409
8.94545317124
4.37878982077
2.19639324855
1.16103828113
0.655429858444
0.394230718972
0.259360608522
0.194172905143
0.165742082873
0.158159772905
0.163706520099
0.181633744294
2620.83197453
869.246041511
353.093847272
173.468685563
97.8146482531
59.5504079886
36.464202576
20.1380384754
10.477219235
5.34628057191
2.75429059311
1.47324721526
0.828500587652
0.489432346867
0.312762998507
0.22637223986
0.186208421523
0.17120550632
0.171590674535
0.183552144522
2593.47594313
789.883444825
306.510331814
149.311992065
85.708845714
53.9491829249
34.4161209764
20.1722506424
11.0838422538
5.92320472165
3.16388933882
1.73556177418
0.989656246091
0.58707641558
0.372413984796
0.265527312531
0.213894546052
0.191362940106
0.186227643157
0.192577889716
2443.22425562
726.043627391
274.591760697
130.84751742
74.4103230376
47.1081790172
30.6114111839
18.7182502018
10.8006649052
6.03721090349
3.35262378954
1.89953091856
1.11151293933
0.673001131013
0.431654973291
0.308385539824
0.246860422116
0.21737408828
0.206696928272
0.2074896739
2231.86658249
668.865183832
251.379846261
116.569418091
64.3566789877
40.0400110303
26.0295372656
16.3463104844
9.83148959285
5.72742373158
3.30690230967
1.9434698443
1.17710977186
0.735383674654
0.483675175166
0.351576641433
0.28347091155
0.248388835735
0.232542275477
0.227810269371
2275.56100022
645.358464607
233.730541414
103.088959846
54.4866554755
32.9082830332
21.202129512
13.6047843588
8.46221379055
5.11750167302
3.07293476474
1.88129819209
1.18651146945
0.769648132136
0.524154093717
0.392395426291
0.322165093614
0.283431071529
0.263059630207
0.251443054137
2907.88880755
735.722695918
244.756296893
97.0041915034
46.6669597116
26.7274184415
16.8694692629
10.9236225621
6.97190417925
4.368301138
2.73603482486
1.75403344246
1.1561989496
0.77966323157
0.552609802363
0.429267818393
0.361283736602
0.320880457264
0.296632054448
0.27416586674
3995.71597275
941.481623206
286.858811023
101.348430956
43.0730131917
22.3548626228
13.4521138141
8.65575129912
5.63361352262
3.65842840777
2.40127836158
1.61570856613
1.10918598296
0.77312845911
0.570615221358
0.460462017243
0.397765060859
0.357285002358
0.325098059961
0.293805346668
4925.43853831
1159.29020107
339.449073615
112.708065789
43.5938361622
20.2776668526
11.2954431176
7.06945640258
4.65179858122
3.12976215262
2.15220568152
1.50627799511
1.05843463944
0.756044587847
0.578252986117
0.481248901691
0.424479675526
0.380919338882
0.341929371981
0.309337632051
4975.19854242
1240.03977085
369.976817911
124.065365795
46.6330444265
20.1198983104
10.3315686768
6.20025001791
4.09074897886
2.83298228617
2.0092108748
1.42674805442
1.00614121243
0.730884195619
0.570831146081
0.481048277167
0.425091819505
0.380638413274
0.344694462705
0.314456154099
4185.16418548
1157.8656903
367.541978728
128.942928093
49.1332062779
20.6881276065
10.1199479215
5.88502904825
3.88207551709
2.72818084554
1.94434364048
1.36788045691
0.958261893434
0.694322129937
0.538372177999
0.447570242442
0.393983939884
0.354721914189
0.324359307824
0.300526363824
3336.70401548
1023.46545184
348.338866028
127.818820545
49.9850512645
21.2054972096
10.3082822239
5.96222401972
3.93810237752
2.76850116057
1.95057888723
1.3419554484
0.913266609234
0.641887388783
0.483289472335
0.391329860677
0.339676423507
0.304154956888
0.280183730239
0.265054328892
3010.81207955
981.036278696
347.677322962
131.232072449
52.4078521971
22.5897622246
11.1175959206
6.46340269413
4.26650446566
2.96676532631
2.02576213067
1.3311831945
0.867479592254
0.59003564303
0.429095304171
0.334355432229
0.279893598153
0.246041118263
0.226939818747
0.218997594183
3179.58217807
1057.62554949
379.988934792
146.2560281
59.7500809986
26.0685679544
12.7848215544
7.29789466419
4.70597604946
3.17102780428
2.0679442103
1.30651921011
0.830852719884
0.552245983695
0.38971941928
0.292694388561
0.235228920313
0.201452858395
0.184736031356
0.18167435729
3557.80585806
1174.14965724
423.950301025
164.189490259
67.2497276309
29.2275466821
14.0332645761
7.72748717508
4.86359566802
3.23083978121
2.06176273143
1.28528432943
0.810403323619
0.531046198452
0.367992121367
0.270001644105
0.212071409401
0.177803675327
0.161950004451
0.162370081202
3444.53826833
1086.54866161
375.320847257
143.232861528
59.3329896603
26.5175084244
13.2040074211
7.55228394417
4.83133459849
3.22603395106
2.02683019441
1.25763449139
0.791566822135
0.51627590694
0.356304343294
0.261504640636
0.205210513925
0.170594115002
0.155682661448
0.159230382905
2974.62574159
858.705849994
283.086071691
105.432046341
43.947973048
20.7878987481
11.3710984694
7.11135286498
4.76382996724
3.16622007789
1.94083315566
1.20367337108
0.761014709873
0.499373101188
0.348762925401
0.260916455237
0.2077154217
0.174181787625
0.161576016984
0.16874840647
3021.41402866
782.813549994
227.585052917
76.9629998861
31.2015154677
15.7153886802
9.54569561717
6.48735864278
4.49259786604
2.88816754379
1.77103916761
1.11120313544
0.712800955107
0.47706689804
0.342721970553
0.26479748582
0.216134136254
0.185487468302
0.176501872733
0.187438382733
4011.23478426
848.074498299
202.882156763
58.8311065372
22.7196604051
12.0176087036
7.9003229172
5.6525520097
3.89280711718
2.43476647485
1.53828178625
0.988836159697
0.652431314636
0.453265202724
0.340171576333
0.274014457597
0.229813184748
0.203405981679
0.198170447086
0.212195888318
6454.77348508
1171.61669866
243.911520438
59.8634185926
20.0852727618
9.90465698224
6.44944631304
4.6209783375
3.09117317806
1.9849290974
1.29846932496
0.865485311233
0.59708444046
0.437927765782
0.345897607763
0.288936539854
0.248392492606
0.226478628468
0.224120558497
0.238704546489
9328.50088255
1747.09082871
382.417072109
91.0414911216
26.5668799184
10.5275045415
5.73113446454
3.74625533248
2.46350905293
1.62691779538
1.10373467365
0.770075760709
0.562240332433
0.437022656899
0.360376072419
0.307019691609
0.270462060076
0.252749640702
0.250737975651
0.26186873772
10787.3293345
2348.59768602
566.805492478
144.169045916
41.4205454264
14.3753875033
6.30095072075
3.45919983733
2.13312589024
1.41287211533
0.983852044178
0.718009717187
0.553336532861
0.449775019
0.378022369146
0.325845237614
0.294750839078
0.279336734443
0.275263771607
0.279418697167
11149.5582559
2719.43162387
752.992978798
210.387685557
62.0148040029
20.9802137989
8.19009080119
3.81236519827
2.12343168408
1.35060373257
0.942759940903
0.708212530373
0.565111749051
0.467290570094
0.393906850574
0.345319423395
0.318812769326
0.304093027272
0.295219559091
0.289438916093
11149.3664445
2823.4032253
848.378631423
268.076578899
85.1136342445
29.438977511
11.207320848
4.76802377667
2.3836228471
1.41444751775
0.964549736169
0.727701663099
0.584239110483
0.483055686228
0.409849792515
0.36476271613
0.340489026538
0.325805632634
0.310507962842
0.304584017804
11668.5149254
2783.39896897
857.907404805
290.313124092
100.554175294
36.7838919381
14.2838135617
5.90629112697
2.77329666823
1.54835995762
1.01937142103
0.75853138875
0.605692104386
0.50066054493
0.427997109723
0.384318493223
0.36000070837
0.344859512226
0.331679890926
0.336668156821
11761.759262
2743.32905554
838.957194567
290.729518911
106.348526062
40.8849474983
16.3461667713
6.80113995279
3.12532342938
1.68687265631
1.08445380628
0.797556052154
0.6333321498
0.522901552147
0.448831133147
0.40493221039
0.380109140478
0.367577446502
0.365786492418
0.388961226561
11470.0751734
2675.25214261
803.802097479
280.322811796
106.247262038
42.4202790253
17.4238237138
7.35827034217
3.38240006406
1.80950423696
1.15400195661
0.844319878948
0.667653533573
0.549838320552
0.471996714455
0.426831334514
0.403125447158
0.396532490225
0.416572542142
0.465591760851
11456.1691065
2570.16084455
744.397046431
266.442460476
103.845467173
42.5854167217
17.8691861359
7.66925881156
3.55975868649
1.91342288477
1.22443967873
0.896573010843
0.707040693293
0.580155346864
0.497052485365
0.450705019794
0.431084238359
0.435818705658
0.490441515916
0.571695166562
11527.8436861
2583.17038454
748.220489964
261.241199403
101.595239043
42.1555318738
17.9646762149