/*--------------------------------*- C++ -*----------------------------------*\
| =========                 |                                                 |
| \\      /  F ield         | OpenFOAM: The Open Source CFD Toolbox           |
|  \\    /   O peration     | Version:  2312                                  |
|   \\  /    A nd           | Website:  www.openfoam.com                      |
|    \\/     M anipulation  |                                                 |
\*---------------------------------------------------------------------------*/
FoamFile
{
    version     2.0;
    format      ascii;
    arch        "LSB;label=32;scalar=64";
    class       volVectorField;
    location    "0.79/water";
    object      U.gas;
}
// * * * * * * * * * * * * * * * * * * * * * * * * * * * * * * * * * * * * * //

dimensions      [0 1 -1 0 0 0 0];

internalField   nonuniform List<vector> 
6000
(
(0.0644080906961 0.321965357691 0)
(0.108806036116 0.203200522814 0)
(0.103149967303 0.178277007858 0)
(0.113182865263 0.16075792915 0)
(0.111384472989 0.15543058255 0)
(0.11229479205 0.151652034574 0)
(0.101413103685 0.149533158684 0)
(0.0846074814106 0.155973733795 0)
(0.0809716196144 0.239662622458 0)
(0.0792708267351 0.280381614197 0)
(0.0704138302695 0.28340200753 0)
(0.0639074127038 0.28442350001 0)
(0.0576295953393 0.285446458729 0)
(0.0517277809933 0.286433325577 0)
(0.0461001322331 0.287386407916 0)
(0.0406814642481 0.288292821346 0)
(0.0354043215809 0.289137701423 0)
(0.0302014793686 0.289905418568 0)
(0.0250235869294 0.290577375051 0)
(0.0198665047125 0.29113172332 0)
(0.0256515002821 0.663551605215 0)
(0.0710609459755 0.458463940405 0)
(0.0902561693729 0.401508267201 0)
(0.096292233191 0.367792517732 0)
(0.10322473254 0.353697223088 0)
(0.104399121005 0.34576970173 0)
(0.102850563125 0.341590589573 0)
(0.094764800316 0.348961567058 0)
(0.0675608497231 0.460071002536 0)
(0.0340656699104 0.520889612231 0)
(0.0205661994531 0.521835660834 0)
(0.0179202146197 0.521792643025 0)
(0.0157781880819 0.521892648704 0)
(0.0138434980235 0.52205328263 0)
(0.0120468180336 0.522272306522 0)
(0.0103560818243 0.522541206925 0)
(0.00876058276704 0.522847261718 0)
(0.00725438745622 0.52317316027 0)
(0.0058302220787 0.523496431386 0)
(0.00448542296397 0.523791953331 0)
(0.0291449130458 0.757345963017 0)
(0.0673661072519 0.566695417211 0)
(0.0787919236339 0.489434342659 0)
(0.0846352428372 0.450631077185 0)
(0.0896302146091 0.42948948861 0)
(0.091689281924 0.41782872959 0)
(0.0917531569174 0.411133551779 0)
(0.0884663246057 0.410261959714 0)
(0.0752819377822 0.449339743809 0)
(0.0423740039371 0.485373163161 0)
(0.0175630882296 0.486272254425 0)
(0.0146894172963 0.484585327847 0)
(0.0135143146037 0.48308076087 0)
(0.0123396808291 0.481724129153 0)
(0.0111786163172 0.480488490623 0)
(0.00999295667096 0.4793805615 0)
(0.00876156335955 0.478413728014 0)
(0.00748243681753 0.477598085629 0)
(0.00616636099405 0.476938957829 0)
(0.00484508983648 0.476440033678 0)
(0.0404112121878 0.86646946109 0)
(0.0843829329918 0.669918061657 0)
(0.088788677944 0.565642224637 0)
(0.0904022836865 0.513678718017 0)
(0.0906396536179 0.484776032853 0)
(0.0890235399833 0.467007439976 0)
(0.0864422932773 0.455510647007 0)
(0.0825789562556 0.449516998788 0)
(0.0753422972941 0.464244546756 0)
(0.0522598099558 0.487803917893 0)
(0.0221297257227 0.494571445002 0)
(0.010045775802 0.493582415603 0)
(0.00956348884085 0.492486369108 0)
(0.00890876182348 0.491495924747 0)
(0.00822019155479 0.490555553794 0)
(0.00749832103184 0.489659491881 0)
(0.00671802112201 0.488825931829 0)
(0.00586204196923 0.488080227197 0)
(0.00492983846982 0.487446532697 0)
(0.00395222993597 0.486945823103 0)
(0.0478731424529 0.920663252658 0)
(0.098911552498 0.751605070551 0)
(0.101196990318 0.629045599173 0)
(0.0998028819526 0.562175591538 0)
(0.0975256245489 0.524828981514 0)
(0.0932758412726 0.501448743649 0)
(0.0878135635562 0.485625398176 0)
(0.0816157296468 0.475287813986 0)
(0.0742445018383 0.476874730157 0)
(0.0608824768274 0.487158285428 0)
(0.0305010065343 0.493491312781 0)
(0.00829085479912 0.493396105758 0)
(0.00706976705546 0.492424079911 0)
(0.00666060726314 0.49158257087 0)
(0.0061885585938 0.490793117407 0)
(0.00569072337086 0.490028265043 0)
(0.0051546582865 0.489293835201 0)
(0.00455890128752 0.488612205192 0)
(0.00389295896482 0.488011777817 0)
(0.00317923180862 0.487521105733 0)
(0.0527753317837 0.946731971714 0)
(0.108253566843 0.808052552612 0)
(0.10912870069 0.685860607843 0)
(0.106159571543 0.604149886261 0)
(0.103316502054 0.557523836274 0)
(0.098981583494 0.528302756245 0)
(0.092704780835 0.508316683972 0)
(0.0848246697989 0.49428408844 0)
(0.0760168765581 0.48845774898 0)
(0.065415718036 0.49029935281 0)
(0.0405228696181 0.493551498135 0)
(0.0135255591489 0.494102270305 0)
(0.00535745816871 0.493415516092 0)
(0.00517940678965 0.492706247868 0)
(0.00486300230935 0.492069793117 0)
(0.0045030633171 0.491462374399 0)
(0.00410744092059 0.490874757796 0)
(0.00366280604646 0.490318983652 0)
(0.00315832528036 0.489818313255 0)
(0.0026120178791 0.489399786361 0)
(0.0537479598982 0.956062815721 0)
(0.109937767596 0.842020723339 0)
(0.110845828816 0.73166392666 0)
(0.107635829183 0.643432189526 0)
(0.104691023821 0.586166765816 0)
(0.101657700709 0.550806199212 0)
(0.0968256893391 0.526642804034 0)
(0.0894001382464 0.509179814977 0)
(0.0800587483339 0.498407916663 0)
(0.0694546659886 0.494353100642 0)
(0.0529715116005 0.494060915918 0)
(0.023210384738 0.493716502461 0)
(0.00435503920322 0.49387238027 0)
(0.00434394383256 0.493265645084 0)
(0.00417919866106 0.492772687076 0)
(0.00392807388082 0.492318297406 0)
(0.00361976152685 0.491880337294 0)
(0.00325457805036 0.491460681419 0)
(0.00282781595095 0.491075663656 0)
(0.00236040408357 0.490748273756 0)
(0.0521303431026 0.96178351634 0)
(0.106581614415 0.862011255148 0)
(0.108027275784 0.764433682092 0)
(0.105533216118 0.679340789109 0)
(0.102989256537 0.613738382872 0)
(0.101272813893 0.571333033216 0)
(0.098638435845 0.542935862344 0)
(0.0932049365697 0.522039488414 0)
(0.0846982910618 0.507326190954 0)
(0.0743157285908 0.498916186319 0)
(0.0617476289838 0.49535561634 0)
(0.0346985606724 0.49372661921 0)
(0.00951486096995 0.493851407835 0)
(0.0043056987856 0.493590807794 0)
(0.00425608760135 0.493299233538 0)
(0.0040493057709 0.493037854588 0)
(0.00375167609801 0.492777342594 0)
(0.00338026606573 0.492513535212 0)
(0.00294059265953 0.492258161708 0)
(0.00245943043741 0.492032341264 0)
(0.0523702009511 0.96588081415 0)
(0.107842924558 0.873891580713 0)
(0.109003697649 0.787849605657 0)
(0.105431026683 0.709582489119 0)
(0.102638182421 0.642322230057 0)
(0.101149986916 0.592500333965 0)
(0.100021631303 0.559365582395 0)
(0.0966592231933 0.534779736335 0)
(0.0896761120056 0.516322613622 0)
(0.0799493143591 0.504135656517 0)
(0.068603675505 0.497608670982 0)
(0.0511071300624 0.494818814408 0)
(0.0224965026368 0.492961225004 0)
(0.00545713090433 0.493852939539 0)
(0.00542701895913 0.493818829805 0)
(0.00507326572512 0.493779988526 0)
(0.00461971367575 0.493711365905 0)
(0.00409429295837 0.493606470486 0)
(0.00351174439746 0.493476145741 0)
(0.00289897114768 0.493340217848 0)
(0.0519396841129 0.966150246832 0)
(0.107727517198 0.879236595925 0)
(0.109384609282 0.803836181991 0)
(0.105962798607 0.733916788636 0)
(0.103847500884 0.670549892555 0)
(0.102718767501 0.616696334188 0)
(0.102118705252 0.577817650403 0)
(0.100063883814 0.549174867743 0)
(0.094634352134 0.52681230939 0)
(0.0858326669922 0.510844564152 0)
(0.0753938948547 0.501403362782 0)
(0.0626334153879 0.496822416737 0)
(0.0357872831606 0.49386163322 0)
(0.0122355535556 0.494493906789 0)
(0.00778188471179 0.494770307998 0)
(0.00701753180651 0.494916758416 0)
(0.0061789347614 0.494995911652 0)
(0.00530989643012 0.495000292961 0)
(0.0044259854369 0.494941403956 0)
(0.00354836872572 0.494840051588 0)
(0.0503888595421 0.965826342153 0)
(0.105837135039 0.881041684174 0)
(0.109208296363 0.814189999696 0)
(0.107003921146 0.753364544413 0)
(0.106048308383 0.696882011789 0)
(0.105236266727 0.644255978059 0)
(0.104429940655 0.599965785073 0)
(0.102811753486 0.566600115239 0)
(0.0986131220397 0.540033242065 0)
(0.0909781083417 0.520058827518 0)
(0.0812764401897 0.507394560598 0)
(0.0702557813461 0.500651971557 0)
(0.051912267388 0.497508029932 0)
(0.0255044697018 0.495354422993 0)
(0.0108727866053 0.496710743375 0)
(0.00949419388686 0.496896484637 0)
(0.0080276659274 0.496977486102 0)
(0.00663346555252 0.496952620309 0)
(0.00531308825798 0.496837736721 0)
(0.00408086238639 0.496659448774 0)
(0.0477120248943 0.969497897137 0)
(0.101708158335 0.88313493147 0)
(0.107279737 0.822360863499 0)
(0.106941381403 0.770671693515 0)
(0.107290730346 0.722599949107 0)
(0.106851316566 0.674206307112 0)
(0.105686388726 0.62680805536 0)
(0.103862662292 0.58771095115 0)
(0.10047366173 0.556778582383 0)
(0.0941065596791 0.532610329753 0)
(0.0851258843316 0.516142503246 0)
(0.0750124905582 0.506713654657 0)
(0.0616385356584 0.502096523736 0)
(0.0349107729792 0.498698659733 0)
(0.0144513452707 0.500158068653 0)
(0.0113760762841 0.500090192681 0)
(0.00919178106446 0.499893079796 0)
(0.00724051038281 0.499599702834 0)
(0.00549728533118 0.499229653731 0)
(0.0039513317974 0.498811919931 0)
(0.0443226987357 0.98381459622 0)
(0.0958564753584 0.890803584244 0)
(0.102998953391 0.832946863265 0)
(0.103736243965 0.788983324402 0)
(0.104720223269 0.749043159128 0)
(0.104524846284 0.705445839137 0)
(0.103259901496 0.657044507857 0)
(0.101411890601 0.611896030638 0)
(0.0987233778554 0.576607759643 0)
(0.0935030779667 0.548224593581 0)
(0.0852797609869 0.527426424257 0)
(0.0755939193899 0.514513360913 0)
(0.0640951546111 0.507452766132 0)
(0.0419144500883 0.504315915856 0)
(0.0192237316339 0.505004357425 0)
(0.0107840503521 0.504436672914 0)
(0.00820857945869 0.503591651226 0)
(0.00599656260532 0.502744458277 0)
(0.00410886886514 0.501899591287 0)
(0.00250379603988 0.501077508142 0)
(0.0449923976178 1.00770196759 0)
(0.0975186719125 0.907962754811 0)
(0.102931770865 0.850965954875 0)
(0.100484541918 0.811736610127 0)
(0.0997163672556 0.777464431324 0)
(0.0987884851024 0.73696635442 0)
(0.0975831059643 0.687794173669 0)
(0.0960294115573 0.637522971713 0)
(0.0936590155592 0.59741792898 0)
(0.0889333289815 0.564904661275 0)
(0.081126806492 0.539588042458 0)
(0.071347761932 0.5225605685 0)
(0.060211750658 0.512425435052 0)
(0.0442169617493 0.507780905844 0)
(0.0204886395439 0.509751044502 0)
(0.00571778917695 0.508977699607 0)
(0.00367451674664 0.507249026553 0)
(0.00189875627337 0.505661856519 0)
(0.000453771142949 0.504226194218 0)
(-0.000721260658341 0.502937554144 0)
(0.0479580304175 1.0376534429 0)
(0.101631330511 0.935608250605 0)
(0.102816911821 0.878255333984 0)
(0.0956971443784 0.840464449531 0)
(0.0915348299005 0.807497729525 0)
(0.0895281673399 0.766425612575 0)
(0.088908068416 0.715420033351 0)
(0.0879965872247 0.661647846416 0)
(0.0857122714428 0.615951878481 0)
(0.0811870101218 0.579128653295 0)
(0.0736806594518 0.549490515651 0)
(0.0637339555898 0.528299505563 0)
(0.0527061524926 0.514798634603 0)
(0.039720404022 0.507427283227 0)
(0.0154289313106 0.508867465919 0)
(-0.00306026362873 0.512068193132 0)
(-0.00484954745131 0.5093287747 0)
(-0.00521588030437 0.507133104308 0)
(-0.00544363079366 0.505259449948 0)
(-0.00558289746755 0.50366573277 0)
(0.0507576873158 1.07307728726 0)
(0.101774572748 0.969076424504 0)
(0.0954876771185 0.909246557549 0)
(0.0846382011085 0.869822595592 0)
(0.07861844829 0.833441108552 0)
(0.0773004618953 0.788197621735 0)
(0.0784174361807 0.734664158129 0)
(0.0789344912554 0.679184856108 0)
(0.077430900766 0.628946646797 0)
(0.0735927380285 0.587437375776 0)
(0.0669359394849 0.554039743621 0)
(0.0572383205139 0.529298096063 0)
(0.0457083561496 0.512879267364 0)
(0.0335920401162 0.503230783662 0)
(0.016782952847 0.501251983775 0)
(-0.00550723215653 0.509177782711 0)
(-0.016026486217 0.508024915913 0)
(-0.0140132690792 0.505874580252 0)
(-0.0123876347237 0.504095732703 0)
(-0.0110406288501 0.502640909916 0)
(0.049053845071 1.10291798702 0)
(0.0936849960007 0.998116696107 0)
(0.0830907140177 0.934767836976 0)
(0.0731282001566 0.891765600387 0)
(0.0685758515477 0.849552850358 0)
(0.0691529889121 0.799040796988 0)
(0.0720460677006 0.743361397767 0)
(0.0742794665841 0.687651300293 0)
(0.0744838849737 0.63593274103 0)
(0.0721829515411 0.590976273646 0)
(0.066836111234 0.554308938294 0)
(0.0578769508711 0.526659256577 0)
(0.0458576240644 0.507762507794 0)
(0.03345395648 0.496462308962 0)
(0.0208794170934 0.492067562067 0)
(-0.00448485416868 0.497553745297 0)
(-0.0231861144866 0.502916382135 0)
(-0.0213805052862 0.501487752969 0)
(-0.0179640825026 0.500566160436 0)
(-0.0152253523759 0.499832148789 0)
(0.0461201548306 1.12486823434 0)
(0.0881231889528 1.02132688266 0)
(0.0789920134659 0.954725055353 0)
(0.0711672952575 0.907227954797 0)
(0.0682314942315 0.859221071593 0)
(0.0698562861733 0.804244774329 0)
(0.0737452484644 0.747024085362 0)
(0.0774358424688 0.691646430882 0)
(0.0794098875461 0.64034963921 0)
(0.0786910425158 0.594676307229 0)
(0.0743129849823 0.555967241836 0)
(0.0659222104878 0.525312225799 0)
(0.0541408285694 0.503535548541 0)
(0.0410158393573 0.490240066748 0)
(0.028887832784 0.484467119908 0)
(0.0133484697705 0.485392628614 0)
(-0.0114449721685 0.493179247858 0)
(-0.0238866626354 0.495282547955 0)
(-0.0195777801018 0.495700957186 0)
(-0.0162349837463 0.496069466987 0)
(0.0480435208889 1.1420797955 0)
(0.0930529017023 1.04059216941 0)
(0.0846199327749 0.974016051632 0)
(0.0764484362455 0.922492317867 0)
(0.0735938136384 0.869069668046 0)
(0.0754737088437 0.81033989023 0)
(0.0799589962724 0.751826019607 0)
(0.0845947773773 0.696635024801 0)
(0.0879321673062 0.645949001948 0)
(0.0886077256403 0.601245109405 0)
(0.0847689377173 0.562698165127 0)
(0.0763419652199 0.529577031308 0)
(0.0652191400303 0.504177241857 0)
(0.052870889687 0.487873642158 0)
(0.0416858323271 0.480425238995 0)
(0.0307851389461 0.479278108786 0)
(0.00488465941963 0.483291706203 0)
(-0.0162304955342 0.489600814529 0)
(-0.0159689450487 0.491261060264 0)
(-0.0131806507613 0.492693955236 0)
(0.0479611983619 1.15089948932 0)
(0.0937855224146 1.05233683532 0)
(0.086753054758 0.989581532644 0)
(0.0794832775465 0.936669767043 0)
(0.077350332063 0.879138731204 0)
(0.0798382406796 0.817569885985 0)
(0.0849659383513 0.758222421823 0)
(0.0906661995001 0.7033961388 0)
(0.0956440733921 0.654030216214 0)
(0.0978183514496 0.611478703853 0)
(0.0946304755653 0.574178473584 0)
(0.0860050950468 0.540268694501 0)
(0.0749631408134 0.5112676182 0)
(0.0639920185769 0.491320224 0)
(0.0541306069361 0.481194383943 0)
(0.0451469303591 0.478462938359 0)
(0.02832171152 0.479995779599 0)
(0.00376869211065 0.485594330002 0)
(-0.00777909153046 0.488793931309 0)
(-0.00659560444347 0.490894929438 0)
(0.0471055820835 1.15509653201 0)
(0.0930169049999 1.05781851082 0)
(0.0870537540659 0.999223984742 0)
(0.080394240699 0.946833531278 0)
(0.0790744594536 0.887186155147 0)
(0.0822386110921 0.824172956039 0)
(0.0884597098203 0.764926961295 0)
(0.0961097688568 0.711533599914 0)
(0.102988081549 0.665356148127 0)
(0.105750411111 0.625899774541 0)
(0.102504947492 0.589647072227 0)
(0.0936945532715 0.555896898291 0)
(0.0823493366327 0.524386094685 0)
(0.0721470165571 0.500749559249 0)
(0.063770115576 0.487124181163 0)
(0.0565216019433 0.482336671585 0)
(0.0458281805203 0.482394440624 0)
(0.0213541522016 0.483555727513 0)
(0.00319761309975 0.489024416026 0)
(0.00179450488782 0.491271249542 0)
(0.0448487194143 1.16145837393 0)
(0.0890100103664 1.06195417361 0)
(0.0841567776631 1.00560246323 0)
(0.0790576387027 0.953477742545 0)
(0.0795425361168 0.893079163258 0)
(0.084507102909 0.830120221594 0)
(0.0928946512338 0.772219531471 0)
(0.102411081885 0.722055252311 0)
(0.109449704208 0.680620121867 0)
(0.111621604809 0.644162369629 0)
(0.108420180835 0.608855180614 0)
(0.0995666512015 0.575317896275 0)
(0.0878215858525 0.542654473022 0)
(0.0776770321028 0.515377762768 0)
(0.0701252392835 0.497646744712 0)
(0.0641881948989 0.489907462198 0)
(0.056254334376 0.488138687312 0)
(0.0346805775482 0.48581395428 0)
(0.0147479670955 0.491838180428 0)
(0.00977038282496 0.493776371374 0)
(0.041273952382 1.18074633053 0)
(0.082210260528 1.07094216517 0)
(0.0787298925076 1.01120394024 0)
(0.0761167078684 0.957292757027 0)
(0.0795331888522 0.897054711756 0)
(0.0873439386945 0.835849227525 0)
(0.0980387134027 0.780861021603 0)
(0.107794133332 0.735842071643 0)
(0.113379396109 0.699109324757 0)
(0.115060982904 0.665449549844 0)
(0.112516638783 0.631432011326 0)
(0.104174791652 0.598591767302 0)
(0.0918991431376 0.565711002164 0)
(0.0808821626635 0.534317142879 0)
(0.0733849914676 0.511767383532 0)
(0.0676241643947 0.500140677808 0)
(0.0601882503456 0.495947267875 0)
(0.0420880470796 0.492560284895 0)
(0.0229893932133 0.496625758484 0)
(0.0153589131347 0.497894951304 0)
(0.0405684360504 1.21213055488 0)
(0.0816928551839 1.08631239903 0)
(0.0787108504965 1.01850246475 0)
(0.076404274369 0.960087086754 0)
(0.0815352474524 0.900239067619 0)
(0.0913063336001 0.842125850436 0)
(0.10243012511 0.791560056939 0)
(0.110641768269 0.752474148915 0)
(0.115396473443 0.719630097776 0)
(0.117575003818 0.688480777281 0)
(0.115952349626 0.656284242336 0)
(0.108262707302 0.62570023889 0)
(0.0946159073177 0.593330089604 0)
(0.0815978296442 0.555869272697 0)
(0.0735278052541 0.528018469066 0)
(0.0672737175346 0.511469807388 0)
(0.0591221747953 0.504014537837 0)
(0.0433368985502 0.500432328308 0)
(0.0259447759458 0.502432466516 0)
(0.0173409012021 0.502789921469 0)
(0.0410360200981 1.24453482353 0)
(0.0839176893492 1.10368736654 0)
(0.0821015845704 1.0274017465 0)
(0.0798604847405 0.963935156792 0)
(0.0854713456522 0.904605759525 0)
(0.0954349093331 0.850109010945 0)
(0.105312491585 0.804680149822 0)
(0.112096377284 0.770481732106 0)
(0.116924347216 0.740668434642 0)
(0.120082845048 0.711482293949 0)
(0.119927395227 0.681668534662 0)
(0.11119378258 0.654034548092 0)
(0.0942074862317 0.622076332864 0)
(0.0797439822731 0.578957876295 0)
(0.0713917345813 0.544495187113 0)
(0.0640927379823 0.521974949246 0)
(0.0546266266111 0.510498178279 0)
(0.0401653129643 0.506259062803 0)
(0.0243212550589 0.507584763388 0)
(0.0156314534992 0.507342469646 0)
(0.0415779942188 1.27358310503 0)
(0.0865250702901 1.119687741 0)
(0.0867964057834 1.03646360667 0)
(0.0852323810257 0.970307226072 0)
(0.0906599089335 0.912516328171 0)
(0.099281036978 0.861462264066 0)
(0.107324911667 0.820408755722 0)
(0.113454109281 0.789190836642 0)
(0.118768122746 0.761210829566 0)
(0.122809243311 0.733466154488 0)
(0.121006394036 0.706091860231 0)
(0.108233638008 0.679339724445 0)
(0.0913557542388 0.647032722467 0)
(0.0784294606672 0.603460171319 0)
(0.0687161980628 0.559758409778 0)
(0.0597199503307 0.530725644937 0)
(0.0489890939201 0.514661099983 0)
(0.0350915050608 0.508679723649 0)
(0.0203077882139 0.510020532532 0)
(0.0118325253598 0.510713759473 0)
(0.0412359473175 1.29885336024 0)
(0.0876478489323 1.13345214184 0)
(0.0906601102461 1.04670451006 0)
(0.0901074670344 0.981864971781 0)
(0.0950593155185 0.927265624593 0)
(0.102220494368 0.879002108349 0)
(0.108971965402 0.840164355867 0)
(0.114639461116 0.81003593794 0)
(0.119646555416 0.782497015488 0)
(0.121698425667 0.755540070874 0)
(0.114740357982 0.728623283622 0)
(0.100557308686 0.699457273256 0)
(0.0872112000543 0.666579570137 0)
(0.0755777472253 0.626430825386 0)
(0.0651295573814 0.575676426457 0)
(0.0551441977426 0.538565390972 0)
(0.0438045337056 0.517417270851 0)
(0.0300995044186 0.508887174708 0)
(0.0156851392493 0.510857711295 0)
(0.00731098137172 0.513085350357 0)
(0.0400821298615 1.32471834068 0)
(0.0866790024092 1.14907744938 0)
(0.0916171637104 1.06233238303 0)
(0.0915106270223 1.00214442491 0)
(0.0959851568603 0.951864018853 0)
(0.102450505149 0.905140946184 0)
(0.108527487455 0.86577342822 0)
(0.113104673004 0.83452067693 0)
(0.115333456423 0.805339634751 0)
(0.11077538794 0.776325068939 0)
(0.0995905382738 0.746387480494 0)
(0.089158826061 0.714221452458 0)
(0.0802510598123 0.680999524319 0)
(0.0707074127704 0.644007155794 0)
(0.0606147276066 0.593453576287 0)
(0.0499396026399 0.546003669545 0)
(0.0385945928242 0.519844186119 0)
(0.0252114390001 0.508335252913 0)
(0.00999357340863 0.509069493206 0)
(0.00118820956785 0.514956321336 0)
(0.0434624211433 1.3470474137 0)
(0.0947121175522 1.17185644486 0)
(0.0982704745406 1.09073447785 0)
(0.0936644044951 1.03772987144 0)
(0.0949806353349 0.989970282801 0)
(0.0990650860868 0.940568163706 0)
(0.102363854752 0.896788575955 0)
(0.10205463435 0.860950492269 0)
(0.0968216872901 0.826438191821 0)
(0.0881024697921 0.791402104361 0)
(0.0811438515655 0.756323284735 0)
(0.0763462766816 0.722394026729 0)
(0.0703735160055 0.689798951603 0)
(0.062655974144 0.655083354776 0)
(0.0536347243336 0.608946693849 0)
(0.0444683792308 0.553029607519 0)
(0.0341609973016 0.522351072715 0)
(0.0214316225691 0.50755060334 0)
(0.00688321008693 0.504522423806 0)
(-0.00365965930893 0.515887839668 0)
(0.0488377525004 1.36260559709 0)
(0.10410112365 1.20361134761 0)
(0.102669498892 1.13815688563 0)
(0.0900313838814 1.09647632298 0)
(0.0834277690448 1.04383976212 0)
(0.0809873386538 0.982338064909 0)
(0.0781837596187 0.929098779377 0)
(0.0726340575845 0.885095238462 0)
(0.0664942214877 0.841787126256 0)
(0.0628127014757 0.798466263936 0)
(0.0617918043361 0.758125042419 0)
(0.06096077954 0.723046043806 0)
(0.0582633787194 0.692103232848 0)
(0.0530960107347 0.65988956913 0)
(0.0466435072976 0.618226879596 0)
(0.0399240407905 0.559978502913 0)
(0.0308881753738 0.524745551954 0)
(0.0188691536764 0.506327766136 0)
(0.00546286525659 0.499927184101 0)
(-0.00855413378119 0.512552627671 0)
(0.0533729858753 1.36637134997 0)
(0.107225457223 1.2375332621 0)
(0.0944139137776 1.20384078901 0)
(0.0696205671562 1.17995387546 0)
(0.0521390216922 1.10999442884 0)
(0.0435953774314 1.02427914591 0)
(0.0391483578329 0.955961964026 0)
(0.036463414323 0.901094918991 0)
(0.0363378990416 0.847804498667 0)
(0.0388434533479 0.796642156505 0)
(0.0425364944845 0.753287133257 0)
(0.0451254436321 0.717359728005 0)
(0.0454571995852 0.687165279148 0)
(0.0437544610036 0.657577877059 0)
(0.0410232187984 0.620160396956 0)
(0.0370394279542 0.566151624182 0)
(0.029316955382 0.526377497056 0)
(0.0174465237174 0.504168960523 0)
(0.0041933964866 0.494799279965 0)
(-0.0129286458948 0.501755677306 0)
(0.0534611199686 1.35014536531 0)
(0.0991409391664 1.2650495913 0)
(0.0751048850063 1.27901369482 0)
(0.0447587752319 1.27658575075 0)
(0.0224498917878 1.18026764417 0)
(0.0113005812498 1.06200525291 0)
(0.00865699530219 0.972108012336 0)
(0.0110098719315 0.904123693024 0)
(0.016048646795 0.842067009584 0)
(0.0224500863205 0.786279771052 0)
(0.0287806162348 0.74346729574 0)
(0.0334383459538 0.707302857714 0)
(0.0362025527305 0.676072879101 0)
(0.0378845774518 0.647942103683 0)
(0.0387522589472 0.615272602843 0)
(0.0369101184955 0.570166977858 0)
(0.0301099674932 0.527000133984 0)
(0.0183173723293 0.500861858183 0)
(0.00491293783085 0.488676312108 0)
(-0.00959696147556 0.48884231267 0)
(0.0480052401825 1.33379167457 0)
(0.0833821444378 1.29519849253 0)
(0.0603598967457 1.34592694701 0)
(0.0414055444013 1.36034619276 0)
(0.0231397519039 1.25175685892 0)
(0.00883157600697 1.09996971522 0)
(0.00447919052743 0.98251851432 0)
(0.0073163176859 0.898955757854 0)
(0.0133619345426 0.82955058335 0)
(0.0203553837858 0.771918464421 0)
(0.0271247051819 0.731178510961 0)
(0.0326892221818 0.695838096336 0)
(0.0366672800436 0.663158000215 0)
(0.0398669302519 0.634649374514 0)
(0.0422204741496 0.606145920183 0)
(0.0408049355581 0.571728179422 0)
(0.0338410025293 0.528272721193 0)
(0.0220552153009 0.496840282079 0)
(0.00876284360524 0.481536843223 0)
(-0.00397661404441 0.478269572665 0)
(0.0456881086465 1.33519727401 0)
(0.0808750868863 1.33471806329 0)
(0.0663750335663 1.38847408991 0)
(0.0589671299805 1.41160591398 0)
(0.0460218063799 1.32672446005 0)
(0.0300357032465 1.14710469062 0)
(0.0222019689104 0.998990327198 0)
(0.022344300238 0.897103828639 0)
(0.0265815997101 0.819902925361 0)
(0.0322191588103 0.760793078443 0)
(0.0382153263924 0.72129057018 0)
(0.0436774875505 0.686880259357 0)
(0.0475932575068 0.653141149918 0)
(0.0503453476683 0.62314148228 0)
(0.0518878021309 0.596717316969 0)
(0.049358086949 0.57183935891 0)
(0.0409619586202 0.532323731905 0)
(0.0287398025901 0.493045036397 0)
(0.0154663879066 0.474232053017 0)
(0.00299516606654 0.469060833945 0)
(0.0465958662118 1.34497428667 0)
(0.0861503818437 1.36762097939 0)
(0.0757795766254 1.41168441722 0)
(0.0694539824266 1.43824231132 0)
(0.0613894265655 1.38779802285 0)
(0.0505882289285 1.19881527898 0)
(0.0431772691133 1.02328380521 0)
(0.0425586237328 0.90324693899 0)
(0.0458494203798 0.818083187538 0)
(0.0505360785043 0.757079535241 0)
(0.055663166113 0.717541795617 0)
(0.0605077199607 0.683407866589 0)
(0.0638457296334 0.648935021272 0)
(0.0654803623684 0.617258116023 0)
(0.0651212636361 0.590896599694 0)
(0.0597222778096 0.572572901508 0)
(0.0495088131055 0.538840788659 0)
(0.0380260466654 0.492258264354 0)
(0.0255553488463 0.469006035229 0)
(0.0130559978916 0.462141212752 0)
(0.0473180476565 1.35269503043 0)
(0.0889158642154 1.38567830631 0)
(0.0798005740646 1.42664292004 0)
(0.073584310377 1.45413475013 0)
(0.0674364385794 1.42321028824 0)
(0.0609493453263 1.23961720615 0)
(0.0576025029969 1.04642587941 0)
(0.0591732837107 0.913252189403 0)
(0.0634225386408 0.82223851456 0)
(0.0683181723862 0.760093335853 0)
(0.073089619984 0.720249869311 0)
(0.0773673853436 0.685977108897 0)
(0.0800982883757 0.651155309869 0)
(0.0806620916672 0.61823730762 0)
(0.0781314801096 0.591126412742 0)
(0.0705041558283 0.576729010348 0)
(0.0596925503658 0.547201118678 0)
(0.0485367490362 0.497230532942 0)
(0.0367474054785 0.468079096876 0)
(0.025264248005 0.458560351383 0)
(0.0466994435312 1.35692333095 0)
(0.0878760124652 1.39584653299 0)
(0.0790093056816 1.43717273398 0)
(0.0729027788641 1.46405716802 0)
(0.0676687318372 1.44172162781 0)
(0.0647768303698 1.26023135058 0)
(0.0662163516289 1.06000039521 0)
(0.0709892681831 0.921387501368 0)
(0.0771430215557 0.828456117575 0)
(0.0830792242625 0.767327966538 0)
(0.0879446359701 0.727807708549 0)
(0.0918286657923 0.693475995751 0)
(0.0940460366489 0.658762828364 0)
(0.0938499415336 0.62528782511 0)
(0.0901529231798 0.597497443818 0)
(0.0815858058964 0.584961115965 0)
(0.0697459018961 0.557756622638 0)
(0.0577942802729 0.507545212943 0)
(0.0468372661317 0.47188291653 0)
(0.0365491559285 0.458739927388 0)
(0.0442707547688 1.36737100557 0)
(0.0830802962156 1.40786000665 0)
(0.0739954013409 1.44820426893 0)
(0.0675982231414 1.4719928183 0)
(0.0635311594566 1.44722585769 0)
(0.0645988196707 1.25903720165 0)
(0.0709704177915 1.06091810166 0)
(0.0794175163144 0.924746326734 0)
(0.0881403736015 0.834551766964 0)
(0.0953292812496 0.777076562333 0)
(0.100188628347 0.738587355669 0)
(0.103621014115 0.704498495356 0)
(0.10531352335 0.67012931705 0)
(0.104636030391 0.636797854836 0)
(0.100400913471 0.608638160888 0)
(0.0911494506787 0.596362915541 0)
(0.0784021430385 0.570705747192 0)
(0.0657778649835 0.521420570765 0)
(0.0553168662729 0.479862631048 0)
(0.0457986183181 0.46237691283 0)
(0.0447611252393 1.38580679117 0)
(0.0843797527317 1.42411198289 0)
(0.0742000964262 1.46539993112 0)
(0.0652317220769 1.48399481717 0)
(0.0604907362329 1.44307050778 0)
(0.06443869299 1.24046263496 0)
(0.075219621033 1.05180570918 0)
(0.0871794596651 0.924160880619 0)
(0.0980150254628 0.84069438833 0)
(0.105630290896 0.788605836348 0)
(0.110070644272 0.751530337101 0)
(0.112985967035 0.717919178189 0)
(0.114051233497 0.683904272715 0)
(0.112878846004 0.65113252356 0)
(0.108362234507 0.623036647529 0)
(0.098734320661 0.61027053713 0)
(0.0855709010896 0.585732314738 0)
(0.0726994889171 0.537778733976 0)
(0.0623238606139 0.491121357866 0)
(0.0529897218398 0.46871975497 0)
(0.0448846697106 1.40985873245 0)
(0.0851088348856 1.44072884117 0)
(0.0741143191662 1.49121392234 0)
(0.0626238533912 1.50407037485 0)
(0.0585513985112 1.42924364296 0)
(0.0662121485064 1.21283434976 0)
(0.080210154358 1.03769828589 0)
(0.0944764446875 0.921753996772 0)
(0.106085894199 0.847628317369 0)
(0.113189018747 0.801192215723 0)
(0.117219750168 0.765747626846 0)
(0.119795907447 0.732682089294 0)
(0.120179454379 0.698986708123 0)
(0.118471601373 0.66679196267 0)
(0.113728840085 0.639118071041 0)
(0.104183747647 0.625482225904 0)
(0.0915057107306 0.601985407372 0)
(0.0788335149593 0.556134140068 0)
(0.0680459879914 0.504622354517 0)
(0.0582915289063 0.476792113027 0)
(0.0448913432009 1.44254741387 0)
(0.0853306768413 1.45732499291 0)
(0.073653210029 1.52256960384 0)
(0.0612252826266 1.52825758749 0)
(0.0594236761313 1.40426412984 0)
(0.0702590209633 1.18287911453 0)
(0.0856624509303 1.02218662829 0)
(0.10059715655 0.918998009117 0)
(0.111647112588 0.855384529491 0)
(0.117862372835 0.813932336062 0)
(0.121678467604 0.780239960569 0)
(0.123967295215 0.747708590549 0)
(0.123697694312 0.714285643438 0)
(0.121340873932 0.682538897295 0)
(0.116423531405 0.65533670703 0)
(0.107693424893 0.640541530316 0)
(0.0964510951612 0.61853533243 0)
(0.084207194507 0.575973106788 0)
(0.0724726068046 0.519822075036 0)
(0.0618930177126 0.485780571219 0)
(0.0447966635077 1.48044009366 0)
(0.0840460079749 1.47721255395 0)
(0.071977088497 1.55252200363 0)
(0.0616363640071 1.54728192599 0)
(0.0628224040561 1.37214045353 0)
(0.0754706754597 1.15440505421 0)
(0.0910568132184 1.00753750439 0)
(0.105225093626 0.917277984514 0)
(0.114792264295 0.86364421662 0)
(0.12033055511 0.826406268359 0)
(0.124148830192 0.794390034839 0)
(0.126010714403 0.762327460056 0)
(0.124918207298 0.729081886863 0)
(0.121719695621 0.697619077102 0)
(0.116718585588 0.670618044119 0)
(0.109592368791 0.654280604387 0)
(0.100598592431 0.6346680262 0)
(0.0887237440788 0.596867811175 0)
(0.0756539044196 0.537061375792 0)