/*--------------------------------*- C++ -*----------------------------------*\
| =========                 |                                                 |
| \\      /  F ield         | OpenFOAM: The Open Source CFD Toolbox           |
|  \\    /   O peration     | Version:  2312                                  |
|   \\  /    A nd           | Website:  www.openfoam.com                      |
|    \\/     M anipulation  |                                                 |
\*---------------------------------------------------------------------------*/
FoamFile
{
    version     2.0;
    format      ascii;
    arch        "LSB;label=32;scalar=64";
    class       volScalarField;
    location    "0.07/water";
    object      T.gas;
}
// * * * * * * * * * * * * * * * * * * * * * * * * * * * * * * * * * * * * * //

dimensions      [0 0 0 1 0 0 0];

internalField   nonuniform List<scalar> 
1503
(
363.925167937
326.947785988
311.35795412
304.500386818
301.824338937
300.473991954
300.026386856
300.000171928
300.00000016
300
300
300
300
300
300
300
300
300
300
300
402.66554584
335.704980013
311.925165156
304.076844501
301.435873004
300.530077536
300.201297512
300.029217432
300.000658974
300.000001338
300
300
300
300
300
300
300
300
300
300
405.475377663
336.135485238
311.195512912
303.444538957
301.083334041
300.359384238
300.124521109
300.039153193
300.004259682
300.000087547
300.000000155
300
300
300
300
300
300
300
300
300
404.156056536
337.631580083
312.063768984
303.648722424
301.082176587
300.32807282
300.102557061
300.03158716
300.007548726
300.000648419
300.000009823
300.000000008
300
300
300
300
300
300
300
300
402.307791948
338.528542526
313.093763291
304.111947527
301.230442759
300.364655617
300.108731275
300.031603922
300.0084823
300.001669118
300.00009662
300.000000435
300
300
300
300
300
300
300
300
399.679890546
338.71920302
313.849354029
304.571205384
301.422291488
300.430925159
300.129560434
300.03761601
300.01029443
300.002787638
300.000377063
300.000005444
300.000000002
300
300
300
300
300
300
300
397.289569602
338.131549646
314.030224724
304.816555052
301.55893013
300.489460223
300.152021067
300.045819026
300.013215863
300.003901193
300.000953774
300.000032497
300.000000028
300
300
300
300
300
300
300
396.165055414
337.26613715
313.745512477
304.805278654
301.597675945
300.517242255
300.166565064
300.052717977
300.016140358
300.005096092
300.001793578
300.000131237
300.000000322
300
300
300
300
300
300
300
395.154459755
336.631868102
313.571486123
304.792568313
301.619789065
300.535106604
300.177437587
300.058883437
300.019011793
300.006193383
300.002202567
300.000328764
300.000002871
300.000000001
300
300
300
300
300
300
394.050418997
335.986368402
313.312233999
304.733422432
301.619186548
300.54371791
300.185242288
300.064645247
300.021971389
300.007163719
300.002368574
300.000592997
300.000019601
300.000000026
300
300
300
300
300
300
393.730909217
335.726824817
313.110003248
304.657519679
301.604895273
300.547872728
300.192105773
300.07032855
300.025258917
300.00815692
300.002408582
300.000626524
300.000069612
300.000000581
300
300
300
300
300
300
393.727443879
335.557805532
312.933326239
304.571220957
301.584753701
300.551094369
300.199644448
300.076519431
300.029011134
300.009433756
300.002511272
300.000582419
300.000142217
300.000006318
300.000000006
300
300
300
300
300
393.807557387
335.038585813
312.516493245
304.366744573
301.514646672
300.538024313
300.203015995
300.082106789
300.032928609
300.011018364
300.0027686
300.000591998
300.000144094
300.000024714
300.000000167
300
300
300
300
300
393.860641562
334.805602246
312.254700301
304.19676765
301.442270754
300.519106179
300.203246228
300.086301258
300.036407917
300.012665817
300.003152524
300.00064862
300.000154152
300.000054247
300.000001718
300
300
300
300
300
394.022844323
334.710123115
312.091497926
304.083153654
301.388744541
300.502657885
300.202049279
300.089383047
300.039164749
300.014139034
300.003624543
300.000744255
300.000173264
300.000061595
300.000005655
300.000000005
300
300
300
300
394.00053133
334.518628301
311.873870047
303.969096498
301.340628156
300.486666418
300.200165449
300.09142022
300.041173191
300.015405043
300.004168843
300.000879717
300.000200577
300.00006708
300.000010991
300.000000027
300
300
300
300
394.044282787
334.304492967
311.597774063
303.824029195
301.284636581
300.470095182
300.198148225
300.092804334
300.042661609
300.016628925
300.004817439
300.001050359
300.000229659
300.000066455
300.000015022
300.000000109
300
300
300
300
393.927591679
334.220772756
311.431417203
303.713551117
301.240948433
300.45987058
300.198322482
300.094749212
300.044441418
300.018106758
300.005689584
300.001271149
300.00025769
300.000058026
300.000014604
300.000000436
300
300
300
300
393.711340578
334.859840907
311.92074186
303.886585988
301.290489063
300.478333592
300.207286634
300.099462018
300.047341028
300.020495406
300.007024809
300.001612307
300.000300468
300.000051621
300.000010279
300.000001284
300
300
300
300
393.508379118
335.687721337
312.736018752
304.321143894
301.459053657
300.536414121
300.227956492
300.107598111
300.052026402
300.023852511
300.008833126
300.002115779
300.000385105
300.000060384
300.000011206
300.000003238
300.000000035
300
300
300
393.56994958
336.195702791
313.406889259
304.789057849
301.685682915
300.621774425
300.256379828
300.11874448
300.058471025
300.027974561
300.010927299
300.002754081
300.000528833
300.00008897
300.000015929
300.000004204
300.000000248
300
300
300
393.624658374
336.198061
313.602045518
305.006068707
301.824931923
300.683658516
300.280440261
300.130067873
300.065167138
300.032106546
300.013061063
300.003422264
300.000680748
300.000127002
300.000022404
300.00000534
300.000000861
300
300
300
393.787707784
335.52656153
313.205322251
304.85956089
301.792920787
300.685157598
300.287950164
300.137056079
300.070498963
300.035806161
300.014913766
300.003967695
300.000820792
300.000165492
300.000029482
300.000006614
300.000001325
300
300
300
393.77595474
335.038980142
312.788816013
304.624098635
301.689332309
300.650467527
300.28107251
300.138919657
300.074254999
300.039045819
300.016465463
300.004418555
300.000945938
300.000205692
300.000039456
300.000008461
300.000001532
300
300
300
393.757209799
334.653847428
312.441550613
304.389801724
301.571171866
300.60340052
300.267581439
300.138084815
300.07717995
300.042031909
300.017828926
300.00483852
300.001028162
300.000241282
300.00005338
300.000011697
300.000001789
300
300
300
393.510058949
334.35111057
312.174045757
304.211727609
301.474459622
300.562666377
300.255302114
300.137378042
300.080081715
300.044605453
300.019343218
300.005287571
300.00111501
300.000277672
300.000071092
300.000016041
300.000001979
300
300
300
393.271419734
334.097992697
312.025715535
304.119719475
301.427501609
300.543489885
300.250532962
300.138842815
300.083313335
300.047282717
300.021281801
300.005976105
300.001249538
300.000321221
300.000094198
300.000022643
300.000001927
300
300
300
392.905695809
333.738275332
311.841358051
304.073601607
301.423560975
300.547691145
300.255304109
300.14343165
300.087113428
300.05046826
300.023809557
300.007219117
300.001449721
300.000386282
300.000124569
300.000032385
300.000001637
300
300
300
392.611866398
334.029381573
312.051878466
304.186093481
301.486487975
300.578756009
300.269854269
300.151069794
300.091802867
300.053941222
300.026536474
300.008601838
300.001721399
300.000480449
300.000162665
300.000043375
300.000001082
300
300
300
392.126415918
334.537394305
312.475010437
304.426801847
301.60540674
300.6326886
300.292460849
300.160794539
300.096539539
300.056737586
300.028207631
300.009149996
300.002067308
300.00059345
300.000202936
300.0000584
300.00000319
300
300
300
391.747133223
334.980573264
312.955546341
304.715614407
301.752147321
300.699357372
300.319568272
300.171142728
300.100533516
300.058015331
300.027899495
300.008696446
300.002240805
300.00068021
300.000251044
300.000081119
300.000010154
300
300
300
391.775200621
335.252625149
313.321100109
304.972207383
301.888750437
300.763473804
300.345801438
300.180397948
300.103411922
300.057835433
300.026141815
300.008496027
300.002265269
300.000729916
300.000293611
300.000107425
300.000021372
300
300
300
391.944408593
335.079464303
313.328819256
305.052259879
301.95365955
300.798619204
300.360878218
300.184929178
300.103297895
300.055707591
300.024895077
300.008332802
300.002395463
300.000798977
300.000335271
300.000133546
300.000034443
300.000000769
300
300
392.173791185
335.155287736
313.34306794
305.067875632
301.963527598
300.802290821
300.360959927
300.183133426
300.100835077
300.053860319
300.024524567
300.008591399
300.002583894
300.000886751
300.000378089
300.000159038
300.000047921
300.000003818
300
300
392.267488101
335.268417816
313.365789629
305.052443272
301.941437827
300.785127364
300.3506074
300.177458652
300.097969392
300.052853241
300.024611908
300.008947205
300.00281583
300.000977847
300.000422125
300.000184599
300.000061807
300.000008133
300
300
392.005780915
335.180825474
313.291714307
305.004491631
301.900374463
300.75690738
300.335236914
300.170484587
300.095406468
300.05249453
300.024992207
300.009440855
300.003056872
300.001080482
300.000469344
300.00021162
300.000076682
300.000013527
300
300
391.624370931
334.828912278
313.046190647
304.867428237
301.819538518
300.712001966
300.314039644
300.16220076
300.093012908
300.052489528
300.025623846
300.00999241
300.003367268
300.001199785
300.000523201
300.000241381
300.000093116
300.000020068
300
300
391.518289133
334.272473289
312.523791057
304.544177425
301.647247124
300.632062509
300.282188523
300.151342231
300.090268693
300.052542013
300.026334596
300.010676277
300.003723683
300.001350076
300.000585989
300.000274137
300.000110972
300.000027732
300.000000853
300
300
300
300
300
300
300
300
300
300
300
300
300
300
300
300
300
300
300
300
300
300
300
300
300
300
300
300
300
300
300
300
300
300
300
300
300
300
300
300
300
300
300
300
300
300
300
300
300
300
300
300
300
300
300
300
300
300
300
300
300
300
300
300
300
300
300
300
300
300
300
300
300
300
300
300
300
300
300
300
300
300
300
300
300
300
300
300
300
300
300
300
300
300
300
300
300
300
300
300
300
300
300
300
300
300
300
300
300
300
300
300
300
300
300
300
300
300
300
300
300
300
300
300
300
300
300
300
300
300
300
300
300
300
300
300
300
300
300
300
300
300
300
300
300
300
300
300
300
300
300
300
300
300
300
300
300
300
300
300
300
300
300
300
300
300
300
300
300
300
300
300
300
300
300
300
300
300
300
300
300
300
300
300
300
300
300
300
300
300
300
300
300
300
300
300
300
300
300
300
300
300
300
300
300
300
300
300
300
300
300
300
300
300
300
300
300
300
300
300
300
300
300
300
300
300
300
300
300
300
300
300
300
300
300
300
300
300
300
300
300
300
300
300
300
300
300
300
300
300
300
300
300
300
300
300
300
300
300
300
300
300
300
300
300
300
300
300
300
300
300
300
300
300
300
300
300
300
300
300
300
300
300
300
300
300
300
300
300
300
300
300
300
300
300
300
300
300
300
300
300
300
300
300
300
300
300
300
300
300
300
300
300
300
300
300
300
300
300
300
300
300
300
300
300
300
300
300
300
300
300
300
300
300
300
300
300
300
300
300
300
300
300
300
300
300
300
300
300
300
300
300
300
300
300
300
300
300
300
300
300
300
300
300
300
300
300
300
300
300
300
300
300
300
300
300
300
300
300
300
300
300
300
300
300
300
300
300
300
300
300
300
300
300
300
300
300
300
300
300
300
300
300
300
300
300
300
300
300
300
300
300
300
300
300
300
300
300
300
300
300
300
300
300
300
300
300
300
300
300
300
300
300
300
300
300
300
300
300
300
300
300
300
300
300
300
300
300
300
300
300
300
300
300
300
300
300
300
300
300
300
300
300
300
300
300
300
300
300
300
300
300
300
300
300
300
300
300
300
300
300
300
300
300
300
300
300
300
300
300
300
300
300
300
300
300
300
300
300
300
300
300
300
300
300
300
300
300
300
300
300
300
300
300
300
300
300
300
300
300
300
300
300
300
300
300
300
300
300
300
300
300
300
300
300
300
300
300
300
300
300
300
300
300
300
300
300
300
300
300
300
300
300
300
300
300
300
300
300
300
300
300
300
300
300
300
300
300
300
300
300
300
300
300
300
300
300
300
300
300
300
300
300
300
300
300
300
300
300
300
300
300
300
300
300
300
300
300
300
300
300
300
300
300
300
300
300
300
300
300
300
300
300
300
300
300
300
300
300
300
300
300
300
300
300
300
300
300
300
300
300
300
300
300
300
300
300
300
300
300
300
300
300
300
300
300
300
300
300
300
300
300
300
300
300
300
300
300
300
300
300
300
300
300
300
300
300
300
300
300
300
300
300
300
300
300
300
300
300
300
300
300
300
300
300
300
300
300
300
300
300
300
300
300
300
300
300
300
300
300
300
300
300
300
300
300
300
300
300
300
300
300
300
300
300
300
300
300
300
300
300
300
300
300
300
300
300
300
300
300
300
300
300
300
300
300
300
300
300
300
300
300
300
300
)
;

boundaryField
{
    emptyPatch
    {
        type            empty;
    }
    minY
    {
        type            fixedValue;
        value           uniform 300;
    }
    maxY
    {
        type            inletOutlet;
        inletValue      nonuniform List<scalar> 0();
        value           nonuniform List<scalar> 0();
    }
    maxX
    {
        type            fixedValue;
        value           uniform 300;
    }
    water_to_heater
    {
        type            copiedFixedValue;
        sourceFieldName T.liquid;
        value           nonuniform List<scalar> 
61
(
798.055330267
798.011807734
797.887237596
797.8877161
797.870948586
797.870768259
797.87107734
797.871105947
797.878792684
797.879373351
797.885125322
797.885080921
797.888271594
797.888489579
797.890785892
797.891158811
797.89005397
797.889993094
797.88746609
797.88734485
797.88595622
797.885919452
797.885753424
797.885203743
797.885211547
797.884998999
797.883377787
797.883583571
797.882605725
797.882328915
797.883819897
797.884010779
797.886310216
797.886746593
797.889312944
797.888919292
797.89144091
797.891864119
797.894727367
797.894355025
797.89905182
797.898798858
797.903190251
797.903349297
797.905970653
797.905899971
797.906438386
797.906646967
797.908149328
797.908154064
797.910157982
797.910200338
797.911946783
797.911989117
797.91308291
797.913241879
797.912908815
797.913118283
797.90968123
797.909620296
797.900300617
)
;
    }
    procBoundary2to3
    {
        type            processor;
        value           nonuniform List<scalar> 
41
(
393.610559226
335.045567899
312.369885637
304.225896475
301.433151717
300.533748552
300.246311466
300.140259957
300.087763565
300.052690028
300.027183667
300.011388867
300.004144109
300.001521398
300.000656668
300.000308267
300.000128946
300.000036051
300.00000271
300
300
300
300
300
300
300
300
300
300
300
300
300
300
300
300
300
300
300
300
300
300
)
;
    }
}


// ************************************************************************* //
