/*--------------------------------*- C++ -*----------------------------------*\
| =========                 |                                                 |
| \\      /  F ield         | OpenFOAM: The Open Source CFD Toolbox           |
|  \\    /   O peration     | Version:  2312                                  |
|   \\  /    A nd           | Website:  www.openfoam.com                      |
|    \\/     M anipulation  |                                                 |
\*---------------------------------------------------------------------------*/
FoamFile
{
    version     2.0;
    format      ascii;
    arch        "LSB;label=32;scalar=64";
    class       volScalarField;
    location    "0.81/water";
    object      T.gas;
}
// * * * * * * * * * * * * * * * * * * * * * * * * * * * * * * * * * * * * * //

dimensions      [0 0 0 1 0 0 0];

internalField   nonuniform List<scalar> 
6000
(
354.914912504
323.78321187
310.327811828
304.291747748
301.83520261
300.386884259
300.015985019
300.000085973
300.000000061
300
300
300
300
300
300
300
300
300
300
300
398.697807728
335.421951691
312.206945755
304.357523586
301.583715563
300.579915356
300.184576968
300.020568032
300.000365112
300.000000437
300
300
300
300
300
300
300
300
300
300
402.314411546
335.521907378
311.439140023
303.699301378
301.205720915
300.39923066
300.131588845
300.033442783
300.002602973
300.000024575
300.000000009
300
300
300
300
300
300
300
300
300
401.128567647
337.12566748
312.361716211
303.932683254
301.223340099
300.377439901
300.115595563
300.034457702
300.006084562
300.000222414
300.000000704
300
300
300
300
300
300
300
300
300
397.779188698
337.336328197
313.154707031
304.335981483
301.36821986
300.42191432
300.127714748
300.037697304
300.010733095
300.001036452
300.000012871
300.000000003
300
300
300
300
300
300
300
300
392.990721925
336.28968924
313.347519318
304.579464696
301.487808769
300.469626694
300.14618677
300.044436179
300.013166191
300.002724757
300.000099249
300.000000532
300
300
300
300
300
300
300
300
389.350331441
334.717931601
312.973469525
304.580272098
301.526749929
300.493325326
300.158274407
300.05010891
300.015416325
300.004723019
300.00052006
300.000005994
300.000000001
300
300
300
300
300
300
300
388.592978911
333.688692863
312.442991572
304.421951608
301.50187373
300.496019594
300.163738094
300.053821425
300.017051358
300.005354726
300.001429177
300.000053876
300.000000051
300
300
300
300
300
300
300
388.400291893
333.303953847
312.251866609
304.366304926
301.502095121
300.505221757
300.170884878
300.057969116
300.018751956
300.005824049
300.001913748
300.000265865
300.000001757
300
300
300
300
300
300
300
388.462724633
333.118299338
312.163341878
304.350195778
301.514336372
300.519304124
300.179867058
300.062824732
300.020706167
300.006270475
300.001964222
300.000612874
300.000021884
300.000000015
300
300
300
300
300
300
388.508509613
332.897439754
311.978626817
304.2865758
301.504467477
300.524534981
300.185804166
300.066921958
300.022712551
300.006735712
300.001962042
300.000665421
300.000084306
300.000000355
300
300
300
300
300
300
387.775901148
332.308645596
311.541405606
304.090076254
301.437853694
300.507276723
300.183988267
300.068621171
300.024298546
300.007253882
300.001964601
300.000600566
300.000158461
300.000002864
300.000000001
300
300
300
300
300
386.274050086
331.237760501
310.86334866
303.761893725
301.307655394
300.465374829
300.174003581
300.068064664
300.025543654
300.007887941
300.002010108
300.000538095
300.000177447
300.000010729
300.000000013
300
300
300
300
300
384.662781926
330.750047216
310.552947517
303.534445362
301.195398049
300.42526338
300.164643275
300.068366167
300.027480197
300.008964059
300.002195746
300.000506668
300.000137724
300.000022522
300.000000167
300
300
300
300
300
385.788724501
331.519991727
310.823336735
303.552935475
301.172178153
300.416041908
300.166405525
300.072976757
300.031234598
300.01085545
300.002658549
300.000544135
300.00012117
300.00003366
300.000001415
300.000000001
300
300
300
300
392.759234223
334.582094725
311.973502349
303.953057477
301.300799502
300.45988817
300.185589852
300.083449209
300.037184897
300.01370289
300.00349993
300.000685701
300.000134756
300.000032162
300.000005696
300.00000005
300
300
300
300
395.878723369
336.393916655
313.011592278
304.441891219
301.496834617
300.533272681
300.215188607
300.097370266
300.044288184
300.017039597
300.004608273
300.000920928
300.000172276
300.000037169
300.000010146
300.000000582
300.000000001
300
300
300
396.573814074
336.575171116
313.213089483
304.610833299
301.596365218
300.582549454
300.239197845
300.109910051
300.050962809
300.020209279
300.005737284
300.001196675
300.000223029
300.000045012
300.00001107
300.000002153
300.000000021
300
300
300
396.843637579
336.461199914
313.217540851
304.632350055
301.618210171
300.600617046
300.252201096
300.118631887
300.056243628
300.022803532
300.006725557
300.001467744
300.000279044
300.000053688
300.00001203
300.00000332
300.000000143
300
300
300
396.85408116
336.166908384
313.035218697
304.550364547
301.586791429
300.594584508
300.255433321
300.123432764
300.059748808
300.024586881
300.007446836
300.001666013
300.000322907
300.000060544
300.000012471
300.000002995
300.000000254
300.000000001
300
300
396.928834515
335.668977803
312.645378612
304.373148062
301.521521715
300.575894024
300.253417108
300.125585297
300.06137822
300.025561305
300.007895317
300.001784526
300.000349133
300.000064834
300.000012468
300.000002576
300.000000226
300.000000003
300
300
396.73587092
335.019621068
312.145264829
304.14500833
301.442530233
300.554538596
300.24995822
300.125183441
300.061790188
300.026149399
300.008209408
300.001868672
300.000361799
300.000066531
300.000012086
300.000002199
300.000000104
300.000000004
300
300
396.468132239
334.063590034
311.491002682
303.862187431
301.351521577
300.530890277
300.244312371
300.123662379
300.061801224
300.026696208
300.008633072
300.001960455
300.000380603
300.000068282
300.00001156
300.000001882
300
300
300
300
396.086640734
333.87623188
311.363282122
303.769652153
301.309886237
300.516982068
300.238887757
300.121971647
300.061820635
300.027488551
300.009172342
300.002221542
300.000431355
300.000072343
300.000011032
300.000001567
300
300
300
300
395.856572612
334.311120898
311.660084719
303.875423553
301.333641427
300.519509531
300.237635196
300.121109706
300.062224905
300.028350005
300.010094983
300.002530203
300.000468606
300.000075802
300.000010348
300.000001144
300
300
300
300
394.250718963
334.404840805
311.913342204
304.015352286
301.376931454
300.525476505
300.236625882
300.120637552
300.062864324
300.030131555
300.011329154
300.002824823
300.000478551
300.000070096
300.000008914
300.000000629
300
300
300
300
389.924605755
333.175790994
311.655625705
303.957067573
301.338353408
300.500116717
300.225010109
300.117670198
300.063840867
300.031974663
300.012733717
300.003222263
300.000506606
300.000064513
300.000006852
300.000000152
300
300
300
300
386.035628792
331.554215509
310.887249213
303.575588193
301.158187877
300.42871991
300.20334086
300.114439543
300.066097094
300.035071144
300.014733662
300.003828199
300.000567942
300.000066609
300.000006189
300
300
300
300
300
386.334541359
331.736851364
310.670779174
303.299757474
300.994651253
300.371388726
300.193080021
300.118159968
300.072513988
300.040478851
300.017873887
300.004778469
300.000699718
300.00008045
300.000008026
300
300
300
300
300
395.068361794
335.086823467
311.678830364
303.580536889
301.065553873
300.391681352
300.208065368
300.132191042
300.084339566
300.049221149
300.022914936
300.006542874
300.00099825
300.000119725
300.000013967
300.000000551
300
300
300
300
400.209188256
337.719795262
313.120892678
304.310062242
301.395864735
300.5065651
300.250941168
300.155856963
300.100954931
300.061032447
300.030025342
300.00943971
300.001622176
300.000215257
300.000028505
300.000002419
300
300
300
300
401.656592206
339.058872068
314.190964458
304.949155078
301.733936777
300.653381652
300.309482428
300.184810821
300.119713033
300.074286509
300.038505102
300.013370192
300.002648639
300.000397897
300.000057929
300.000006632
300
300
300
300
402.231662802
339.400174763
314.628184091
305.288474361
301.949488156
300.769573711
300.364033854
300.21296282
300.137634483
300.086993962
300.047106508
300.01785077
300.003984483
300.000673406
300.000105786
300.000013925
300.000000597
300
300
300
402.345893105
339.746122823
314.916598307
305.504384064
302.080036291
300.849785106
300.407152542
300.236729712
300.152857004
300.097630457
300.054299681
300.022038622
300.005445008
300.000995066
300.0001661
300.00002321
300.000001707
300
300
300
402.618865558
339.889986733
315.090237333
305.609532427
302.149609885
300.897526906
300.436707206
300.254492643
300.164508804
300.105402666
300.059303237
300.025047687
300.0066797
300.001293592
300.000223103
300.000032383
300.000002836
300
300
300
402.663158073
339.876519351
315.095235825
305.622778355
302.164190781
300.917346753
300.453081055
300.266009651
300.172278469
300.109961653
300.061927582
300.026577332
300.007443522
300.001500032
300.000264909
300.000039466
300.000003592
300
300
300
402.814873896
339.437928403
314.867074424
305.525191608
302.134485044
300.914438622
300.458403338
300.271811668
300.176158515
300.111313842
300.062262648
300.026781143
300.007659227
300.00160014
300.00028316
300.00004325
300.000003978
300
300
300
402.58462935
338.281596814
314.172117349
305.26522993
302.048133883
300.887455044
300.45314974
300.272099192
300.17599278
300.109828406
300.06068867
300.025905501
300.007510372
300.001598664
300.000284302
300.000044229
300.000003962
300
300
300
402.393767712
337.435425149
313.554297002
304.979738504
301.935395353
300.846250932
300.440515992
300.267827375
300.171864462
300.106103848
300.057830327
300.024530626
300.007157633
300.001551906
300.000273822
300.000043826
300.000003664
300
300
300
402.017261717
337.013922114
313.189081159
304.766111187
301.83057209
300.803252205
300.424780874
300.259778385
300.165013135
300.100668711
300.054310875
300.022986548
300.006805126
300.001487763
300.000262631
300.000043466
300.000003284
300
300
300
401.887736227
336.849632944
313.031557909
304.653699253
301.762359612
300.771045914
300.410229278
300.248684835
300.156776989
300.094676099
300.050801314
300.021710309
300.006550241
300.001441816
300.000260923
300.000043603
300.000002912
300
300
300
401.699985715
336.571647512
312.836495455
304.557314329
301.716760151
300.749434119
300.395747974
300.237012418
300.147988139
300.088837704
300.047892156
300.020886446
300.006513987
300.001421404
300.000260721
300.000042552
300.000002258
300
300
300
401.589561513
335.89869477
312.411178447
304.372064128
301.648797065
300.722378686
300.376269479
300.224221933
300.139336075
300.083862661
300.045881758
300.020763329
300.006719575
300.001461126
300.000258675
300.000039353
300.000001183
300
300
300
401.508380969
336.135806409
312.451494669
304.308055736
301.596760028
300.691611111
300.355945253
300.211484278
300.131889598
300.080362654
300.045285929
300.021394653
300.007228713
300.001550695
300.000253676
300.000033545
300.000000176
300
300
300
399.270839857
336.2393277
312.601585802
304.317663243
301.560699071
300.657990144
300.335398382
300.200417668
300.126699239
300.079158629
300.046273189
300.023048164
300.008075401
300.001694705
300.000238441
300.000025688
300
300
300
300
392.597046382
334.659762595
312.313860305
304.236903442
301.492712615
300.61365617
300.314675969
300.192114579
300.124984188
300.081008125
300.049553596
300.025670666
300.009204021
300.001828111
300.000209672
300.000018022
300
300
300
300
385.826758
332.510997927
311.725113224
304.0583805
301.410845989
300.570545019
300.299203823
300.189851434
300.127969207
300.085802326
300.054275555
300.029105894
300.010758137
300.002047628
300.000190355
300.000013095
300.000000442
300
300
300
383.797747483
331.670055288
311.490489129
304.040970376
301.418652414
300.570862594
300.302400546
300.196592309
300.136444851
300.094378656
300.061689239
300.034390579
300.013294682
300.00255926
300.000213089
300.000012884
300.000001529
300
300
300
387.119589707
333.3227697
312.383429753
304.489668543
301.627816628
300.6545432
300.336596148
300.216594454
300.152333146
300.107705946
300.07228021
300.041882785
300.01721668
300.003617678
300.000331205
300.000021944
300.000002627
300.000000356
300
300
394.417635147
336.538901786
313.932541238
305.241462504
301.975054199
300.803448182
300.399148238
300.248437749
300.173914022
300.124189004
300.08493109
300.051028682
300.022494506
300.005399738
300.000617537
300.000051303
300.00000514
300.000000632
300
300
398.284872032
338.779379092
315.179542008
305.898142609
302.30076895
300.955438303
300.468413692
300.283575175
300.196101066
300.140473993
300.097466088
300.060541411
300.028535484
300.007837288
300.001122897
300.000116583
300.000012186
300.000000923
300
300
399.951515874
339.610640148
315.690332856
306.21690923
302.491435616
301.060753897
300.522940785
300.313123477
300.214863834
300.154181815
300.10811817
300.068961959
300.034445079
300.010634626
300.001834799
300.000227128
300.000026539
300.000001947
300
300
400.675230288
339.339265716
315.489248103
306.188874271
302.529437832
301.104567719
300.554464761
300.333351501
300.228688998
300.164520328
300.116300025
300.075661397
300.039487742
300.013421371
300.002687959
300.000380169
300.000049154
300.000004348
300
300
401.265805009
339.007287548
315.177223415
306.034713126
302.489052947
301.108063239
300.567480081
300.345128557
300.237918768
300.171776987
300.122438918
300.080768389
300.043330988
300.015772631
300.003550439
300.000559551
300.00007873
300.000008282
300
300
401.537310253
338.659538798
314.797845789
305.811918812
302.399471175
301.083724897
300.566601537
300.350143464
300.243388074
300.176764896
300.127009211
300.084473995
300.045997311
300.017501078
300.004253776
300.000731877
300.000111209
300.00001324
300
300
401.90641842
338.207849712
314.33813948
305.535010069
302.273818203
301.039131665
300.555471926
300.350095572
300.246087056
300.180214364
300.130301338
300.086943444
300.047567761
300.018521181
300.004687323
300.000863371
300.000140203
300.000018061
300
300
401.953634484
337.572553106
313.760504623
305.196313578
302.114557297
300.977164046
300.535930099
300.346071783
300.246796477
300.182432259
300.132469244
300.088243055
300.048063493
300.018741461
300.004840808
300.000944553
300.000161082
300.000021678
300.000000018
300
401.853546957
336.411541914
312.911683703
304.740740916
301.908385483
300.895842857
300.508010409
300.338337506
300.245791843
300.183512394
300.133544694
300.088285746
300.047388751
300.018122359
300.004761016
300.000971654
300.000169258
300.000023175
300.000000051
300
401.400159248
335.716945971
312.329667085
304.345421303
301.704088388
300.808864561
300.475911904
300.328296912
300.243602725
300.183650346
300.133526486
300.086906653
300.045491029
300.016844484
300.004475466
300.000937683
300.000164072
300.00002232
300.000000008
300
400.934899212
335.41071371
312.032693097
304.073360886
301.535287906
300.729712885
300.444909819
300.31804321
300.241036237
300.183124455
300.132372674
300.084134949
300.042494384
300.015381126
300.00407713
300.000863424
300.00014724
300.00001949
300
300
400.011886775
335.172622382
311.878445215
303.911667135
301.413874686
300.666802251
300.419254833
300.30958578
300.238968547
300.182228136
300.130090117
300.080445332
300.039071897
300.013779506
300.003625601
300.000762239
300.000124464
300.000015624
300
300
397.291788964
334.236192094
311.542879982
303.758005434
301.315784067
300.617564662
300.40007885
300.30400844
300.238066654
300.18126781
300.127009036
300.076416182
300.035896792
300.012381242
300.003216818
300.000653351
300.000102036
300.000011886
300
300
392.879990706
332.327365193
310.819422895
303.485268193
301.202215619
300.573773487
300.386340611
300.301604251
300.238803138
300.180710557
300.124148985
300.072939624
300.033484598
300.011363906
300.002894845
300.00055969
300.000084144
300.000009103
300
300
388.195477655
330.912515208
310.294440589
303.250867881
301.095267262
300.538586757
300.378914207
300.303000072
300.241761061
300.181399243
300.122901692
300.071318749
300.03248908
300.010928302
300.002710387
300.000502589
300.000073759
300.000007746
300
300
384.744105083
330.355021577
310.151269692
303.088241963
301.012903405
300.516733675
300.379346562
300.308898298
300.247508534
300.184634035
300.124564289
300.072583371
300.033450845
300.011318592
300.002775084
300.000509175
300.000074797
300.000008324
300
300
383.104644834
330.400177412
310.20721962
303.027021032
300.994767384
300.523885961
300.391529033
300.320332803
300.25674577
300.191517753
300.129817041
300.076846891
300.036577202
300.012873436
300.003289037
300.000626159
300.000094198
300.000011902
300
300
382.246187317
330.40090609
310.405627481
303.16655171
301.118003756
300.589564628
300.424903238
300.340137947
300.270855494
300.202366083
300.138480907
300.083824109
300.041685143
300.015666878
300.004372585
300.000923596
300.000150607
300.000021313
300.000000748
300
381.60543668
330.281303401
310.739261733
303.646444159
301.430900643
300.739230572
300.491450748
300.373118731
300.290696802
300.216455916
300.149555876
300.092750806
300.048319967
300.019611979
300.006048183
300.001450182
300.000270616
300.000041658
300.00000393
300
381.350186013
330.65061898
311.667212422
304.498703375
301.934841712
300.980129723
300.597999707
300.422207836
300.316324219
300.232502546
300.161626475
300.102481201
300.055886152
300.024380687
300.008301714
300.0022295
300.000479753
300.000083247
300.00001092
300
381.389757639
331.243124613
312.836513521
305.500084619
302.538321399
301.281818207
300.73603943
300.485035302
300.346036904
300.248980505
300.173324838
300.112135238
300.063667923
300.029755193
300.011048844
300.003298815
300.000799536
300.000158532
300.000024617
300.000001731
381.46168031
331.456796915
313.707055061
306.352985387
303.08944997
301.576671359
300.879651492
300.5520329
300.37534461
300.263987797
300.18365915
300.120919109
300.071407748
300.035448055
300.014320383
300.004689236
300.001271299
300.00028511
300.000052023
300.000006638
382.133867785
331.126225075
313.85978052
306.760859264
303.425958628
301.785940762
300.993758111
300.606771535
300.397482186
300.274991206
300.191560682
300.128580218
300.078739907
300.041544958
300.018098195
300.006503144
300.001945864
300.000492541
300.0001045
300.000017712
382.510611779
329.857881894
313.145899404
306.566804713
303.433838352
301.840037427
301.039071809
300.627433499
300.404845732
300.278881656
300.196130243
300.134628327
300.085834108
300.04797732
300.022615193
300.008843511
300.002920141
300.00082444
300.000203049
300.00004366
382.970014961
328.689392252
312.134495069
305.997052037
303.171773836
301.738349676
300.998472335
300.601630657
300.392630593
300.274304333
300.197020784
300.13956079
300.092847638
300.055270953
300.028097892
300.011994278
300.004322643
300.001360878
300.000387431
300.000102448
382.810464101
328.139896422
311.165257012
305.299149078
302.766946591
301.526983187
300.880949118
300.539513832
300.364005804
300.263233462
300.196155334
300.144419867
300.10097604
300.064010373
300.0352338
300.016300216
300.006399947
300.002249951
300.00072986
300.000223114
379.730004682
327.081549612
310.324063314
304.652032391
302.353645683
301.279076946
300.739649526
300.471612687
300.334415108
300.254050882
300.197763537
300.152253607
300.111917355
300.075658601
300.044889689
300.022465219
300.009500384
300.003625626
300.001291716
300.000434331
375.897192696
326.714613665
310.027762779
304.411807702
302.168867061
301.150436396
300.661506723
300.432787053
300.320524856
300.254665819
300.206607892
300.165318816
300.126817638
300.090358438
300.057216436
300.030566915
300.013848139
300.00565855
300.002132963
300.000750202
377.995104559
330.62071283
312.900871506
306.101600164
303.057899691
301.540355261
300.792702307
300.467344275
300.334430707
300.26961434
300.224576857
300.184579207
300.145865327
300.107891985
300.071851396
300.040871791
300.019709186
300.008377565
300.003223256
300.001142856
399.408148204
349.518471523
324.425685027
311.927340486
305.707600745
302.59718607
301.149877437
300.574226503
300.375041122
300.298026122
300.25106381
300.209298162
300.168329571
300.127373539
300.08787299
300.052461281
300.026469049
300.011461792
300.00439966
300.00153617
468.716300047
378.69551105
335.245588905
315.765077426
307.082677954
303.106170655
301.344611945
300.654441494
300.417612568
300.329998157
300.278043536
300.232626128
300.188660244
300.145244264
300.102639103
300.063221661
300.032690936
300.014217879
300.005376844
300.0018245
545.166122588
390.737805192
335.987993837
315.096356499
306.580479423
302.900564503
301.310444547
300.678011933
300.448288558
300.355827047
300.298867486
300.249747125
300.20303186
300.15760245
300.112840374
300.070372169
300.036624895
300.015808112
300.005843833
300.001914564
564.595930176
389.889966262
331.540766929
312.229280535
305.210402151
302.358522733
301.145199349
300.650301112
300.457146119
300.370320974
300.310524837
300.258637867
300.209981885
300.163171074
300.116958275
300.072713505
300.037491244
300.015884626
300.005702217
300.001802987
563.039509224
377.821839932
324.386526068
308.85740454
303.759382612
301.792997899
300.958142431
300.600886248
300.451930871
300.373218576
300.312936606
300.259885759
300.210447008
300.162982155
300.115692236
300.070889793
300.035817284
300.014775469
300.005151623
300.001581653
545.565955393
361.491991481
316.786558446
305.795328416
302.551862724
301.3372363
300.804834902
300.555118379
300.441347244
300.368002709
300.3088877
300.25607853
300.206747879
300.158768793
300.110553023
300.066411164
300.032773804
300.01321897
300.004517765
300.001392648
528.879754673
349.836690271
311.831480787
303.835511789
301.762619465
301.029749422
300.683360888
300.51820115
300.426157303
300.359049669
300.30201124
300.250095045
300.200815794
300.151640658
300.103742254
300.061206965
300.029798261
300.011942499
300.004165715
300.001368688
509.551983859
346.640683408
311.354589718
303.291334268
301.372945704
300.832367279
300.60688377
300.490218514
300.412895602
300.350653061
300.295382538
300.243779669
300.193258582
300.143754848
300.097190318
300.057062569
300.028035862
300.011691179
300.004371721
300.001604463
464.797803275
351.726130087
316.487934637
305.344523649
301.73929614
300.831781637
300.585120593
300.477580071
300.405387
300.345106536
300.289931335
300.236850656
300.185599749
300.136975365
300.092600146
300.055296162
300.028535537
300.012828228
300.00529735
300.002169134
424.283259077
350.014349951
319.650939836
307.486931693
302.619232321
301.04950511
300.623392766
300.481916389
300.403576684
300.341106277
300.283955156
300.230019209
300.179179804
300.132480368
300.091084239
300.056845328
300.031520724
300.015590818
300.007154581
300.003205234
398.27532502
342.694775601
319.033344734
308.162989116
303.231159517
301.318667632
300.701145613
300.498464477
300.4035959
300.336434262
300.277800902
300.223938021
300.174873518
300.131146939
300.093314754
300.061616958
300.037123594
300.02031138
300.010099962
300.004811333
384.548358198
335.650986565
316.537464786
307.609535485
303.295566389
301.444977928
300.757671126
300.508560965
300.401094061
300.330968808
300.272242192
300.220016241
300.173722273
300.133690337
300.099029921
300.069561139
300.045533443
300.02687481
300.014356459
300.007215876
378.940218921
331.134080126
314.000962621
306.572066867
302.985657165
301.387863097
300.747572554
300.501603914
300.395343518
300.326184423
300.269322145
300.219541896
300.176695968
300.139875001
300.10823899
300.080715331
300.056113653
300.035482536
300.020221373
300.010814903
376.891715896
328.819915201
312.259352095
305.634202689
302.593335125
301.251818464
300.70556638
300.490875976
300.392368796
300.326021288
300.27113086
300.224139339
300.184081298
300.150507815
300.121148374
300.093753543
300.068604687
300.046174019
300.02811004
300.015808312
376.165219605
328.151072195
311.519617468
305.192109992
302.437213986
301.229425802
300.718758575
300.505595232
300.403173232
300.335549415
300.281563908
300.236302084
300.197926139
300.165128664
300.136127285
300.109103736
300.083327947
300.058901692
300.037741583
300.02205363
378.555270231
331.106868679
313.437602663
306.381580231
303.255832256
301.722625953
300.950636529
300.595122547
300.437734376
300.354984082
300.298823885
300.254349078
300.217017098
300.184521215
300.155017574
300.127008903
300.099565057
300.072788127
300.048398806
300.029105855
396.796509796
346.116699213
322.186369961
310.980997734
305.642982828
302.855397401
301.390641738
300.726802333
300.476138105
300.382088104
300.32419275
300.279844277
300.241812884
300.207749769
300.176082193
300.145685032
300.115774939
300.086272223
300.058759749
300.036081401
460.293634316
373.050464097
332.276053352
314.765636376
307.070194522
303.38582017
301.572994185
300.775239411
300.514008078
300.413548817
300.353843233
300.308727564
300.26803267
300.230327376
300.194960572
300.161329785
300.128823134
300.097078733
300.067040553
300.041747625
538.402232425
385.605427976
333.005405241
313.962493791
306.395518678
302.990925656
301.42259217
300.773423392
300.539986147
300.441516484
300.381925838
300.334091843
300.288803351
300.246979229
300.208124306
300.1716429
300.136853067
300.103166409
300.071230552
300.044146073
561.069524852
384.041236546
328.556862361
311.249506664
305.019465835
302.395777129
301.229612035
300.742152956
300.551654277
300.461774578
300.400301971
300.34885045
300.300186453
300.255069108
300.213381468
300.174551156
300.137761133
300.10236462
300.06917404
300.041724038
557.565728813
373.253381666
322.723482599
308.393168496
303.721373494
301.864597215
301.052730143
300.70763388
300.555613093
300.469949271
300.407333845
300.351989295
300.300721324
300.253594944
300.210231686
300.169807333
300.131283564
300.094150647
300.060628656
300.034706868
538.536253246
358.78727422
316.261000332
305.740702847
302.642543027
301.453657956
300.928343515
300.676356219
300.548198772
300.467588168
300.402813796
300.345246832
300.292767469
300.244777769
300.200395984
300.158360136
300.11760876
300.079504002
300.047751332
300.025232678
508.958939898
343.264658388
310.328171048
303.811144701
301.946769169
301.20079204
300.828218174
300.639193452
300.532915441
300.45558645
300.39035459
300.332243062
300.279525032
300.230971282
300.185022379
300.140520327
300.098610388
300.061966417
300.033919559
300.016140137
491.144149818
334.695570714
308.211764398
302.885002014
301.516458022
301.002917619
300.741968452
300.604268152
300.512117381
300.438214222
300.37383148
300.316022574
300.262998001
300.212809193
300.164526944
300.119236235
300.078403171
300.045053541
300.02215806
300.009392631
486.36406219
333.40673388
307.948490409
302.578009544
301.284035804
300.871287579
300.684760058
300.5739026
300.490556168
300.419560584
300.356138968
300.298150391
300.243433263
300.191335224
300.142731229
300.098141629
300.060062159
300.03158509
300.014053636
300.005327775
477.378915935
336.082465277
310.209531535
303.143835415
301.278842703
300.823129737
300.651653319
300.550618533
300.471735872
300.402268947
300.338654139
300.278896452
300.222641561
300.17044168
300.122440215
300.080114228
300.046261377
300.022797187
300.009334159
300.003244322
474.240167121
345.243474005
315.417892696
305.193863461
301.721291654
300.878242566
300.645535611
300.537129988
300.457687934
300.387262343
300.321549593
300.260369911
300.20397712
300.152282624
300.106168957
300.067671227
300.038093762
300.018112675
300.007073942
300.002535572
474.85049825
356.642114552
320.827815479
307.756674809
302.624209408
301.076458897
300.678190309
300.536394995
300.448658862
300.374437859
300.307058259
300.245498188
300.189203132
300.139202982
300.096671078
300.061595164
300.034726173
300.016521984
300.006574577
300.002463255
487.935530278
366.643564566
325.672039054
310.371150289
303.910541427
301.466324004
300.767594277
300.552310585
300.446205272
300.366608643
300.297631539
300.235499405
300.180205124
300.133562307
300.093847291
300.060825252
300.035148121
300.017407574
300.007415925
300.002848786
514.835371515
372.726882354
329.280375282
312.564001437
305.14085855
301.907029438
300.887666136
300.580397925
300.450190852
300.364472502
300.293859856
300.231435939
300.178500949
300.134411049
300.096304153
300.064121541
300.038575507
300.020423745
300.00939716
300.003726623
539.583635422
378.632176424
333.521828462
314.885124483
306.235225076
302.290907603
301.007406253
300.614153318
300.460100581
300.367703173
300.295936447
300.23345848
300.18258306
300.140016125
300.102682004
300.070436139
300.044309144
300.025110609
300.012466063
300.005226184
555.524808153
389.610166499
338.243845573
316.95034898
306.980822438
302.537748641
301.094961775
300.643724012
300.471574377
300.374803585
300.30185579
300.240273579
300.190506269
300.148746086
300.111456646
300.078592665
300.051489284
300.030843439
300.016409085
300.007339474
566.820380537
399.458892974
341.234591744
317.942749727
307.05713459
302.559157516
301.115373183
300.654981897
300.480092305
300.38220034
300.310151493
300.249438939
300.200411083
300.158860639
300.121071158
300.087339364
300.059049391
300.036779354
300.020506796
300.009704679
576.496844592
401.866494543
341.167579133
317.375195251
306.348903163
302.345808109
301.059383149
300.645229621
300.481797612
300.388771883
300.318481797
300.260006572
300.210751391
300.168996179
300.130381077
300.095623176
300.065958423
300.042028441
300.02399457
300.011678457
583.711305989
400.704594162
339.26116256
314.953886367
305.183540739
301.96050051
300.949071342
300.616386159
300.478702503
300.393154
300.326889345
300.270012673
300.220686576
300.178242638
300.13863604
300.102596865
300.071432297
300.045873632
300.0262908
300.012703351
577.833625777
395.928051471
335.30197289
311.515615583
303.87507393
301.536700568
300.819706615
300.583720716
300.472646366
300.397435513
300.334673993
300.279873008
300.230142382
300.186696141