/*--------------------------------*- C++ -*----------------------------------*\
| =========                 |                                                 |
| \\      /  F ield         | OpenFOAM: The Open Source CFD Toolbox           |
|  \\    /   O peration     | Version:  2312                                  |
|   \\  /    A nd           | Website:  www.openfoam.com                      |
|    \\/     M anipulation  |                                                 |
\*---------------------------------------------------------------------------*/
FoamFile
{
    version     2.0;
    format      ascii;
    arch        "LSB;label=32;scalar=64";
    class       volScalarField;
    location    "0.53/water";
    object      nut.gas;
}
// * * * * * * * * * * * * * * * * * * * * * * * * * * * * * * * * * * * * * //

dimensions      [0 2 -1 0 0 0 0];

internalField   nonuniform List<scalar> 
1497
(
2.24029529199e-06
1.84074537848e-06
1.53968182098e-06
1.32289355926e-06
1.1561252737e-06
9.7473296711e-07
7.29548198893e-07
4.49044802067e-07
2.2345627611e-07
9.96786027648e-08
4.86716535251e-08
3.15911204234e-08
2.96974649794e-08
5.91666517156e-06
6.1589004755e-06
5.60565770135e-06
4.78743862775e-06
4.00947181649e-06
3.3121772849e-06
2.70445715973e-06
2.19843443116e-06
1.80455295089e-06
1.5220165896e-06
1.33037365331e-06
1.17336631902e-06
9.79184746769e-07
7.19664549729e-07
4.41835022624e-07
2.28006367609e-07
1.08272890213e-07
5.49107607481e-08
3.48891662661e-08
3.06808585973e-08
5.3383540915e-06
5.50698659011e-06
5.0406730755e-06
4.40671393642e-06
3.78343475925e-06
3.18047733241e-06
2.6219597129e-06
2.14387491807e-06
1.77502528442e-06
1.5233317558e-06
1.35480526731e-06
1.1961309202e-06
9.83501766845e-07
7.11772709505e-07
4.41502547052e-07
2.40033299063e-07
1.22363154136e-07
6.46996510082e-08
4.0313870708e-08
3.27861351217e-08
4.97964094792e-06
4.80598857406e-06
4.3863480651e-06
3.91117986295e-06
3.44451607741e-06
2.96164171713e-06
2.48820768883e-06
2.07366233975e-06
1.75990739927e-06
1.55220832721e-06
1.40025183542e-06
1.2300714407e-06
9.94157867347e-07
7.12586725686e-07
4.53433060016e-07
2.6327633717e-07
1.44927875767e-07
8.03460199718e-08
4.95355796263e-08
3.71560174635e-08
4.70951609563e-06
4.29140193435e-06
3.86002662643e-06
3.47468342474e-06
3.11570610609e-06
2.73246248685e-06
2.34889507733e-06
2.01836764127e-06
1.7788636343e-06
1.61597240185e-06
1.47211736154e-06
1.28192452444e-06
1.01911642498e-06
7.30486161506e-07
4.82770903641e-07
3.01111207154e-07
1.79193969131e-07
1.04842210509e-07
6.48711491398e-08
4.52965726813e-08
4.49345877962e-06
4.01819491125e-06
3.57371716401e-06
3.22654061687e-06
2.91299249621e-06
2.58533839123e-06
2.2726626504e-06
2.02257382264e-06
1.85053485894e-06
1.72125807094e-06
1.57533272179e-06
1.3583203955e-06
1.07010271915e-06
7.74778184004e-07
5.33144225696e-07
3.55006848278e-07
2.26968013139e-07
1.41230816486e-07
8.95077062099e-08
5.91898687905e-08
4.43985830239e-06
3.99577623224e-06
3.54966598383e-06
3.19085958826e-06
2.86840958556e-06
2.55674676603e-06
2.28747003913e-06
2.0951905007e-06
1.9708058549e-06
1.86259325383e-06
1.70782062922e-06
1.46763702993e-06
1.15864340405e-06
8.49844669174e-07
6.0109437548e-07
4.19108298901e-07
2.87611836063e-07
1.94118234055e-07
1.27660136468e-07
8.0801580371e-08
4.58221952845e-06
4.1603208499e-06
3.68903677483e-06
3.27578251702e-06
2.91496433084e-06
2.59479913903e-06
2.34515825179e-06
2.18994079244e-06
2.10227990052e-06
2.01510079015e-06
1.86082854687e-06
1.60776869463e-06
1.27380080159e-06
9.34264914971e-07
6.65432118122e-07
4.85507573968e-07
3.63269148291e-07
2.65407326876e-07
1.79843505934e-07
1.10170318783e-07
4.85094965859e-06
4.34675946187e-06
3.78178620412e-06
3.30604403411e-06
2.91298387868e-06
2.58992294781e-06
2.35975138637e-06
2.23955169052e-06
2.19394873679e-06
2.1409680478e-06
1.99995595643e-06
1.73242262451e-06
1.36129711048e-06
9.91661269022e-07
7.23030014094e-07
5.57638634101e-07
4.43992723098e-07
3.42070452257e-07
2.37335061075e-07
1.42698880963e-07
4.78970363273e-06
4.19956431347e-06
3.59174628109e-06
3.13471490022e-06
2.78841988978e-06
2.51101517124e-06
2.31746587142e-06
2.23111379224e-06
2.22132471571e-06
2.19809552669e-06
2.06780843656e-06
1.78711236583e-06
1.39955762507e-06
1.03364054065e-06
7.82389058872e-07
6.25406797124e-07
5.13111933835e-07
4.06083381316e-07
2.86169905754e-07
1.70292499612e-07
4.18090039464e-06
3.80925127776e-06
3.3195590565e-06
2.92804329782e-06
2.62661076477e-06
2.39355954887e-06
2.24447654608e-06
2.19244298002e-06
2.20178625811e-06
2.18487465788e-06
2.05290406369e-06
1.77286630666e-06
1.4044171621e-06
1.06737718019e-06
8.32011273894e-07
6.76398209801e-07
5.61601293542e-07
4.49474213485e-07
3.18131726211e-07
1.87418144642e-07
3.65330927159e-06
3.46434881466e-06
3.12924852624e-06
2.79799436151e-06
2.50501343809e-06
2.28669016298e-06
2.17296086713e-06
2.15131233386e-06
2.16523622399e-06
2.13248913263e-06
1.98600143601e-06
1.71344344894e-06
1.37788473652e-06
1.07532916044e-06
8.55668991031e-07
7.04446920701e-07
5.89926775331e-07
4.73642245433e-07
3.33127356732e-07
1.93656058192e-07
3.48277026214e-06
3.42870265728e-06
3.15642700532e-06
2.78096697694e-06
2.43012207312e-06
2.20424800619e-06
2.11851194813e-06
2.11491268027e-06
2.11605725944e-06
2.05224996016e-06
1.88304521064e-06
1.61592619956e-06
1.31300740096e-06
1.04947720917e-06
8.52618347895e-07
7.13569366115e-07
6.03465061492e-07
4.83376440259e-07
3.34828675267e-07
1.91944022864e-07
3.7079974423e-06
3.69710295443e-06
3.28004127619e-06
2.73744521644e-06
2.31919477732e-06
2.1128139305e-06
2.06233638155e-06
2.06382505681e-06
2.03822725468e-06
1.93799679991e-06
1.74796517987e-06
1.49141327479e-06
1.22601243475e-06
1.00286514984e-06
8.34694113827e-07
7.13254927664e-07
6.0893520674e-07
4.83439691531e-07
3.27869070207e-07
1.86717442467e-07
4.03081368516e-06
3.86918608676e-06
3.21644302246e-06
2.55369955679e-06
2.14607254311e-06
2.00593962762e-06
1.99070899278e-06
1.98266528376e-06
1.92467008501e-06
1.79370609684e-06
1.59497299582e-06
1.36091335837e-06
1.13715716294e-06
9.53068243208e-07
8.15680670835e-07
7.12588652998e-07
6.11436273067e-07
4.77687318683e-07
3.17646465558e-07
1.82713906956e-07
4.41774276975e-06
3.99901033081e-06
3.13281853799e-06
2.35202582405e-06
1.95446760046e-06
1.88380659455e-06
1.89974297773e-06
1.87623516603e-06
1.79128068606e-06
1.64130143277e-06
1.44796447812e-06
1.2438439591e-06
1.06067083688e-06
9.14681433242e-07
8.063661568e-07
7.17634980116e-07
6.1384381621e-07
4.70471494746e-07
3.10495410224e-07
1.84173889426e-07
4.92790206566e-06
4.24827170423e-06
3.16311863332e-06
2.27550710963e-06
1.85047277004e-06
1.78542321506e-06
1.81253363954e-06
1.77628064451e-06
1.67076109926e-06
1.5168811181e-06
1.33559892604e-06
1.16081311033e-06
1.01331177614e-06
9.00080435552e-07
8.14175559864e-07
7.3122012996e-07
6.18999696756e-07
4.68593067542e-07
3.13248265388e-07
1.94795028373e-07
5.37231453438e-06
4.56742146193e-06
3.36342540224e-06
2.40786884307e-06
1.91718073623e-06
1.77546411027e-06
1.7684353226e-06
1.72343933541e-06
1.60923155006e-06
1.45493474623e-06
1.28867934889e-06
1.13451070184e-06
1.00973130937e-06
9.17237285126e-07
8.41524398156e-07
7.54470889105e-07
6.32913979663e-07
4.81181297588e-07
3.32504208186e-07
2.17426546723e-07
6.00641782417e-06
5.14241325986e-06
3.8937030132e-06
2.84010771509e-06
2.20156240109e-06
1.90525578253e-06
1.80433513697e-06
1.7366556809e-06
1.62399279985e-06
1.47212181787e-06
1.31103130089e-06
1.16570342256e-06
1.05078877201e-06
9.63340056116e-07
8.8533428515e-07
7.90560559169e-07
6.64481000697e-07
5.16211545839e-07
3.71776291844e-07
2.520538604e-07
6.54952530925e-06
5.74683248451e-06
4.4893567462e-06
3.43043162101e-06
2.65622581927e-06
2.18266765097e-06
1.93694040748e-06
1.80668221109e-06
1.68771376932e-06
1.54164865473e-06
1.38181477249e-06
1.23441181585e-06
1.11658155402e-06
1.02519216003e-06
9.4117110664e-07
8.42427952638e-07
7.17732773366e-07
5.73486869824e-07
4.26691032638e-07
2.93534947219e-07
6.67822545066e-06
6.17502023506e-06
5.00584487586e-06
3.99482012115e-06
3.18235250893e-06
2.55441932409e-06
2.14478990437e-06
1.91427290785e-06
1.76515572981e-06
1.62049463568e-06
1.4629840458e-06
1.31126635332e-06
1.18571696348e-06
1.08784857574e-06
1.00060597924e-06
9.02914732231e-07
7.82639466093e-07
6.39511841545e-07
4.83124392354e-07
3.31130075735e-07
6.67000410333e-06
6.41325464436e-06
5.41739694399e-06
4.44759826238e-06
3.61324637513e-06
2.91919707923e-06
2.38935967217e-06
2.04604663862e-06
1.83834386374e-06
1.679449273e-06
1.52267328111e-06
1.36987954258e-06
1.23935007931e-06
1.13683625481e-06
1.04920781367e-06
9.55201569797e-07
8.38351786429e-07
6.91897011212e-07
5.21466653645e-07
3.50770431211e-07
6.35150337562e-06
6.36795601858e-06
5.56750668249e-06
4.64189398065e-06
3.79076173014e-06
3.06880695226e-06
2.51471744709e-06
2.13791178287e-06
1.89459569312e-06
1.71377292358e-06
1.54900928596e-06
1.39501630654e-06
1.26420989871e-06
1.16217807513e-06
1.07688602108e-06
9.85256265894e-07
8.66467230592e-07
7.10248536318e-07
5.23850525403e-07
3.39113611315e-07
5.89538156488e-06
6.12408855223e-06
5.47549550666e-06
4.56687590128e-06
3.69407642999e-06
2.9762934609e-06
2.45720427695e-06
2.11547567368e-06
1.88654739966e-06
1.70472131121e-06
1.53763970097e-06
1.38676331177e-06
1.26237523099e-06
1.16643393253e-06
1.08363421847e-06
9.8796091992e-07
8.57133989024e-07
6.82897331354e-07
4.80416881116e-07
2.91248290303e-07
5.62093728362e-06
5.91789148743e-06
5.26249947281e-06
4.31200854146e-06
3.42642297382e-06
2.75262766793e-06
2.3101654693e-06
2.02938611882e-06
1.82850605838e-06
1.65553874837e-06
1.49546777479e-06
1.35537933667e-06
1.24387904391e-06
1.15620263223e-06
1.07107725267e-06
9.60829080956e-07
8.06536821879e-07
6.08395820188e-07
3.95745748202e-07
2.18886357754e-07
5.5541151707e-06
5.65540182561e-06
4.8590058226e-06
3.94562779379e-06
3.14943725805e-06
2.55012427476e-06
2.17745902964e-06
1.93852747795e-06
1.75290766879e-06
1.58668899095e-06
1.43795317085e-06
1.31496482935e-06
1.21904867315e-06
1.135744688e-06
1.03857425815e-06
9.0243072808e-07
7.16710948998e-07
4.96785793741e-07
2.90796702002e-07
1.48157297015e-07
5.72503190913e-06
5.56497468205e-06
4.6434968295e-06
3.74247709618e-06
2.95063892313e-06
2.38759477013e-06
2.05752435248e-06
1.84551636504e-06
1.67242684871e-06
1.5177630063e-06
1.38659643664e-06
1.28313311988e-06
1.19799526457e-06
1.10803276411e-06
9.863931823e-07
8.14903015513e-07
5.96383591189e-07
3.70141834075e-07
1.97120974988e-07
9.91225190788e-08
5.95703350037e-06
5.68485571475e-06
4.73289614069e-06
3.75448232424e-06
2.8726260264e-06
2.23845761328e-06
1.90520760198e-06
1.72925049617e-06
1.59017860867e-06
1.46340515692e-06
1.35669001609e-06
1.26888011683e-06
1.18227409697e-06
1.07114374221e-06
9.13332124397e-07
7.02032553005e-07
4.63358116314e-07
2.60106865408e-07
1.35029062761e-07
6.71510811944e-08
6.29363747864e-06
6.01637732794e-06
4.99668534307e-06
3.92492969624e-06
2.93998216649e-06
2.16759171344e-06
1.74792028877e-06
1.58908635497e-06
1.50489514473e-06
1.42502075325e-06
1.34687150018e-06
1.2653649952e-06
1.16221128961e-06
1.01662166502e-06
8.17127058238e-07
5.77186121661e-07
3.47736726199e-07
1.87313140174e-07
9.68152138627e-08
4.33053662477e-08
6.39149624506e-06
6.10572135523e-06
5.18369053989e-06
4.13811240325e-06
3.1053884674e-06
2.2074218586e-06
1.64776247821e-06
1.45746329904e-06
1.4253184292e-06
1.39886366697e-06
1.34405597679e-06
1.25486123931e-06
1.12239583845e-06
9.39065071188e-07
7.10401263699e-07
4.69230329278e-07
2.70374400597e-07
1.4343436739e-07
7.20769833962e-08
3.19810786525e-08
6.5246912038e-06
6.33418345526e-06
5.42578727161e-06
4.36941428505e-06
3.30261257269e-06
2.31509704509e-06
1.62133262764e-06
1.3689387741e-06
1.36750578704e-06
1.37941344356e-06
1.33077419831e-06
1.22207273307e-06
1.06094580663e-06
8.54194638562e-07
6.20307872598e-07
3.97393565615e-07
2.24012821828e-07
1.19280451189e-07
6.45177729075e-08
3.45312276801e-08
6.54275072684e-06
6.41034644799e-06
5.61492736762e-06
4.53676230213e-06
3.43233452939e-06
2.38649145728e-06
1.6122741254e-06
1.32576387284e-06
1.3413297229e-06
1.36300967042e-06
1.30202582702e-06
1.17299546127e-06
9.95960964557e-07
7.85327518394e-07
5.63150245207e-07
3.57180824541e-07
2.04888073468e-07
1.19133111296e-07
7.28407543218e-08
4.50758450009e-08
6.28737830004e-06
6.2069383407e-06
5.53670602432e-06
4.46647046204e-06
3.35633733825e-06
2.31629209865e-06
1.57430011481e-06
1.32696290917e-06
1.34940918284e-06
1.34926419198e-06
1.26453575204e-06
1.12256884493e-06
9.45116428298e-07
7.46284821482e-07
5.39694731863e-07
3.50560327981e-07
2.16349311748e-07
1.39554680606e-07
9.4245997436e-08
6.36261007949e-08
5.74535448712e-06
5.59278871967e-06
4.98843592956e-06
4.04011961703e-06
3.05168549392e-06
2.14919271942e-06
1.55447422671e-06
1.38141215554e-06
1.38150945249e-06
1.33561966074e-06
1.22765582915e-06
1.08479004593e-06
9.21100135054e-07
7.40848696468e-07
5.50919656004e-07
3.80689607016e-07
2.57015348396e-07
1.79098536497e-07
1.29014725401e-07
9.2327190158e-08
5.26644468898e-06
4.91380249306e-06
4.33125357524e-06
3.55217778489e-06
2.75246137073e-06
2.04649914777e-06
1.6167138225e-06
1.48288538786e-06
1.42477427389e-06
1.32861694243e-06
1.20376073122e-06
1.06874143251e-06
9.25457847792e-07
7.66543243672e-07
6.00783901205e-07
4.49432106012e-07
3.27613568806e-07
2.40775202999e-07
1.80471944107e-07
1.35018065909e-07
4.90096726342e-06
4.54127080096e-06
3.99240953921e-06
3.32402514398e-06
2.65446508664e-06
2.09699657778e-06
1.76832072524e-06
1.61536103776e-06
1.48837697671e-06
1.34380123976e-06
1.2027241224e-06
1.07607340722e-06
9.53620071766e-07
8.2480449313e-07
6.90679371263e-07
5.5614976652e-07
4.33001196706e-07
3.32116189149e-07
2.55464320618e-07
1.97516516766e-07
4.99030673649e-06
4.63884430023e-06
4.06084677413e-06
3.39131698138e-06
2.76679152675e-06
2.28881090915e-06
1.99296750179e-06
1.79452258891e-06
1.59901963916e-06
1.40195708955e-06
1.23408108533e-06
1.10556369857e-06
1.00485731243e-06
9.12757062823e-07
8.12148645168e-07
6.97605290947e-07
5.76992753118e-07
4.62573862072e-07
3.64482040915e-07
2.87404138201e-07
5.41364019324e-06
5.02070954044e-06
4.364597382e-06
3.6468898211e-06
3.02822975205e-06
2.57970222372e-06
2.28522685613e-06
2.04558583156e-06
1.78763738174e-06
1.52784168002e-06
1.31458565574e-06
1.16784525191e-06
1.0770248156e-06
1.01403743608e-06
9.47631762627e-07
8.60424714242e-07
7.52829416135e-07
6.34313957333e-07
5.16447149432e-07
4.12336054192e-07
3.93220525179e-08
6.38126785462e-08
1.00670178629e-07
1.3244373146e-07
1.48691728444e-07
1.52442050119e-07
1.49289837789e-07
1.45880942172e-07
1.47033042598e-07
1.50656382689e-07
1.48373248053e-07
1.40169404319e-07
1.32232794658e-07
1.26488083755e-07
1.12431539046e-07
7.99480620487e-08
6.982798927e-08
1.36632927353e-07
2.0377536984e-07
3.63228993372e-07
3.73646090408e-08
5.63597911908e-08
8.63870217296e-08
1.14938138766e-07
1.325413005e-07
1.39927763823e-07
1.410962421e-07
1.40519082814e-07
1.4016616241e-07
1.38623540171e-07
1.34514474445e-07
1.29542949097e-07
1.25088132077e-07
1.20148127602e-07
1.07295769111e-07
7.73358068207e-08
8.00867104605e-08
1.46723850139e-07
1.98918617196e-07
3.41119782514e-07
3.59666123861e-08
4.94806748906e-08
7.25021163769e-08
9.67345225471e-08
1.14512552191e-07
1.24836025426e-07
1.29732141e-07
1.31306202477e-07
1.3084209332e-07
1.28842587364e-07
1.25135321319e-07
1.2020929698e-07
1.15786796667e-07
1.12412069589e-07
1.02659488343e-07
7.46307278145e-08
9.07971272406e-08
1.56728794731e-07
2.00661814859e-07
3.25371297542e-07
3.60057210043e-08
4.40818234336e-08
6.0362534336e-08
7.947272795e-08
9.61624177986e-08
1.088869437e-07
1.17289784785e-07
1.21069507451e-07
1.21028887449e-07
1.18980114939e-07
1.15376226512e-07
1.10952567908e-07
1.06890912815e-07
1.0367274414e-07
9.65292129861e-08
7.10614315065e-08
9.8509304083e-08
1.67597374497e-07
2.04079194171e-07
3.14160786903e-07
3.84316749837e-08
4.09353245281e-08
5.11059582591e-08
6.50144834898e-08
7.94142720786e-08
9.31712530554e-08
1.04512279426e-07
1.10594531134e-07
1.10966364261e-07
1.0867544949e-07
1.05488497184e-07
1.02063715348e-07
9.88533983534e-08
9.52010334338e-08
8.94412393871e-08
6.71965891639e-08
1.07988638906e-07
1.80071462314e-07
2.07421147165e-07
3.17948726674e-07
4.418883797e-08
4.04199874668e-08
4.49242974661e-08
5.43811548511e-08
6.61612266557e-08
7.89882466472e-08
9.15365071001e-08
9.96357500961e-08
1.00813672444e-07
9.84569916853e-08
9.60159629957e-08
9.38422199026e-08
9.1449323661e-08
8.77046198499e-08
8.24371252572e-08
6.35586937687e-08
1.19717575644e-07
1.95882807347e-07
2.16093499759e-07
3.56386459699e-07
5.37854698359e-08
4.23821836153e-08
4.14244153778e-08
4.69455650411e-08
5.63274862944e-08
6.75560818114e-08
7.9030255163e-08
8.81756708959e-08
9.06992087013e-08
8.88425345927e-08
8.73215941299e-08
8.64171649339e-08
8.45969334183e-08
8.11433655425e-08
7.59452390784e-08
6.16885096132e-08
1.35011097969e-07
2.14969000785e-07
2.32338890006e-07
3.7629949214e-07
6.66580242619e-08
4.60963929745e-08
3.9857660727e-08
4.19085374003e-08
4.8885030317e-08
5.82020561806e-08
6.81042005355e-08
7.70287897282e-08
8.08457293104e-08
8.003321457e-08
7.95552056153e-08
7.97985660274e-08
7.83196015506e-08
7.57655264022e-08
6.99841421792e-08
6.33224276229e-08
2.05901297607e-07
2.38544206181e-07
2.51706324078e-07
3.79020585271e-07
8.05861715698e-08
5.04743272574e-08
3.94944687203e-08
3.86575294423e-08
4.33788113073e-08
5.07200534476e-08
5.89965432834e-08
6.70123983753e-08
7.15105594461e-08
7.20320255788e-08
7.26899720469e-08
7.38100524879e-08
7.27825530632e-08
7.15321778607e-08
6.39420143101e-08
9.57331718338e-08
2.48862422736e-07
2.99446305585e-07
2.74034413763e-07
3.89781603621e-07
9.21538480774e-08
5.42679916961e-08
3.9752719305e-08
3.67360531376e-08
3.95431371131e-08
4.50659114162e-08
5.17834151785e-08
5.86432232639e-08
6.30761123461e-08
6.48992767392e-08
6.66154614256e-08
6.82819885467e-08
6.80710514777e-08
6.83916965542e-08
7.68443399143e-08
1.28122354487e-07
3.03251197496e-07
3.55317925841e-07
3.00522876888e-07
4.08273635509e-07
9.90835911725e-08
5.68329777009e-08
4.0324122211e-08
3.58262660927e-08
3.70827217652e-08
4.10310073828e-08
4.63209869926e-08
5.19028417221e-08
5.59467962826e-08
5.87041177391e-08
6.1304547248e-08
6.34302083967e-08
6.4043313782e-08
7.35860698092e-08
8.02994878287e-08
1.68853660833e-07
3.54502786105e-07
3.94146417737e-07
3.30322646282e-07
4.328989732e-07
1.01595897364e-07
5.84693690681e-08
4.12717537998e-08
3.57891209985e-08
3.57496675547e-08
3.8326917223e-08
4.23156155151e-08
4.66999969704e-08
5.0278687808e-08
5.35324741722e-08
5.6870510083e-08
5.93768636478e-08
6.06570353361e-08
9.50228121379e-08
7.6434303443e-08
2.11759023021e-07
4.04264807496e-07
4.2990731307e-07
3.62283099749e-07
4.59753650957e-07
1.01719986851e-07
6.00666421501e-08
4.28989385566e-08
3.66152824921e-08
3.53746006609e-08
3.67005614034e-08
3.94919177639e-08
4.28188200375e-08
4.60407481478e-08
4.95897648079e-08
5.33906494472e-08
5.58077298771e-08
8.36098820999e-08
9.42433808981e-08
7.3105188173e-08
2.53202151998e-07
4.56170568475e-07
4.417261954e-07
3.95722582086e-07
4.83067252172e-07
1.01937100909e-07
6.26435284066e-08
4.55524306755e-08
3.83252514042e-08
3.58362868587e-08
3.59581325186e-08
3.76333219341e-08
4.00671081818e-08
4.30801595174e-08
4.69094752959e-08
5.05653537916e-08
6.47236541158e-08
9.07550650578e-08
7.50028563232e-08
7.58616846196e-08
2.88486515345e-07
5.06548853872e-07
4.21298831918e-07
4.29075399181e-07
5.24572285697e-07
1.04445920623e-07
6.71153808017e-08
4.94808272027e-08
4.08947600364e-08
3.70085427724e-08
3.59162760963e-08
3.65313217609e-08
3.82549909346e-08
4.11570898394e-08
4.5039291287e-08
4.80288552271e-08
8.18388654559e-08
8.04748041812e-08
5.29719202711e-08
8.22472892799e-08
3.18409568553e-07
5.40321935394e-07
4.40156749533e-07
4.50610911649e-07
7.85978571146e-07
1.11146268555e-07
7.41592208858e-08
5.4767320043e-08
4.42147162922e-08
3.87191199389e-08
3.63528232768e-08
3.59659032355e-08
3.71254827988e-08
3.99456580935e-08
4.33751844207e-08
6.53896932131e-08
7.73076728179e-08
6.54851923467e-08
3.54866936657e-08
9.36365857066e-08
3.42442000631e-07
5.02838962749e-07
4.44192318403e-07
4.56296294672e-07
1.37812706488e-06
1.2356699385e-07
8.40453348451e-08
6.12864710681e-08
4.80836228901e-08
4.0708107744e-08
3.69703591205e-08
3.56599103322e-08
3.63810429794e-08
3.89303435377e-08
4.86955097933e-08
7.24123005478e-08
6.80700669285e-08
4.6446648619e-08
2.75295761486e-08
1.1643775923e-07
3.82130481355e-07
3.61531887522e-07
4.40639869383e-07
4.65650069854e-07
2.18490292668e-06
1.42260414189e-07
9.64830091276e-08
6.86813947035e-08
5.21331223985e-08
4.25564010648e-08
3.74024787038e-08
3.53205869187e-08
3.5708867081e-08
3.77352217073e-08
5.58121313884e-08
6.61405277848e-08
5.41288776036e-08
2.95133652197e-08
2.88505299669e-08
1.63248213916e-07
2.56094298955e-07
3.70775816669e-07
4.52310472763e-07
4.8453267444e-07
3.29825085808e-06
1.66003242462e-07
1.10430184601e-07
7.61436023107e-08
5.56230324277e-08
4.36773449568e-08
3.72971254534e-08
3.47417564537e-08
3.48556561265e-08
3.62603801061e-08
5.47063484327e-08
5.68632397587e-08
3.76735086993e-08
1.90360239801e-08
3.9479624421e-08
1.87728104645e-07
2.84836709467e-07
3.8889623031e-07
4.65603865491e-07
5.06476455106e-07
3.74995145181e-06
1.91107402276e-07
1.23597008632e-07
8.20422665159e-08
5.74047220099e-08
4.34701800972e-08
3.64866421131e-08
3.39180368655e-08
3.38477746712e-08
3.46517142937e-08
4.95655737828e-08
4.43174996582e-08
2.33325260002e-08
1.65645227221e-08
5.01619093541e-08
1.70702650548e-07
3.09451448421e-07
4.06224179419e-07
4.70483904338e-07
5.25104303632e-07
3.97285948988e-06
2.10901620003e-07
1.3181891961e-07
8.37438282869e-08
5.61166799197e-08
4.15957616057e-08
3.5201337985e-08
3.32079068029e-08
3.29874049843e-08
3.27012791415e-08
4.15705099493e-08
3.01343921733e-08
1.46937457104e-08
1.10237589819e-08
5.15096745013e-08
2.02908760352e-07
3.35552479661e-07
4.09589985813e-07
4.6524939236e-07
5.05117547123e-07
4.05325139958e-06
2.16150142098e-07
1.2932169608e-07
7.82495376384e-08
5.09555629274e-08
3.85144327115e-08
3.41709197389e-08
3.30453902316e-08
3.22822723479e-08
3.02998939655e-08
2.95714200287e-08
1.29849857776e-08
6.59671021763e-09
1.1257590518e-08
7.2059881432e-08
2.3765870173e-07
3.43006773329e-07
4.02446043586e-07
4.50044199042e-07
4.87437765614e-07
3.95527059984e-06
1.98487693222e-07
1.11990463577e-07
6.49280740109e-08
4.33994187057e-08
3.59667554401e-08
3.41635676777e-08
3.30522606689e-08
3.06979449215e-08
2.60821356103e-08
1.66090465424e-08
8.19629725784e-09
5.19854341607e-09
1.09324488451e-08
9.33881742925e-08
2.45855075792e-07
4.25074196016e-07
4.06228700057e-07
4.29576978467e-07
4.65307366541e-07
3.35316035205e-06
1.58479074313e-07
8.38209387809e-08
4.92155088216e-08
3.74470004624e-08
3.48179888065e-08
3.32568436886e-08
3.0196645512e-08
2.5774301107e-08
1.99469732398e-08
1.20701826706e-08
6.09268081395e-09
4.29101215073e-09
1.08061472906e-08
9.63903641494e-08
2.52900168147e-07
4.34390807597e-07
5.30565319971e-07
4.03408888355e-07
4.45302394693e-07
1.849360544e-06
1.11103530624e-07
5.71731653093e-08
3.78554344334e-08
3.32715463084e-08
3.14588961326e-08
2.81329136692e-08
2.39240345238e-08
1.94102464286e-08
1.41678173183e-08
8.29460752912e-09
4.80481899256e-09
4.25494996887e-09
1.15959373708e-08
8.74248426313e-08
2.70360791833e-07
4.25070667089e-07
9.83032063443e-07
3.71315782481e-07
4.26915041081e-07
8.35112163093e-07
7.27030926633e-08
3.87527313297e-08
2.99727838304e-08
2.90822739011e-08
2.73660026182e-08
2.37023581874e-08
1.91938896243e-08
1.43321360096e-08
9.40628554674e-09
6.20340190239e-09
4.62997999284e-09
4.77009914434e-09
1.38594028822e-08
9.45453277515e-08
2.54141641562e-07
6.70762011666e-07
2.13930688181e-06
3.8280583037e-07
4.11756030661e-07
6.53695543403e-07
4.55238266455e-08
2.69031931989e-08
2.65818573235e-08
2.73263031278e-08
2.51189390708e-08
2.07574184214e-08
1.55514420543e-08
1.09363761213e-08
7.70024786134e-09
5.92737056599e-09
5.08030365752e-09
5.66428487525e-09
1.78992387295e-08
1.10121142629e-07
4.16423439158e-07
1.53856462055e-06
2.29993772686e-06
4.96731247138e-07
3.94512002469e-07
5.86567865083e-07
2.75467578597e-08
2.34447527948e-08
2.59626369084e-08
2.64884872647e-08
2.34791130409e-08
1.85760630236e-08
1.47397288178e-08
1.11025597539e-08
8.4881317887e-09
6.69461973361e-09
5.75487184046e-09
7.46508811962e-09
3.31734534549e-08
1.95523367956e-07
9.69495891662e-07
1.5767204338e-06
2.03939823217e-06
1.18898252044e-06
3.69072534928e-07
5.00814568279e-07
2.27704985472e-08
2.30397798932e-08
2.53789255785e-08
2.55096078728e-08
2.22558699925e-08
1.95060564237e-08
1.68930784234e-08
1.38527168977e-08
1.1054531981e-08
8.19217331438e-09
7.25898622123e-09
1.41495581999e-08
7.31099444262e-08
5.12173211318e-07
9.34222756282e-07
1.32958185047e-06
1.78755863419e-06
1.46611850594e-06
3.35824028862e-07
4.65668059966e-07
2.3290168685e-08
2.31422362825e-08
2.48381308181e-08
2.49327483421e-08
2.29433335585e-08
2.2339753362e-08
2.07161151434e-08
1.81008720396e-08
1.50091686876e-08
1.10460081828e-08
1.07509319928e-08
3.30745271906e-08
2.59920068564e-07
5.06301474563e-07
7.84321303394e-07
1.12012061997e-06
1.56342617895e-06
1.79473437475e-06
3.03175255253e-07
4.27790555538e-07
2.59334653023e-08
2.41783245691e-08
2.48949315885e-08
2.4960036907e-08
2.49604769339e-08
2.54893417193e-08
2.48950417924e-08
2.28270983818e-08
1.99566735316e-08
1.58293939422e-08
2.31605587276e-08
1.49114775831e-07
2.95298872975e-07
4.54977710944e-07
6.80222511224e-07
9.60527411337e-07
1.37234781582e-06
1.90251500849e-06
2.80904144129e-07
3.91503691445e-07
3.22846112953e-08
2.7374770566e-08
2.63126307164e-08
2.63082993946e-08
2.76633238563e-08
2.89449511031e-08
2.91115000386e-08
2.75452394938e-08
2.53531986448e-08
2.16962847939e-08
4.39739461001e-08
2.27588613577e-07
2.95718614282e-07
4.32783826519e-07
6.22948152978e-07
8.51643832232e-07
1.22873863925e-06
1.82160123993e-06
2.75213253948e-07
3.68753766948e-07
4.45122145029e-08
3.44300628158e-08
3.03070712439e-08
2.95479483361e-08
3.17129634271e-08
3.33073106673e-08
3.36907880801e-08
3.24163876951e-08
3.09269608022e-08
2.84351812974e-08
1.32227349476e-07
2.47583282198e-07
3.06469242139e-07
4.3962803092e-07
6.0502161856e-07
7.93717947143e-07
1.14738547158e-06
1.56531564611e-06
2.90241888265e-07
4.31256847995e-07
6.49984791025e-08
4.75145809051e-08
3.86093157999e-08
3.56674879756e-08
3.78393839254e-08
3.90820608148e-08
3.89143463133e-08
3.77788296543e-08
3.62565842583e-08
4.48381628529e-08
2.32883807434e-07
2.6152431862e-07
3.30996712764e-07
4.70916163047e-07
6.21931114938e-07
8.02928854472e-07
1.16971932131e-06
2.90754609926e-07
3.02344373445e-07
6.38134835965e-07
9.80800571942e-08
7.06219916106e-08
5.42171048116e-08
4.68576544339e-08
4.71430661359e-08
4.67494844006e-08
4.48792312191e-08
4.33630496676e-08
3.99958451377e-08
7.1051346855e-08
2.57267197733e-07
2.78481978302e-07
3.69789516794e-07
5.2546024618e-07
6.89223346602e-07
9.24456147519e-07
1.3634720131e-06
2.01226674377e-07
3.02776079416e-07
9.46952813491e-07
1.49908322009e-07
1.10246158356e-07
8.25627440434e-08
6.68889121761e-08
6.16273721336e-08
5.67276676624e-08
5.13446900989e-08
4.73560263282e-08
4.12525347226e-08
1.43908864296e-07
2.60332038794e-07
3.00244517058e-07
4.22753135942e-07
6.16053329432e-07
8.51263973245e-07
1.22104079289e-06
2.69660205303e-07
2.21229530595e-07
3.32077445739e-07
1.58170520251e-06
2.26519929944e-07
1.7297100461e-07
1.29951867428e-07
1.00016027409e-07
8.28730752365e-08
6.8738652672e-08
5.68061586856e-08
4.75943782664e-08
5.35750231178e-08
1.89171979587e-07
2.57779286333e-07
3.23161552113e-07
4.8917444887e-07
7.68147993819e-07
1.15595152075e-06
1.35359445331e-06
2.22155347182e-07
2.50210223423e-07
3.75544614175e-07
2.88498733458e-06
3.30164469521e-07
2.59836608604e-07
1.9717101271e-07
1.46038753584e-07
)
;

boundaryField
{
    emptyPatch
    {
        type            empty;
    }
    minY
    {
        type            calculated;
        value           nonuniform List<scalar> 0();
    }
    maxY
    {
        type            calculated;
        value           nonuniform List<scalar> 0();
    }
    water_to_cooler
    {
        type            nutkWallFunction;
        blending        stepwise;
        value           uniform 0;
    }
    water_to_heater
    {
        type            nutkWallFunction;
        blending        stepwise;
        value           uniform 0;
    }
    procBoundary1to0
    {
        type            processor;
        value           nonuniform List<scalar> 
41
(
5.83473917729e-06
5.29567425704e-06
4.55576225405e-06
3.84261943597e-06
3.264587809e-06
2.851047196e-06
2.57636899893e-06
2.33683400202e-06
2.04827175799e-06
1.73362667278e-06
1.46392207019e-06
1.27611300594e-06
1.16564249528e-06
1.11049815973e-06
1.07254169166e-06
1.01873238062e-06
9.36571109064e-07
8.28604819428e-07
7.02819431793e-07
5.7124248836e-07
1.08665671411e-07
7.96351341057e-08
5.83782410423e-08
4.395104233e-08
5.6589786056e-08
1.7699309574e-07
2.48128195326e-07
3.42284724877e-07
5.70240444579e-07
1.01043774851e-06
1.61514904563e-06
2.38227400525e-07
2.53849148612e-07
3.12889477307e-07
4.21344504398e-07
3.72073081655e-06
4.54550119457e-07
3.59611694187e-07
2.715577757e-07
1.08665671411e-07
1.93154669017e-07
)
;
    }
    procBoundary1to3
    {
        type            processor;
        value           nonuniform List<scalar> 
41
(
2.27852383662e-06
1.87766855612e-06
1.56304063797e-06
1.32459682962e-06
1.14151282646e-06
9.6521228349e-07
7.35827407221e-07
4.57867893253e-07
2.22687164551e-07
9.41485053911e-08
4.44250548629e-08
2.93928912356e-08
2.90924237051e-08
6.32705103531e-06
6.56283486676e-06
5.83060113577e-06
4.89775239168e-06
4.06750816406e-06
3.35228383878e-06
2.7433826273e-06
2.7433826273e-06
4.11100634576e-08
7.09909127808e-08
1.14420414067e-07
1.4816060441e-07
1.61794081184e-07
1.60606910439e-07
1.51523758366e-07
1.43925125794e-07
1.44929876308e-07
1.58618197292e-07
1.74975102902e-07
1.70707082616e-07
1.49846662776e-07
1.32515242457e-07
1.11718030569e-07
7.81333939074e-08
6.68985615815e-08
1.33374390662e-07
2.22451999449e-07
3.94934923064e-07
)
;
    }
}

