/*--------------------------------*- C++ -*----------------------------------*\
| =========                 |                                                 |
| \\      /  F ield         | OpenFOAM: The Open Source CFD Toolbox           |
|  \\    /   O peration     | Version:  2312                                  |
|   \\  /    A nd           | Website:  www.openfoam.com                      |
|    \\/     M anipulation  |                                                 |
\*---------------------------------------------------------------------------*/
FoamFile
{
    version     2.0;
    format      ascii;
    arch        "LSB;label=32;scalar=64";
    class       volScalarField;
    location    "0.385/water";
    object      p_rgh;
}
// * * * * * * * * * * * * * * * * * * * * * * * * * * * * * * * * * * * * * //

dimensions      [1 -1 -2 0 0 0 0];

internalField   nonuniform List<scalar> 
6000
(
101495.297398
101491.909308
101491.354766
101490.692826
101490.039869
101489.422596
101488.844158
101488.309913
101487.824825
101487.387533
101486.996541
101486.649077
101486.340784
101486.067504
101485.825839
101485.613108
101485.427244
101485.266793
101485.130881
101485.019103
101478.462479
101483.516116
101486.644122
101488.011211
101488.175991
101488.03627
101487.785247
101487.501485
101487.204407
101486.907599
101486.626503
101486.366936
101486.127105
101485.904876
101485.699715
101485.512187
101485.343288
101485.194137
101485.065895
101484.95969
101466.514126
101473.344736
101479.825457
101483.587027
101485.161801
101485.835726
101486.080665
101486.122493
101486.069323
101485.96526
101485.834817
101485.696616
101485.559725
101485.425975
101485.295669
101485.169948
101485.050841
101484.940873
101484.842721
101484.758831
101457.138042
101464.508582
101473.352157
101479.283793
101482.438884
101484.031662
101484.742611
101485.006807
101485.077808
101485.068766
101485.022198
101484.958181
101484.888168
101484.817147
101484.746189
101484.675629
101484.606348
101484.53992
101484.478374
101484.423713
101448.820206
101455.605061
101465.047499
101472.868565
101478.275066
101481.636939
101483.382204
101484.100719
101484.319818
101484.3528
101484.327577
101484.286219
101484.241969
101484.199751
101484.160676
101484.124205
101484.089715
101484.057085
101484.026712
101483.99914
101442.774418
101448.006482
101456.156592
101464.347233
101471.627848
101477.334091
101481.01342
101482.861489
101483.52938
101483.674995
101483.666295
101483.631817
101483.60017
101483.575587
101483.558204
101483.546587
101483.538925
101483.533701
101483.529858
101483.526579
101436.341373
101440.044245
101446.782711
101454.320383
101462.371278
101470.07873
101476.271006
101480.261526
101482.166128
101482.768714
101482.877867
101482.887074
101482.892813
101482.904788
101482.922565
101482.944601
101482.968919
101482.993636
101483.017189
101483.038185
101427.583649
101431.158609
101437.412823
101444.136841
101451.949723
101460.472528
101468.671189
101475.318891
101479.535861
101481.385324
101481.903009
101482.037551
101482.121888
101482.200418
101482.274728
101482.344646
101482.409542
101482.468547
101482.520796
101482.565346
101416.769612
101421.157053
101427.755345
101434.075762
101441.415291
101450.009501
101459.198401
101467.970416
101475.051553
101479.259881
101480.83125
101481.240262
101481.422908
101481.57354
101481.705726
101481.821575
101481.922616
101482.009723
101482.083327
101482.143686
101405.846331
101412.907653
101419.231249
101424.79163
101431.567008
101439.987268
101449.412859
101459.260929
101468.630036
101475.891804
101479.613144
101480.704222
101480.996655
101481.181382
101481.337297
101481.469504
101481.580749
101481.672966
101481.747573
101481.805771
101398.224619
101405.69046
101411.180604
101415.920478
101422.174608
101430.488418
101440.052835
101450.242209
101460.659319
101470.501802
101477.493415
101480.333539
101480.942589
101481.117321
101481.243276
101481.345485
101481.427042
101481.490004
101481.536052
101481.566682
101393.499552
101401.934968
101406.196589
101409.812844
101415.003331
101422.645693
101431.926132
101441.811642
101452.017538
101462.862793
101473.154893
101479.397411
101481.155921
101481.374175
101481.418653
101481.442831
101481.452977
101481.450483
101481.436763
101481.413238
101387.853299
101396.605252
101400.951284
101404.946113
101410.374945
101417.46635
101425.602274
101434.371392
101443.433188
101453.703855
101465.894121
101476.544814
101481.163045
101481.836042
101481.783876
101481.691994
101481.596521
101481.49862
101481.399541
101481.300535
101382.395633
101393.865475
101397.509556
101401.83759
101407.438648
101414.568637
101421.737627
101428.598749
101435.770799
101444.640241
101457.002855
101471.153131
101480.185813
101482.296748
101482.219753
101481.980606
101481.752885
101481.539188
101481.339691
101481.154632
101376.140549
101389.913654
101393.623496
101399.138035
101405.7108
101412.77492
101418.833145
101423.770006
101429.125649
101436.769119
101448.537507
101464.245002
101477.617584
101482.36892
101482.520618
101482.130373
101481.764622
101481.435603
101481.140611
101480.877758
101369.840065
101387.959512
101391.889321
101398.228495
101405.370658
101411.729649
101415.846296
101418.861091
101422.950836
101429.859441
101440.985575
101456.985187
101473.51331
101481.563583
101482.369996
101481.889981
101481.425397
101481.019815
101480.66733
101480.363171
101362.552501
101383.628117
101389.215438
101395.986346
101402.652866
101407.731804
101410.459024
101412.515979
101415.972264
101422.421325
101432.841916
101448.800028
101467.781932
101479.399491
101481.413703
101480.996784
101480.532
101480.137679
101479.80515
101479.527586
101352.685121
101376.489802
101383.898476
101390.012145
101395.483539
101400.006513
101402.349636
101403.830003
101406.973713
101412.726932
101421.990944
101437.735724
101459.166761
101475.162038
101479.361404
101479.299467
101478.979636
101478.722264
101478.516499
101478.354929
101342.243084
101365.938412
101373.194622
101379.058129
101384.279165
101388.348813
101390.419072
101392.154491
101395.072528
101399.472044
101406.96612
101421.578089
101444.899178
101467.023811
101475.827058
101476.841014
101476.846432
101476.860286
101476.891334
101476.933242
101332.759066
101349.668277
101354.06649
101358.972135
101364.940957
101370.684544
101374.80992
101378.187074
101381.529837
101385.270435
101390.264239
101400.488525
101421.930559
101451.084679
101469.594461
101473.860537
101474.468117
101474.840981
101475.174722
101475.467896
101316.491398
101324.083825
101324.886087
101329.346869
101338.993507
101349.942257
101358.508563
101365.011276
101371.106213
101376.732604
101379.814308
101381.731041
101394.393346
101424.803566
101457.342492
101470.32204
101472.401345
101473.126027
101473.728687
101474.242175
101293.931526
101298.31268
101298.752704
101303.196498
101315.281635
101331.136685
101344.711413
101355.311219
101364.870513
101372.092112
101374.640021
101375.296354
101376.201405
101396.527681
101436.56301
101464.640582
101471.046066
101472.159894
101472.890743
101473.510345
101275.199488
101285.101244
101285.576682
101289.433488
101300.190463
101317.630611
101335.10185
101349.942759
101362.60091
101372.735245
101374.222949
101371.888018
101372.457622
101379.812288
101413.768687
101454.625674
101469.985477
101472.106095
101472.804255
101473.381351
101270.484831
101280.083995
101281.131037
101282.985602
101292.047371
101309.944009
101329.95629
101347.89782
101364.109823
101376.44788
101377.117255
101372.71437
101369.794638
101373.09652
101398.804329
101442.399547
101468.197405
101472.772252
101473.381698
101473.791471
101265.227058
101274.64158
101276.174697
101277.013407
101285.891836
101305.074511
101327.215535
101348.249426
101368.406361
101376.682606
101376.804281
101376.00305
101370.056082
101371.630477
101390.920067
101432.051846
101465.445355
101473.740092
101474.382643
101474.559585
101259.934492
101271.895971
101272.304808
101272.648232
101281.903396
101302.273347
101326.834665
101352.259881
101373.522825
101375.441521
101375.466252
101375.653633
101374.034895
101371.768443
101385.548753
101423.876876
101462.190774
101474.625724
101475.531357
101475.470072
101256.326169
101269.234564
101267.450198
101268.715872
101279.406782
101302.11094
101330.500221
101359.201979
101374.488524
101374.182317
101374.244868
101373.97325
101374.01862
101371.27145
101379.373686
101415.358244
101458.073293
101475.093693
101476.594997
101476.333915
101251.316652
101269.360005
101265.428251
101268.233545
101281.372957
101306.765418
101338.052046
101367.094847
101373.153099
101372.808001
101372.426367
101372.510082
101371.728748
101367.268655
101369.403045
101403.915685
101451.58012
101474.60546
101477.404187
101477.019467
101246.385107
101268.212875
101264.671905
101269.965189
101286.415894
101314.554467
101346.886406
101371.148022
101371.213005
101370.692218
101370.635699
101369.743269
101369.623301
101356.277055
101353.578278
101387.192592
101440.193016
101472.229869
101477.843138
101477.465131
101239.651401
101269.00713
101265.824572
101273.723119
101293.785593
101324.237716
101355.880054
101369.65718
101368.826266
101368.509623
101367.611211
101367.570948
101365.799208
101342.640758
101340.747098
101367.990847
101423.1449
101466.976431
101477.808161
101477.660686
101234.221286
101268.552235
101267.080237
101278.096287
101301.904919
101333.772163
101362.903266
101366.699305
101366.07886
101365.205083
101365.178842
101363.604203
101353.106844
101336.100986
101336.51496
101352.131289
101403.733587
101458.343208
101476.923338
101477.496141
101226.973814
101270.241303
101272.088386
101286.04794
101311.55968
101341.939962
101364.030172
101362.999442
101362.077679
101361.810135
101360.310854
101359.982731
101334.20411
101331.526035
101331.059936
101340.368501
101386.097351
101447.044824
101474.682403
101476.788985
101221.263103
101271.773083
101280.227926
101296.905422
101320.888504
101346.647839
101359.401841
101358.265662
101357.728391
101356.335426
101356.149848
101343.281438
101325.794362
101325.271363
101325.327738
101330.53151
101370.497871
101433.501771
101470.395952
101475.286497
101211.159616
101273.970744
101286.540576
101304.293294
101325.106244
101345.409678
101353.530034
101352.63116
101351.076637
101350.71132
101345.696329
101321.434721
101318.727409
101318.614398
101317.990416
101321.675648
101355.616574
101416.693949
101463.055916
101472.710361
101207.846022
101276.997498
101284.463258
101299.268435
101319.125785
101337.673314
101346.100676
101343.793646
101339.364124
101333.85069
101326.12627
101317.085987
101312.937858
101310.20404
101309.806643
101313.071505
101337.180116
101392.505022
101450.744572
101468.708368
101214.386368
101269.934425
101271.127476
101283.651345
101303.94753
101320.368135
101323.803268
101318.714148
101314.346573
101318.088798
101320.800989
101320.529673
101314.154612
101306.632676
101303.367148
101303.002297
101311.155764
101358.34504
101430.72001
101462.668442
101207.647863
101242.303157
101236.246324
101242.907048
101265.652008
101284.7086
101288.87606
101290.262164
101298.271108
101310.800276
101320.968478
101323.427876
101317.894499
101309.192836
101300.853739
101289.915285
101282.412328
101321.318531
101400.491578
101452.967035
101176.529863
101189.773791
101173.799795
101172.863333
101199.34491
101230.968648
101249.127715
101263.470768
101281.369964
101301.797294
101315.970914
101319.323349
101316.577256
101310.356228
101297.562895
101275.674411
101270.149554
101289.162323
101361.402657
101436.630855
101144.483134
101136.494882
101115.572289
101111.584144
101130.638496
101168.635053
101204.092527
101232.997948
101260.941346
101286.726831
101306.223304
101312.122707
101311.347947
101307.264928
101293.607884
101265.810704
101260.068855
101260.683322
101322.225237
101412.303973
101121.927715
101106.59409
101088.189502
101085.924987
101090.885578
101116.712558
101156.536524
101197.385559
101236.138543
101271.581015
101296.871408
101306.583795
101306.674322
101303.50626
101291.656281
101260.934628
101251.164272
101252.399619
101293.013387
101383.151441
101107.925886
101093.536397
101078.622039
101079.181721
101078.98941
101088.057098
101118.773663
101164.21077
101212.016497
101257.454741
101291.046316
101303.845646
101304.120861
101301.069337
101291.886129
101262.854987
101244.318083
101245.027308
101273.177218
101354.991948
101095.030387
101085.863861
101072.793866
101072.679107
101073.494598
101074.208352
101098.081626
101143.948735
101197.431521
101249.426611
101288.212384
101302.956274
101303.031226
101299.549251
101292.433563
101268.488154
101238.880169
101239.636639
101258.663288
101329.907208
101080.67719
101080.172355
101067.477328
101068.017246
101067.71116
101068.468058
101089.408868
101135.629676
101192.375249
101247.505821
101288.086563
101302.964768
101302.439928
101298.008689
101291.789249
101272.460649
101239.68686
101234.828147
101246.811387
101306.914142
101075.364348
101075.333333
101062.629957
101062.449733
101063.346519
101063.440688
101084.900923
101132.608354
101191.79533
101249.67176
101291.241312
101303.399255
101301.84965
101296.414251
101290.023997
101274.9489
101244.71548
101231.02263
101236.070185
101285.022713
101070.770789
101070.262722
101057.515056
101058.084677
101057.850348
101058.636217
101083.220392
101134.934599
101198.353195
101258.581437
101296.857993
101303.536039
101301.155513
101294.007534
101287.648931
101276.718241
101251.443119
101228.088621
101225.95065
101264.678435
101065.626119
101065.353511
101053.655902
101052.525366
101053.30002
101055.664584
101087.782952
101145.641262
101212.633391
101271.457375
101301.558998
101303.169202
101299.417018
101289.588085
101283.836691
101278.207317
101259.475059
101228.399592
101215.49291
101247.574778
101060.977265
101060.323769
101051.082696
101047.191104
101047.338106
101056.385555
101097.84765
101161.558389
101229.861497
101283.442344
101302.421222
101302.246891
101295.952833
101282.838725
101279.597617
101280.376023
101268.277914
101230.88083
101205.467366
101233.694664
101054.90419
101053.627612
101050.496394
101040.386932
101040.920372
101060.508592
101111.187159
101178.956899
101246.418415
101291.953613
101301.107609
101300.809549
101289.841231
101274.257811
101275.951365
101284.396826
101276.002185
101232.423515
101196.544619
101222.394974
101047.069653
101046.354688
101047.210825
101033.19999
101036.629966
101069.231009
101127.220569
101196.923
101261.136684
101296.14829
101298.601712
101296.478652
101278.578037
101263.985111
101273.079306
101290.633218
101282.460434
101231.698427
101190.236542
101212.631922
101036.297799
101034.906824
101037.961906
101025.303214
101038.553524
101083.182878
101145.943578
101215.335189
101272.957599
101295.179469
101294.729344
101285.775992
101258.312294
101254.836438
101272.996225
101299.354236
101287.520484
101229.778178
101185.063859
101202.891011
101021.951395
101022.995259
101025.133937
101015.01077
101043.197923
101098.467997
101164.928403
101231.897827
101279.543047
101290.050501
101287.331729
101264.083231
101241.555702
101249.058618
101277.282735
101299.724902
101290.157755
101228.789805
101180.041784
101191.956329
100998.395924
100995.027272
100998.090462
100998.59975
101038.868093
101102.21757
101173.943162
101239.332156
101278.164911
101282.113627
101271.365281
101240.469595
101235.394435
101246.609039
101282.72064
101296.048041
101290.841178
101228.604517
101174.756868
101177.357554
100922.252042
100938.167394
100961.776976
100979.69526
101022.42149
101088.516185
101165.181326
101235.189841
101273.207656
101275.434384
101257.424
101231.619046
101230.081835
101249.370884
101286.992635
101293.049785
101289.314456
101226.875618
101167.460436
101162.213999
100860.302352
100913.636157
100951.113585
100976.1827
101018.018053
101083.31538
101161.406657
101234.709564
101274.360706
101275.184138
101255.834437
101230.638072
101232.547313
101258.527719
101289.801018
101291.987763
101286.143021
101222.523127
101160.05728
101158.234756
100843.892591
100913.324837
100952.194526
100979.927154
101022.543892
101087.753775
101166.794417
101242.618882
101282.569641
101281.58126
101260.953572
101238.048773
101244.45741
101272.20779
101291.46606
101292.238415
101278.764525
101215.459761
101158.304852
101155.325548
100842.712602
100920.445854
100963.371322
100998.348381
101045.591899
101112.133103
101191.136888
101265.126019
101298.535945
101294.188285
101272.409011
101254.793464
101262.882845
101284.772031
101293.45874
101292.534394
101264.7066
101211.881634
101161.470753
101152.576097
100842.156593
100939.678969
100993.846445
101039.880198
101096.288308
101166.670594
101242.303004
101299.186671
101310.155567
101308.734524
101291.848795
101277.859692
101282.398586
101292.224277
101293.893489
101284.404873
101257.149476
101214.275117
101168.774024
101150.030895
100839.2055
100967.332889
101043.903059
101105.692736
101172.476706
101243.858438
101300.880465
101316.882932
101315.689322
101314.772061
101312.982277
101303.629684
101298.707458
101295.929464
101290.719596
101279.296958
101258.265857
101221.953592
101176.281448
101147.99952
100837.032109
101001.746205
101106.744348
101189.643408
101261.885504
101312.257129
101323.316907
101321.387854
101319.860742
101319.075094
101317.086339
101316.024791
101309.360228
101298.218239
101289.484337
101280.759376
101266.023811
101232.573994
101180.744899
101145.874923
100833.76671
101045.725567
101173.510288
101274.08934
101323.837208
101328.47705
101326.349002
101324.324548
101323.255127
101320.626266
101319.69621
101316.767444
101315.193624
101300.358164
101290.93246
101288.369145
101279.649226
101242.336699
101181.486
101141.447311
100835.368676
101098.921473
101241.682773
101328.485473
101332.065298
101329.989503
101327.762173
101326.895094
101323.624702
101322.789742
101319.113682
101317.890566
101314.12445
101303.624732
101296.188306
101297.752646
101289.946664
101249.213534
101180.556764
101136.399361
100833.85027
101158.645693
101307.841117
101335.419373
101333.302194
101330.70996
101330.269468
101326.237742
101325.866321
101321.013301
101319.938524
101315.204763
101313.255349
101305.858996
101299.1922
101299.839344
101293.51926
101255.928627
101182.128181
101131.612854
100855.799935
101248.563485
101338.928984
101337.611879
101334.721622
101334.457416
101329.392494
101329.216323
101322.836807
101322.008337
101315.594703
101313.531305
101308.214369
101302.131435
101295.984675
101295.647111
101292.358906
101264.856869
101191.592972
101128.791351
100948.471611
101337.484134
101343.815786
101341.229793
101340.244885
101333.312864
101332.550543
101324.452857
101322.978241
101314.614103
101312.127214
101305.167568
101301.761825
101292.772479
101288.186212
101287.557768
101285.648764
101273.255564
101211.497986
101131.738305
101065.527774
101327.360422
101338.551186
101337.080073
101330.675896
101329.015072
101319.17372
101316.939103
101306.688081
101303.186741
101295.099532
101291.28904
101284.69657
101277.791452
101274.592162
101274.308092
101273.059456
101270.07176
101236.637644
101146.751611
101017.918995
101143.810958
101172.707144
101200.00127
101222.196489
101235.152871
101248.904971
101256.137887
101262.462315
101263.619496
101263.933907
101260.903955
101256.031704
101254.636778
101254.500143
101255.693992
101256.454051
101255.564518
101250.415682
101176.185044
100858.810133
100836.540182
100865.688991
100903.578177
100942.352224
100984.981172
101041.70058
101106.332204
101157.930748
101192.824654
101212.999115
101223.058583
101227.341928
101229.962719
101232.11262
101235.119964
101238.664748
101240.107906
101241.0843
101213.956757
100735.249054
100701.367524
100712.974575
100728.691391
100746.927936
100773.949316
100826.569521
100915.690224
101019.944999
101106.084844
101164.272732
101195.756702
101207.679855
101212.456028
101215.42991
101219.099844
101223.746022
101227.054841
101229.440167
101230.47871
100679.87003
100672.24258
100678.260449
100681.405312
100685.481332
100696.495669
100724.398684
100785.169663
100886.882698
101002.185327
101101.847107
101171.908613
101198.05272
101204.058367
101207.540258
101210.230494
101214.185125
101218.668213
101221.176472
101223.450283
100663.264352
100666.143425
100671.585674
100671.552928
100672.146932
100677.881335
100695.962861
100737.262023
100813.356824
100918.968211
101032.621957
101134.542576
101191.82622
101202.565345
101205.994854
101208.289848
101210.784515
101214.414873
101217.320373
101219.189503
100646.096903
100663.823042
100670.180828
100670.219274
100670.34908
100673.871682
100688.92264
100724.567635
100787.676806
100878.60168
100987.198802
101097.690758
101181.894204
101206.554032
101208.849212
101211.135858
101212.268511
101214.337909
101217.092545
101218.677098
100639.373598
100665.389207
100671.661753
100671.888534
100672.097726
100674.515094
100689.065305
100724.122455
100783.741236
100867.882973
100970.935261
101081.557626
101176.306683
101212.936909
101214.815593
101216.182631
101217.562682
101218.049232
101219.472083
101221.044655
100641.874261
100669.723433
100676.381515
100675.91492
100675.279382
100678.19007
100693.602531
100729.506332
100789.253835
100872.736074
100974.989224
101086.101059
101182.867342
101221.179566
101222.326364
101223.212355
101223.850898
101224.598112
101224.684408
101225.578899
100642.641238
100679.500266
100688.762121
100687.317447
100685.364695
100689.655747
100708.011033
100746.781077
100807.383966
100889.795436
100991.501407
101103.194352
101198.465215
101230.873268
101230.98347
101231.212317
101231.679247
101231.726704
101232.007767
101232.110063
100645.13342
100701.681617
100713.144722
100711.37432
100709.361347
100716.484009
100740.785723
100785.405053
100849.567341
100933.638614
101036.165538
101146.493686
101227.198915
101240.581371
101240.217378
101240.38622
101239.955887
101240.046079
101239.557247
101239.355742
100646.965143
100749.513529
100753.537335
100752.008186
100751.683858
100764.287621
100797.490932
100850.346158
100921.303983
101010.569523
101114.749445
101212.275369
101250.452663
101249.956681
101249.825408
101249.185461
101249.163811
101248.205995
101247.091583
101241.401318
100649.417235
100823.652387
100813.618685
100813.793481
100816.330693
100837.9456
100882.256451
100945.372933
101025.046707
101118.807237
101211.508136
101258.320704
101259.548896
101259.257053
101258.584211
101258.512038
101257.382435
101253.991145
101241.412805
101241.170327
100650.299012
100906.202646
100897.959886
100903.438846
100911.286988
100943.510223
100999.491002
101072.746993
101156.35845
101232.704376
101267.659458
101268.323137
101268.1204
101267.505383
101267.512705
101266.293352
101258.951835
101240.678295
101238.62717
101247.746958
100652.365326
100997.710086
101002.614438
101021.394644
101038.183627
101078.583637
101142.77103
101214.017456
101263.784837
101276.680643
101275.912658
101276.053271
101275.557226
101275.805516
101274.290807
101259.19184
101242.089525
101240.479459
101245.411352
101257.378471
100655.390505
101077.723448
101104.374633
101143.246136
101173.842579
101217.117077
101265.34402
101283.29436
101282.977319
101282.640357
101283.339991
101282.596822
101283.265843
101275.76453
101255.546887
101245.688495
101245.197484
101246.751501
101255.049046
101266.709075
100703.347608
101102.207643
101147.587773
101198.420977
101244.678931
101288.137608
101289.831444
101289.872767
101289.150488
101290.650055
101288.743907
101289.660035
101268.536798
101243.92754
101243.533679
101250.098346
101252.637082
101257.352899
101266.018056
101274.567999
100802.418685
101080.748029
101140.577953
101193.820894
101244.652913
101289.691171
101294.622541
101293.411342
101294.513371
101291.460458
101270.881929
101243.852807
101221.345515
101229.974395
101250.188941
101261.311616
101266.692783
101271.207532
101276.578748
101282.140063
100836.306411
100980.730097
101047.108812
101104.056409
101163.966346
101213.871678
101235.068549
101235.057494
101222.768618
101196.210986
101171.431404
101166.223104
101190.929266
101229.952765
101261.845243
101276.143177
101281.041409
101283.369976
101286.278532
101289.238468
100789.262432
100809.387738
100848.916708
100896.38667
100945.968188
100984.103883
101005.389281
101006.64191
101010.627705
101019.390004
101044.011779
101095.925271
101162.528832
101224.010814
101267.062186
101284.387546
101288.593732
101290.485579
101292.233495
101292.943639
100706.219894
100682.217007
100705.666008
100729.963798
100745.128583
100753.115193
100760.585363
100768.996337
100807.404051
100869.940227
100943.796222
101029.406681
101121.245675
101207.665776
101267.822252
101288.884557
101291.875236
101293.885128
101295.596854
101296.876481
100620.337117
100636.135552
100664.103865
100672.842527
100671.079538
100669.751449
100671.102499
100683.265853
100726.353964
100800.253573
100888.455683
100983.478704
101085.777214
101190.022801
101271.035719
101294.054598
101296.389328
101298.656055
101300.525875
101301.095969
100589.498216
100636.384814
100655.958157
100660.842762
100657.743248
100659.149188
100662.548449
100677.422495
100718.211997
100788.522096
100876.486076
100973.99816
101080.316079
101190.821574
101278.438224
101300.807643
101303.067485
101305.015875
101307.107785
101293.00682
100590.902747
100642.498628
100654.625578
100657.628846
100656.324886
100658.825017
100666.384373
100685.402783
100727.45998
100796.858199
100884.136196
100982.703742
101091.336955
101204.7976
101292.449721
101308.866112
101310.634448
101312.728166
101308.480465
101272.06119
100595.982185
100653.206268
100657.450602
100658.362631
100658.539185
100661.352022
100678.818527
100712.305015
100762.403357
100831.209169
100915.988454
101015.284464
101127.651854
101242.150857
101312.622095
101317.250967
101318.98743
101320.080619
101292.343326
101251.691478
100616.540317
100667.411949
100666.511408
100661.692597
100661.042074
100666.803475
100700.164134
100759.278711
100828.125559
100902.209288
100986.956669
101087.573633
101201.318231
101299.173378
101324.783258
101325.77128
101326.545256
101324.695201
101267.124669
101243.568258
100627.126864
100693.050744
100687.387961
100670.855121
100664.672634
100675.90283
100723.431747
100810.193785
100905.51545
100994.907779
101088.014687
101193.459249
101293.470871
101332.515793
101332.901699
101333.289346
101334.252427
101313.171409
101253.155517
101243.705086
100629.465825
100754.67118
100723.068935
100690.909967
100677.946302
100691.99595
100749.037458
100856.050525
100976.538763
101088.639788
101199.4784
101301.451997
101340.340997
101340.305754
101340.316841
101340.99092
101340.374963
101295.801659
101250.009135
101246.780532
100631.864177
100833.716095
100772.954226
100729.151605
100710.920371
100725.036947
100787.583894
100904.904404
101041.687815
101175.281546
101298.359746
101348.656959
101348.130464
101347.783663
101348.343315
101347.37794
101347.469193
101278.415176
101252.425313
101251.017155
100633.522839
100902.497356
100833.955615
100793.056462
100774.953003
100790.022903
100854.421117
100971.271608
101112.67596
101256.701583
101352.727453
101356.339811
101355.574785
101356.065298
101354.588475
101355.16518
101339.587882
101267.614359
101257.350168
101256.139028
100653.447375
100926.559768
100891.707226
100877.967881
100873.301036
100894.861992
100959.107419
101066.412898
101199.343608
101330.925955
101364.641358
101363.289907
101363.57823
101361.684697
101362.486702
101359.497518
101317.10932
101266.655208
101265.343332
101264.152403
100725.574691
100941.99415
100939.325803
100956.374607
100979.573914
101023.186476
101092.60339
101188.299824
101299.676751
101370.75016
101369.826292
101369.744575
101367.780762
101368.768276
101365.548285
101364.938954
101276.406773
101269.490561
101278.81289
101277.270174
100827.618626
100968.274243
100968.881569
100988.359302
101032.260015
101108.97926
101197.318063
101285.493948
101363.991312
101372.232237
101372.269087
101370.726695
101372.262694
101368.872369
101369.747944
101299.530499
101247.515523
101270.059265
101294.330608
101293.729804
100897.904067
100958.507546
100959.082737
100970.226384
101015.944823
101101.482341
101200.964978
101289.465398
101359.17463
101367.689857
101366.866679
101368.434848
101364.357248
101321.715767
101250.921072
101189.733044
101219.258971
101265.394747
101299.406255
101308.470487
100883.596902
100904.073727
100894.582229
100899.368023
100940.501719
101025.495596
101127.578894
101218.954955
101288.313336
101316.937055
101313.712197
101273.195699
101184.838062
101085.197699
101039.647803
101079.4381
101163.76172
101239.689018
101295.246622
101318.802925
100793.57281
100775.024952
100778.349356
100781.624911
100800.012278
100844.059229
100910.026298
100979.731929
101046.200304
101101.974537
101097.400796
101025.324891
100940.821874
100905.410462
100919.776929
100995.232805
101091.395727
101193.665599
101285.587048
101327.45041
100649.663977
100662.521104
100695.768939
100696.590591
100686.4584
100679.141583
100690.942252
100712.461618
100745.944639
100802.210661
100849.604207
100867.681483
100873.611869
100887.984627
100917.218
100985.382359
101075.330161
101180.357106
101283.047176
101337.979622
100568.414824
100629.511151
100670.416916
100668.80622
100646.110077
100617.675363
100608.912615
100609.145039
100613.968995
100638.072129
100699.224043
100793.692241
100869.000418
100914.203647
100959.079711
101020.171111
101103.313911
101202.458142
101298.75654
101352.06723
100570.718139
100629.851473
100666.46551
100667.350177
100645.481284
100613.962071
100599.665064
100599.263485
100599.25894
100603.585581
100638.451707
100734.036549
100851.068341
100947.248464
101037.459157
101114.63009
101195.647018
101278.283925
101342.210442
101365.110045
100571.260201
100632.981767
100668.554549
100674.603492
100657.706574
100627.701071
100608.771707
100602.567714
100601.493557
100603.450017
100624.996542
100689.365448
100805.843764
100932.104082
101046.004469
101157.865232
101260.265887
101338.641557
101368.037189
101370.756033
100574.665865
100637.695525
100674.777953
100692.647985
100692.663177
100671.819605
100646.366744
100626.975956
100615.374453
100614.350534
100629.869762
100671.256115
100756.504412