/*--------------------------------*- C++ -*----------------------------------*\
| =========                 |                                                 |
| \\      /  F ield         | OpenFOAM: The Open Source CFD Toolbox           |
|  \\    /   O peration     | Version:  2312                                  |
|   \\  /    A nd           | Website:  www.openfoam.com                      |
|    \\/     M anipulation  |                                                 |
\*---------------------------------------------------------------------------*/
FoamFile
{
    version     2.0;
    format      ascii;
    arch        "LSB;label=32;scalar=64";
    class       volVectorField;
    location    "0.16/water";
    object      U.gas;
}
// * * * * * * * * * * * * * * * * * * * * * * * * * * * * * * * * * * * * * //

dimensions      [0 1 -1 0 0 0 0];

internalField   nonuniform List<vector> 
750
(
(-0.00486002724051 2.25081386387 0)
(0.000449213889519 2.31829664206 0)
(0.00598458572652 2.31847112174 0)
(0.0109484519955 2.25815742299 0)
(0.0150272158066 2.15298667713 0)
(0.0190030528572 2.0016525247 0)
(0.022121354692 1.81116756402 0)
(0.0218832030013 1.62144512262 0)
(0.0215185748434 1.44430431919 0)
(0.0184565352187 1.28773766115 0)
(0.00996726664727 1.76734437034 0)
(0.00510902559714 2.14419272857 0)
(0.00374874026265 2.00555056027 0)
(0.0131849631563 0.699541068324 0)
(0.0295423901841 0.249878553095 0)
(0.0652794333905 0.188733372034 0)
(0.107594823191 0.167971661611 0)
(0.129316814513 0.155143839977 0)
(0.114415513704 0.142063719213 0)
(0.0691073109027 0.266470877842 0)
(0.0381675999872 0.626488321678 0)
(0.0237929224443 0.831307422477 0)
(0.0158707947614 0.931451923355 0)
(0.0103497591989 0.98245648501 0)
(0.00671831832433 1.00324530373 0)
(0.00447656896802 0.997944352834 0)
(0.00312875643805 0.956008170557 0)
(0.00222222583468 0.853696419971 0)
(0.00116031254948 0.655463849371 0)
(0.000248586493151 0.33442032176 0)
(0.0113939015251 1.80561977286 0)
(0.0126006741177 2.13120491017 0)
(0.0105099362314 1.94290940771 0)
(0.00378972791511 0.456967071259 0)
(-0.000726327248999 0.180880163346 0)
(0.042964121946 0.153158857086 0)
(0.0984496229576 0.144908586706 0)
(0.11748087155 0.137945955545 0)
(0.100606417477 0.133855995183 0)
(0.0563441907138 0.327420618124 0)
(0.0319954044339 0.734246469877 0)
(0.0223915102384 0.924087822025 0)
(0.0165407247765 1.004002463 0)
(0.0121352762363 1.0357940875 0)
(0.00890027580637 1.04130277124 0)
(0.00647758792531 1.02489739896 0)
(0.00458573765058 0.97604440617 0)
(0.0029962081675 0.871274593326 0)
(0.00154206989324 0.674881622878 0)
(0.000416842268938 0.345199324376 0)
(0.0127488600064 1.79357266989 0)
(0.0189191506453 2.07736368407 0)
(0.0168953404709 1.87002575936 0)
(-0.00610558108366 0.330525883027 0)
(-0.0266953231325 0.168143785288 0)
(0.0218056920461 0.156460371551 0)
(0.0857921488884 0.150239356724 0)
(0.10684159667 0.144244405894 0)
(0.0895727564778 0.142221675202 0)
(0.0471422279327 0.384398798059 0)
(0.0267052810435 0.813703769805 0)
(0.0193300691005 0.993885541613 0)
(0.0147878659509 1.06081367884 0)
(0.0112379007994 1.08025814912 0)
(0.00845744074463 1.07668170742 0)
(0.00619986568781 1.05383667586 0)
(0.00431309019236 1.00094858604 0)
(0.00269146256841 0.894047885538 0)
(0.00135420993978 0.695464327995 0)
(0.000386039422776 0.357456196689 0)
(0.0116041222161 1.75299431561 0)
(0.0188658058216 2.00020816383 0)
(0.0128514411912 1.78939648495 0)
(-0.020051335746 0.295079845144 0)
(-0.0461837371437 0.177879091829 0)
(0.00691890939902 0.173795846217 0)
(0.0770563812966 0.166322157707 0)
(0.0987046711774 0.160212175989 0)
(0.0810812939881 0.159220708795 0)
(0.0398195415925 0.444539088392 0)
(0.0210162328446 0.878503642997 0)
(0.0152651579508 1.04783704926 0)
(0.0117821294153 1.10477762014 0)
(0.00905052272346 1.11580539719 0)
(0.00684891932648 1.10640559694 0)
(0.0050073108968 1.07941337232 0)
(0.00344346610689 1.02360181547 0)
(0.002110847737 0.914302969197 0)
(0.00105492003951 0.712193356014 0)
(0.000305848111879 0.367139967035 0)
(0.00939782505587 1.70560082337 0)
(0.0166960362664 1.91707203809 0)
(0.00496673204173 1.71202977995 0)
(-0.0346017268812 0.280746662794 0)
(-0.0592243511933 0.191871382357 0)
(-0.00158851747091 0.192720163351 0)
(0.0713368577892 0.185206117841 0)
(0.091543879522 0.179393528761 0)
(0.0728129383599 0.178831863957 0)
(0.0329452414136 0.519894375745 0)
(0.0155291348564 0.932320880018 0)
(0.0113349170442 1.0888235916 0)
(0.00875184008157 1.13734547549 0)
(0.00674021773046 1.14246059569 0)
(0.00508673541965 1.12912563257 0)
(0.00368711475421 1.09922771224 0)
(0.00249950540381 1.04108462777 0)
(0.001502931821 0.929443540278 0)
(0.000749630885101 0.724015263024 0)
(0.00022449971075 0.373524235394 0)
(0.00641364671 1.65690083859 0)
(0.0142208264056 1.82809555146 0)
(0.00240508218445 1.6294606219 0)
(-0.0359173198993 0.271418035407 0)
(-0.0559000385675 0.207230276163 0)
(0.0016813251621 0.211293429296 0)
(0.0712087549051 0.204592460109 0)
(0.0879207250389 0.199479419725 0)
(0.0676466942609 0.199041978851 0)
(0.0299278565008 0.604005537448 0)
(0.0137099703433 0.977777007055 0)
(0.0101207069142 1.12171035353 0)
(0.00783760061102 1.16279563148 0)
(0.00606415664011 1.16349425757 0)
(0.00457910113365 1.14721699254 0)
(0.00331318356901 1.11502826727 0)
(0.00223990766986 1.05485734784 0)
(0.00134539328768 0.941038667726 0)
(0.000678354490531 0.732671231066 0)
(0.000207938844915 0.377835053916 0)
(-0.00227993977209 1.63933261642 0)
(0.00409481884821 1.71094115353 0)
(-0.0002666726844 1.51940266899 0)
(-0.0292733534765 0.266131931534 0)
(-0.0410009522911 0.224426292094 0)
(0.0134482255484 0.230505215222 0)
(0.0747690863954 0.224884587851 0)
(0.0863179403065 0.221378543516 0)
(0.0636884228878 0.220552360067 0)
(0.0274270624718 0.68501955738 0)
(0.0118139716274 1.02131238869 0)
(0.00840498244944 1.15129371157 0)
(0.00636208214195 1.18454779496 0)
(0.00486724062682 1.18130183553 0)
(0.00363116630181 1.16246557479 0)
(0.00259052491661 1.12819274694 0)
(0.00172859491188 1.06604888844 0)
(0.00103439681294 0.950127045297 0)
(0.000542716193852 0.739252042009 0)
(0.000179385616369 0.381064712199 0)
(-0.0235993037657 1.77871774646 0)
(-0.0513577760251 1.70362716531 0)
(-0.0402777733843 1.15356657621 0)
(-0.0324430511927 0.2675620729 0)
(-0.0255745046536 0.247505815576 0)
(0.032784358047 0.252639775876 0)
(0.0808474551875 0.246651105911 0)
(0.0815266873734 0.246777413127 0)
(0.0523895220059 0.252492082602 0)
(0.018614912928 0.772714286258 0)
(0.0042825300115 1.06043638374 0)
(0.00214978109385 1.17238344943 0)
(0.00123362203551 1.19741621733 0)
(0.000746140382481 1.19090720769 0)
(0.000387500356993 1.17013605646 0)
(0.0001252627314 1.13420369484 0)
(-3.39218093243e-05 1.07033823972 0)
(-8.93983375169e-05 0.952593987011 0)
(-1.72942553758e-05 0.740047791027 0)
(2.94741721295e-05 0.380809810232 0)
(-0.0217629506455 2.00419994289 0)
(-0.05171984348 1.79608268523 0)
(-0.0646370493919 0.643176328676 0)
(-0.0674460223634 0.277250380744 0)
(-0.028655026734 0.27561219413 0)
(0.0425113961408 0.276232049442 0)
(0.073835931522 0.270158190421 0)
(0.0572628714009 0.269425084188 0)
(0.0213565971687 0.310301035303 0)
(0.00183768301234 0.846770205685 0)
(-0.00402197854628 1.07892503628 0)
(-0.00387960997996 1.17415863571 0)
(-0.00318958839529 1.19441676642 0)
(-0.00253528068661 1.18717284117 0)
(-0.00201982449004 1.16628334752 0)
(-0.00159766314035 1.13002346947 0)
(-0.00121288033508 1.06544077162 0)
(-0.000828282962403 0.946662950399 0)
(-0.000383772581642 0.733412086729 0)
(-6.66860697071e-05 0.375695550724 0)
(-0.022510276514 2.19019229978 0)
(-0.0849245047569 1.77308445118 0)
(-0.121243918615 0.409886001616 0)
(-0.0857826697348 0.291125593874 0)
(-0.0264995451164 0.299444089867 0)
(0.0300911560567 0.296727455745 0)
(0.0441416013303 0.289599112021 0)
(0.0217482538738 0.287753869529 0)
(-0.00273188793996 0.380576367366 0)
(-0.00946108074269 0.85519185313 0)
(-0.00619801438435 1.05799655918 0)
(-0.0026704211577 1.14996050489 0)
(-0.000383844769313 1.17700692654 0)
(0.000694454316383 1.17550104638 0)
(0.0010832885952 1.15864048005 0)
(0.00106192216623 1.12488078759 0)
(0.000821047405408 1.0615865349 0)
(0.000494126075834 0.942919950719 0)
(0.000270146978975 0.728767097858 0)
(0.000109002456178 0.37127557591 0)
(-0.0269696565495 2.39853595521 0)
(-0.117471940079 1.66331961924 0)
(-0.162581460808 0.36970631483 0)
(-0.0924059868516 0.308391582763 0)
(-0.0225462845008 0.320476509866 0)
(0.0195043778396 0.316867427728 0)
(0.0248163770714 0.30390288313 0)
(0.00467831129655 0.305784132111 0)
(-0.00755733575105 0.404416353697 0)
(-0.00443271732713 0.788768775402 0)
(0.00483866576981 0.989840054809 0)
(0.0118323373404 1.10124724475 0)
(0.0151057065407 1.15578323891 0)
(0.0152336216121 1.17386338825 0)
(0.0135791459894 1.16863963982 0)
(0.011085434822 1.14194247517 0)
(0.00821608468138 1.08263134266 0)
(0.00528112784263 0.96493157908 0)
(0.00269021201435 0.747301038249 0)
(0.000775302880985 0.380854162243 0)
(-0.0205744236757 2.60151278807 0)
(-0.117973804394 1.59041429292 0)
(-0.172315507534 0.357501533905 0)
(-0.101280496156 0.3276152942 0)
(-0.0356822662916 0.340811361361 0)
(0.000557782409124 0.337648217841 0)
(0.00765543521727 0.318960658983 0)
(-0.00653193917862 0.320638493101 0)
(-0.0141317350417 0.384902556786 0)
(-0.00135753122805 0.600558626809 0)
(0.0176371847951 0.878773800357 0)
(0.0272758401719 1.03231115902 0)
(0.0317350674619 1.13420602926 0)
(0.0315461989819 1.19168646112 0)
(0.0280347033343 1.21157401152 0)
(0.0227813297616 1.19874947618 0)
(0.0168712714044 1.146790776 0)
(0.0109080118417 1.03049452823 0)
(0.00557262329039 0.805134511947 0)
(0.00158538866551 0.415545349273 0)
(-0.00537180323541 2.71789792468 0)
(-0.105307376124 1.63300323147 0)
(-0.18021148205 0.368744528654 0)
(-0.116771185922 0.344513184142 0)
(-0.052508380622 0.357738254694 0)
(-0.0182531992692 0.356136265908 0)
(-0.00491582426085 0.336979889045 0)
(-0.0122863956168 0.33209286547 0)
(-0.0192940583639 0.368722750533 0)
(-0.0169951864969 0.439141408763 0)
(0.000104881162304 0.650936370041 0)
(0.0203715411013 0.925474450985 0)
(0.0291012437678 1.08747343331 0)
(0.0321447592711 1.20210516012 0)
(0.0305322076775 1.26460428912 0)
(0.0257526035543 1.27825486853 0)
(0.01935467801 1.23967365851 0)
(0.0125590174452 1.12634234634 0)
(0.00640237559761 0.890315107232 0)
(0.00181376789368 0.467682571336 0)
(0.0113648322877 2.71163120121 0)
(-0.0815078456119 1.81557827328 0)
(-0.184754924905 0.38683194335 0)
(-0.139863058848 0.360524427657 0)
(-0.0694810084137 0.3730728967 0)
(-0.0344086042578 0.37357661567 0)
(-0.0142510846105 0.358395628995 0)
(-0.014508988158 0.344296853051 0)
(-0.0237005522743 0.361408560764 0)
(-0.0254231404584 0.401906934923 0)
(-0.0203695827811 0.462069404124 0)
(-0.00331579312474 0.693239112615 0)
(0.0154854601866 0.994123636522 0)
(0.0228782491148 1.16809214425 0)
(0.0255092383721 1.28775590281 0)
(0.023823836076 1.34370321267 0)
(0.0191030485026 1.33159910404 0)
(0.0128174974155 1.22813719462 0)
(0.00663837954881 0.982766412567 0)
(0.00189901698665 0.524588315778 0)
(0.0214604899642 2.61134542829 0)
(-0.0551691838166 2.10694927797 0)
(-0.186236131874 0.410617794281 0)
(-0.172182860653 0.378664503891 0)
(-0.091504682264 0.385736032483 0)
(-0.0523836430218 0.389862991699 0)
(-0.0260583205625 0.379321126144 0)
(-0.018572007894 0.359013150162 0)
(-0.0272697273174 0.36133652476 0)
(-0.0357418159242 0.382390344659 0)
(-0.0339474968919 0.419591698853 0)
(-0.0265675958588 0.496131348344 0)
(-0.00829881659768 0.765589702547 0)
(0.0102569009286 1.08636650518 0)
(0.0171773174426 1.25901762122 0)
(0.0199469375807 1.37097181367 0)
(0.0184075674764 1.40241147255 0)
(0.0136321382071 1.32588702478 0)
(0.00748880529296 1.08060432671 0)
(0.0021972246234 0.587520502352 0)
(0.0229289291419 2.49844690833 0)
(-0.0146832926379 2.42776906703 0)
(-0.162986507923 0.488142058374 0)
(-0.201414629479 0.403670537064 0)
(-0.111390334484 0.396876763575 0)
(-0.066895444963 0.405824183784 0)
(-0.0355730532513 0.398879012987 0)
(-0.0210631066959 0.376358916319 0)
(-0.0253897347984 0.368153287291 0)
(-0.0394152035287 0.376054226835 0)
(-0.0450975331523 0.397256032723 0)
(-0.0391675359561 0.443717317167 0)
(-0.0290506964174 0.550988405409 0)
(-0.00909251054333 0.85892016246 0)
(0.009498834382 1.18929330432 0)
(0.0156461932593 1.35409216522 0)
(0.0175898485682 1.44432553487 0)
(0.0149211199233 1.41571266076 0)
(0.00907742771619 1.19046789845 0)
(0.00281981777663 0.665888947389 0)
(0.0424967113318 2.28325634758 0)
(0.0701664242087 2.53790758577 0)
(-0.0888285277618 0.978481901003 0)
(-0.215017923755 0.427720941923 0)
(-0.140428897961 0.407407403784 0)
(-0.0824197491041 0.420400624393 0)
(-0.0473773322701 0.41670540135 0)
(-0.0275451202961 0.394767475289 0)
(-0.024840724028 0.380647976782 0)
(-0.0388243119583 0.377217540778 0)
(-0.0519404714578 0.388428366033 0)
(-0.050692373758 0.415226726767 0)
(-0.0409643904215 0.478965442519 0)
(-0.0288669489136 0.622927747335 0)
(-0.00828340039229 0.976509258655 0)
(0.00933435154225 1.30558952057 0)
(0.0141002332239 1.45690662087 0)
(0.0140916865232 1.49073141031 0)
(0.00964823583428 1.30694129905 0)
(0.00326577030634 0.761934251749 0)
(0.0409512296007 1.97876544496 0)
(0.0618912832273 2.45194030703 0)
(-0.0588876767659 1.67404111929 0)
(-0.202894861567 0.458065086306 0)
(-0.168624519307 0.426525853795 0)
(-0.0921756515932 0.433203230344 0)
(-0.0544579079714 0.432525045394 0)
(-0.0301466760544 0.412972697651 0)
(-0.0211942776336 0.395652701469 0)
(-0.0310144801324 0.385037456475 0)
(-0.0490430635124 0.386373082891 0)
(-0.0559863948605 0.402232019409 0)
(-0.049726193614 0.439476359859 0)
(-0.0391752961096 0.531772498003 0)
(-0.0268652864677 0.740429000394 0)
(-0.0104233572543 1.16866851618 0)
(0.00277062006565 1.4281794872 0)
(0.00674096768563 1.53088828795 0)
(0.00592514226947 1.3953587376 0)
(0.00231571593723 0.848386297423 0)
(0.0341536201563 1.75092756176 0)
(0.0497051709109 2.36353796963 0)
(0.00139140723857 2.13396288876 0)
(-0.140714760306 0.566220978185 0)
(-0.179202518816 0.456005670261 0)
(-0.104285954548 0.444517940672 0)
(-0.0618857547143 0.44680152769 0)
(-0.0322098802475 0.430361246342 0)
(-0.0179387156193 0.410640625736 0)
(-0.0218205660645 0.39656862199 0)
(-0.0410294760985 0.38996739539 0)
(-0.0564816307024 0.396113753861 0)
(-0.0557621749485 0.419975363904 0)
(-0.047119021499 0.48325654178 0)
(-0.0374350173831 0.641929454194 0)
(-0.0241759107197 0.974164754478 0)
(-0.0110756001646 1.35626092411 0)
(-0.00409777314585 1.51464614619 0)
(-0.000679172246035 1.41601269456 0)
(0.000211924443743 0.884404255564 0)
(0.0403831327632 1.52230072027 0)
(0.0706467567832 2.20686086664 0)
(0.0795613750634 2.34842801966 0)
(-0.0612005987379 1.04479430596 0)
(-0.175326103648 0.472459835583 0)
(-0.119859237095 0.454543141231 0)
(-0.0655696413947 0.459623779554 0)
(-0.0306388441531 0.446422550604 0)
(-0.0125921097529 0.424465089165 0)
(-0.0126779959695 0.409474784964 0)
(-0.0318243573072 0.398253843349 0)
(-0.0518353612454 0.395941919981 0)
(-0.0554325001166 0.409117274344 0)
(-0.0493530987449 0.456690435572 0)
(-0.0418645511846 0.586670887559 0)
(-0.0342176929595 0.853539721082 0)
(-0.0246652567239 1.25634203072 0)
(-0.0151041810235 1.43566076828 0)
(-0.0077205570616 1.35503013881 0)
(-0.0021877827485 0.847842585538 0)
(0.0287105190588 1.31063424718 0)
(0.0421270026375 2.05355569891 0)
(0.0346037915213 2.44743680618 0)
(-0.0810845080118 1.56641836307 0)
(-0.182111242303 0.476785719781 0)
(-0.136749740394 0.465278166856 0)
(-0.0689383487124 0.472228952203 0)
(-0.0286015451276 0.461690607319 0)
(-0.00772014685912 0.437471845323 0)
(-0.00703203852428 0.422768759498 0)
(-0.0271526429502 0.409280210977 0)
(-0.0474832391461 0.400445451788 0)
(-0.0510704476869 0.405141124671 0)
(-0.0460979883535 0.440147975589 0)
(-0.0401223227208 0.549183840765 0)
(-0.0339271847157 0.78816719802 0)
(-0.0259575640752 1.1478817677 0)
(-0.017176693232 1.31838600556 0)
(-0.00925691286973 1.24064675879 0)
(-0.00271583106002 0.761902207429 0)
(0.0207729818964 1.19515005139 0)
(0.0259369669378 1.99750364538 0)
(0.0174204735154 2.5792425152 0)
(-0.0841594763578 1.79004280432 0)
(-0.184117052162 0.483274656671 0)
(-0.145926955861 0.475916795294 0)
(-0.0717275848947 0.483888838637 0)
(-0.0268623534669 0.475355624756 0)
(-0.00481996363059 0.449350051888 0)
(-0.00814099690605 0.435143426025 0)
(-0.0303362231664 0.419959227256 0)
(-0.045790044584 0.407414269454 0)
(-0.0461192262508 0.40591513191 0)
(-0.0414678956865 0.430355055145 0)
(-0.0364422236347 0.5195093952 0)
(-0.031270927936 0.726868946582 0)
(-0.0245537986233 1.04440412457 0)
(-0.0166973815287 1.19366457303 0)
(-0.00902502486932 1.11175750918 0)
(-0.00261456144078 0.665528997962 0)
(0.0134670693355 1.14526784956 0)
(0.00983810516899 1.99889644487 0)
(-0.000960337347869 2.68573822656 0)
(-0.0912166883578 1.91866551037 0)
(-0.18465680643 0.49160639049 0)
(-0.14931691086 0.486647469431 0)
(-0.0726301532031 0.495145898755 0)
(-0.0254207988816 0.487799721132 0)
(-0.00667602000057 0.460695793334 0)
(-0.0179082301158 0.446001413316 0)
(-0.0378315544447 0.429747389109 0)
(-0.0440961280944 0.415739047105 0)
(-0.0416552698014 0.410069892345 0)
(-0.0375427057851 0.425663888773 0)
(-0.0332870645382 0.49543761365 0)
(-0.0286982605496 0.667996086575 0)
(-0.022680171505 0.94586410023 0)
(-0.0154816267486 1.07064034646 0)
(-0.00822061081874 0.984101976313 0)
(-0.00231553864142 0.573693375024 0)
(0.0106803469725 1.15230542349 0)
(0.00162366783067 2.039277132 0)
(-0.00942712959451 2.77269064126 0)
(-0.0939234720213 1.96435536114 0)
(-0.1841324548 0.501629350959 0)
(-0.150255281444 0.497599770582 0)
(-0.0732482584568 0.506543069199 0)
(-0.0271050300855 0.4994605688 0)
(-0.0175047464634 0.471745761746 0)
(-0.0323671873218 0.456111788107 0)
(-0.0427436865895 0.439518845307 0)
(-0.0422625571019 0.424871637543 0)
(-0.0389156565639 0.416504819556 0)
(-0.0353336704471 0.424715093313 0)
(-0.0316123452798 0.47485296691 0)
(-0.0272641887759 0.60911990467 0)
(-0.02144826297 0.850988454799 0)
(-0.0144994841903 0.952711811338 0)
(-0.00741393864444 0.862772966112 0)
(-0.00194673019509 0.492250799704 0)
(0.0122911494681 1.17759945114 0)
(0.00502032391567 2.08792591148 0)
(-0.00485251186098 2.84343272188 0)
(-0.0931170787905 2.00479194381 0)
(-0.187506741317 0.513906162172 0)
(-0.152920277471 0.508614991161 0)
(-0.0755482092872 0.518313703631 0)
(-0.0339609468113 0.510835169391 0)
(-0.0305555781711 0.482659287994 0)
(-0.0418386810953 0.466382715874 0)
(-0.0447798012808 0.449768721949 0)
(-0.0419676260376 0.434952416831 0)
(-0.0384683579351 0.424720429343 0)
(-0.0348012931491 0.426349546733 0)
(-0.0309779239088 0.45777186476 0)
(-0.0267593893565 0.552318667133 0)
(-0.021720432411 0.767245834664 0)
(-0.0150694320961 0.835928870944 0)
(-0.00749361169658 0.749690460399 0)
(-0.00190600301899 0.419021789051 0)
(0.0174099155642 1.17076992776 0)
(0.0159288375189 2.12083939176 0)
(0.0108736950975 2.88849546876 0)
(-0.08206535058 2.11585085825 0)
(-0.18973555423 0.532146396192 0)
(-0.158147953565 0.522353011395 0)
(-0.0789162453421 0.531725148021 0)
(-0.0396639981051 0.524301421272 0)
(-0.0366826801833 0.495371301421 0)
(-0.0449066447417 0.478203229079 0)
(-0.0454817554323 0.461690551142 0)
(-0.0417299202041 0.446876193244 0)
(-0.0378769696675 0.435094151483 0)
(-0.0341777629858 0.430862241195 0)
(-0.0304105838947 0.445950432572 0)
(-0.0264672166601 0.504562452304 0)
(-0.020798263409 0.67799279822 0)
(-0.0178632555994 0.797198941333 0)
(-0.0132274261531 0.628981695225 0)
(-0.00394225435987 0.307414604864 0)
(0.0185525715625 1.12717614744 0)
(0.0210268460419 2.12129782709 0)
(0.0235069208939 2.88070197907 0)
(-0.0524833999221 2.31763964109 0)
(-0.173893983277 0.555018888967 0)
(-0.166314869783 0.551909424329 0)
(-0.0839545784749 0.545871763148 0)
(-0.0392246533966 0.540076394352 0)
(-0.0289894594494 0.509662845846 0)
(-0.0350740905755 0.491836812925 0)
(-0.0376376368115 0.474707402372 0)
(-0.0352362752324 0.459560766983 0)
(-0.0317505475169 0.446421348082 0)
(-0.0282344379116 0.437438976789 0)
(-0.0246498580612 0.439053695482 0)
(-0.0208193976357 0.466836525127 0)
(-0.0158530109033 0.575304045204 0)
(-0.0135746823493 0.837250652011 0)
(-0.00595629166576 0.448749263112 0)
(0.00116819811984 0.22426698282 0)
(0.0263760891407 1.01008512914 0)
(0.0476634327076 2.01635822409 0)
(0.0720298138738 2.75436003908 0)
(0.0858634650986 2.42735021841 0)
(-0.0213874207513 0.97140347015 0)
(-0.128775889087 0.589901617448 0)
(-0.0900749435219 0.564023684013 0)
(-0.0302916703113 0.558873768441 0)
(-0.00448388899929 0.525766861719 0)
(-0.00316606092281 0.507998561538 0)
(-0.00847911799501 0.488940674079 0)
(-0.0114016883113 0.471734749335 0)
(-0.0114714224952 0.456440771119 0)
(-0.00977737380611 0.4435161952 0)
(-0.00736093740655 0.435237648812 0)
(-0.00493105820912 0.438841319398 0)
(-0.00319441852829 0.494507662405 0)
(-0.00118039577932 0.833296936322 0)
(0.00169988972954 0.328429304523 0)
(0.00155645664433 0.203781623488 0)
(0.0203734886412 0.885673526542 0)
(0.0284920729205 1.86702675097 0)
(0.0440952614691 2.57281569684 0)
(0.0553184876292 2.39849162123 0)
(-0.0194319975999 1.52043254753 0)
(-0.11553874954 0.614175242051 0)
(-0.102848736236 0.585165005357 0)
(-0.0383008376266 0.577336789837 0)
(0.00607109940192 0.543236096133 0)
(0.0202237875795 0.52370064645 0)
(0.0221335047727 0.502692160051 0)
(0.0206670444154 0.482618856022 0)
(0.0182018457469 0.464102998696 0)
(0.0162237953908 0.447439535633 0)
(0.0135451324225 0.433602857188 0)
(0.00973236009215 0.424932358981 0)
(0.00583934875252 0.450287810169 0)
(0.00400987586717 0.788359376227 0)
(0.00273016302683 0.341695040573 0)
(0.000684749893417 0.183131536963 0)
(0.0130217762988 0.856068313369 0)
(0.0117016068539 1.79818242469 0)
(0.0194494644165 2.44706630585 0)
(0.0279834613201 2.36083869576 0)
(-0.016330668399 1.73813476199 0)
(-0.100414767126 0.631287951291 0)
(-0.119649258401 0.600072684797 0)
(-0.0583381912529 0.591754145266 0)
(0.00352068315432 0.56155097189 0)
(0.0286159082782 0.536568319469 0)
(0.0390704806847 0.513320265456 0)
(0.0456312621732 0.491202149609 0)
(0.0486680169424 0.47028459778 0)
(0.0486235920146 0.450739878203 0)
(0.0419730495053 0.43394815788 0)
(0.0252568231944 0.421708276191 0)
(0.0103771490621 0.431888785982 0)
(0.0100379716796 0.675270180116 0)
(0.00920272222093 0.430709472089 0)
(0.00234268947822 0.207669620364 0)
(0.0121670726511 0.864537633306 0)
(0.00793568622862 1.79302721895 0)
(0.0100285227782 2.36429886496 0)
(0.0157044661926 2.3254500133 0)
(-0.0143228695889 1.83694046397 0)
(-0.0858377501865 0.652461682237 0)
(-0.123511073566 0.611231294465 0)
(-0.0724108324366 0.607313763145 0)
(-0.000721264343035 0.584073789433 0)
(0.0317012757282 0.550931058355 0)
(0.0482089984091 0.523695562366 0)
(0.0601107492136 0.498937707799 0)
(0.0688579386705 0.476219557733 0)
(0.0749102751968 0.455046596962 0)
(0.0695334808571 0.436859435583 0)
(0.0391626293384 0.423566244326 0)
(0.0112210638978 0.428587633603 0)
(0.00459504230086 0.571896587551 0)
(0.00331024343873 0.491072011405 0)
(0.00167004784323 0.258559153412 0)
(0.00805654053223 0.882255905744 0)
(0.00113649048982 1.82498318364 0)
(0.000807256816208 2.30640324104 0)
(0.00644222033433 2.28590237518 0)
(-0.0228300328256 1.86582624246 0)
(-0.0905715952744 0.664290331242 0)
(-0.12473447391 0.623678059746 0)
(-0.0762120303758 0.625338259158 0)
(-0.0052814343872 0.60938277147 0)
(0.0316267508758 0.567630955402 0)
(0.0530932267213 0.535352849312 0)
(0.0686134596511 0.506915438545 0)
(0.0805466827691 0.481767455489 0)
(0.0893844653871 0.45919419314 0)
(0.0837610476763 0.440731541209 0)
(0.0447921318156 0.427920414878 0)
(0.00925396772385 0.434492349675 0)
(0.00227800956059 0.555526980336 0)
(0.000927748344556 0.482228095522 0)
(0.000328172920849 0.274743352511 0)
(-3.95185228988e-06 0.938582100021 0)
(-0.0120726615805 1.88578652279 0)
(-0.0162389170157 2.27150389345 0)
(-0.0105248316545 2.2219885818 0)
(-0.0357563426003 1.82513199072 0)
(-0.0961867286674 0.661184582567 0)
(-0.11763619097 0.635814903963 0)
(-0.0696415645773 0.64297299899 0)
(-0.00683667747133 0.633084193775 0)
(0.0321096807354 0.585159824702 0)
(0.057598411506 0.547054992748 0)
(0.0760471111499 0.514660487785 0)
(0.0900177419386 0.486821583751 0)
(0.100539097581 0.462683867178 0)
(0.0944639334118 0.444114868666 0)
(0.0488344538185 0.433056716959 0)
(0.00629285607168 0.461592879691 0)
(-0.00128064134451 0.542966864878 0)
(-0.000763777367554 0.469595988119 0)
(-0.000119041093589 0.261682444031 0)
(-0.00119177563959 1.05794693415 0)
(-0.0227381534527 2.00099544664 0)
(-0.0375852461355 2.2989287744 0)
(-0.0400037344924 2.15457213849 0)
(-0.0527291460799 1.62607357429 0)
(-0.100271472936 0.659758214333 0)
(-0.107030395137 0.651589694896 0)
(-0.0521800764863 0.662724515839 0)
(-0.000187618929982 0.656979309207 0)
(0.0390487233618 0.60465521487 0)
(0.0674017416403 0.559771132313 0)
(0.0881756554866 0.522880675377 0)
(0.104040423365 0.492067859764 0)
(0.117282385552 0.466345890889 0)
(0.111774499545 0.44822544774 0)
(0.0598284266286 0.438270275198 0)
(0.00936190538753 0.512596671063 0)
(-0.000835770682249 0.528370757556 0)
(-0.000136345007655 0.445148575228 0)
(0.000237276338298 0.242134313623 0)
(-0.000864416167663 1.20411084735 0)
(-0.0228891579944 2.16824304505 0)
(-0.0448813205665 2.41311438357 0)
(-0.0706077867471 2.16441596203 0)
(-0.0883848720527 1.17304030406 0)
(-0.120229341973 0.670836157055 0)
(-0.107281917293 0.674916121509 0)
(-0.0415875614251 0.686327699485 0)
(0.00369402678147 0.68253287392 0)
(0.0440110596848 0.626350428802 0)
(0.0750763947418 0.574338814602 0)
(0.0974749947803 0.532367010661 0)
(0.115694658013 0.497983918504 0)
(0.132261372861 0.470395505414 0)
(0.120080082966 0.453127179816 0)
(0.061477076177 0.443118346005 0)
(0.0129184399535 0.542656769808 0)
(0.00263351472593 0.518558550325 0)
(0.00242491892943 0.427997161027 0)
(0.00128281096776 0.23002585655 0)
(0.00747963255158 1.27547945383 0)
(0.0019854319885 2.29298222202 0)
(-0.00757580944156 2.52461680028 0)
(-0.0627104630241 2.21996757035 0)
(-0.139837465193 0.830734506588 0)
(-0.158245488099 0.681556187742 0)
(-0.110541913013 0.690570202463 0)
(-0.0496274902787 0.701256404195 0)
(-0.00476290040713 0.698048499937 0)
(0.037846825879 0.642633893169 0)
(0.0712805184305 0.585613347175 0)
(0.0951923769316 0.53960217377 0)
(0.115801477495 0.502153170075 0)
(0.134781661299 0.473038198041 0)
(0.114053937118 0.456893011117 0)
(0.0509775157137 0.448714440769 0)
(0.00925154835324 0.528930029408 0)
(0.00165535421413 0.498703485634 0)
(0.00233580031064 0.407549897104 0)
(0.00148832311007 0.217581731502 0)
(0.00712965327805 1.28084318055 0)
(0.00296125827045 2.34820821594 0)
(-0.00305364700686 2.57862738481 0)
(-0.088675359754 2.2475194572 0)
(-0.187326733086 0.747986781597 0)
(-0.16511836101 0.680695843676 0)
(-0.0947704484014 0.696077778005 0)
(-0.040116806438 0.708926985295 0)
(0.00598743841754 0.70559465808 0)
(0.0478441687072 0.652930657678 0)
(0.0808878928972 0.592913886715 0)
(0.106113667897 0.544175622603 0)
(0.129301813928 0.504788470787 0)
(0.153456968889 0.473926017022 0)
(0.128536464449 0.456851048895 0)
(0.0558538456767 0.450717533556 0)
(0.0119892164316 0.502616940778 0)
(0.00391450790419 0.470756488339 0)
(0.00365788922122 0.381495557278 0)
(0.00197735772501 0.200252622832 0)
)
;

boundaryField
{
    emptyPatch
    {
        type            empty;
    }
    minY
    {
        type            fixedValue;
        value           nonuniform List<vector> 0();
    }
    maxY
    {
        type            zeroGradient;
    }
    maxX
    {
        type            fixedValue;
        value           uniform (0 0 0);
    }
    water_to_heater
    {
        type            fixedValue;
        value           nonuniform List<vector> 0();
    }
    procBoundary2to1
    {
        type            processor;
        value           nonuniform List<vector> 
20
(
(0.007344831305 1.67213258127 0)
(-0.00112471950832 2.13753491188 0)
(0.0029522533938 2.08477480881 0)
(0.0222808397014 0.977623061249 0)
(0.0481023369987 0.375064815243 0)
(0.0782038119262 0.266171523662 0)
(0.112417601156 0.234006140813 0)
(0.137465331097 0.217617665284 0)
(0.132542859977 0.181980008453 0)
(0.0927033320231 0.222824553554 0)
(0.0512772623913 0.46885598587 0)
(0.0262067863699 0.701272927321 0)
(0.0134004316543 0.836171431181 0)
(0.00552773556948 0.916262086451 0)
(0.000766191601757 0.962488856334 0)
(-0.00153180952756 0.978232531636 0)
(-0.00205785536988 0.950562959618 0)
(-0.00169653055033 0.853997180677 0)
(-0.00111253721913 0.654838456781 0)
(-0.000406252693511 0.33679899489 0)
)
;
    }
    procBoundary2to3
    {
        type            processor;
        value           nonuniform List<vector> 
39
(
(0.0148575259547 1.61641336983 0)
(0.0126199677652 1.64535854781 0)
(0.011016977349 1.64740076766 0)
(0.00911160758263 1.63351128639 0)
(0.00686564175432 1.61900985982 0)
(0.00400931619723 1.61670671071 0)
(0.000222493258184 1.64572782533 0)
(-0.00409637004797 1.72622994649 0)
(-0.00747450203476 1.85123560985 0)
(-0.00832436200101 1.99067440163 0)
(-0.00812616345974 2.13039440908 0)
(-0.00812616345974 2.13039440908 0)
(-0.00373251581733 2.17952327614 0)
(0.000775304681593 2.24235529061 0)
(0.00548052540766 2.24613771462 0)
(0.00978526234654 2.19401478874 0)
(0.0134228775065 2.09726100624 0)
(0.0168649707202 1.95921534386 0)
(0.0196734646833 1.78703972166 0)
(0.0196125983383 1.60971865191 0)
(0.0191791136269 1.44298385904 0)
(0.016588406869 1.29668796046 0)
(0.0154820962211 1.17298478852 0)
(0.0154820962211 1.17298478852 0)
(0.0138212144285 1.09591372516 0)
(0.0150713720633 1.04336530868 0)
(0.0152244973383 0.995977441261 0)
(0.0159286281858 0.937046405074 0)
(0.0158029432521 0.863959179399 0)
(0.0158715910282 0.783463326733 0)
(0.0184064229089 0.713953706593 0)
(0.015797047865 0.669342241514 0)
(0.0143917086869 0.64226946401 0)
(0.0116871186956 0.633347531923 0)
(0.00737882791581 0.656648317028 0)